Title
82296
    1SAPS     N    1   0.701   4.823  11.047  0.1461  0.2242 -0.3229
    1SAPS   HN1    2   0.714   4.739  11.107 -1.6330  1.4235  1.9032
    1SAPS   HN2    3   0.619   4.804  10.986  0.8057  0.4538 -1.2994
    1SAPS   HN3    4   0.780   4.855  10.989  3.1325  1.1553  3.7619
    1SAPS   C12    5   0.644   4.921  11.151 -0.5115 -0.4295 -0.1717
    1SAPS  H12A    6   0.568   4.860  11.199 -0.9036  0.3447  0.2132
    1SAPS   C13    7   0.743   4.971  11.269  0.3789  0.5513  0.5311
    1SAPS  O13A    8   0.832   4.887  11.295 -0.2012 -0.0850  0.1831
    1SAPS  O13B    9   0.704   5.052  11.352  0.3084  0.3230 -0.3300
    1SAPS   C11   10   0.571   5.035  11.070  0.8723 -0.1583  0.3492
    1SAPS  H11A   11   0.638   5.087  10.998 -0.1238  1.5624  0.5928
    1SAPS  H11B   12   0.531   5.110  11.142 -0.8267 -1.5874  0.9553
    1SAPS     P   13   0.372   5.086  10.915  0.0770  0.0751 -0.3934
    1SAPS   O13   14   0.241   5.023  10.891  0.0874 -0.3360 -0.2198
    1SAPS   O14   15   0.364   5.222  10.975 -0.5382 -0.0641  0.0215
    1SAPS   O12   16   0.460   4.980  10.995 -0.3877  0.5800 -0.0955
    1SAPS   O11   17   0.458   5.101  10.778  0.0270 -0.1270  0.0004
    1SAPS    C1   18   0.521   4.976  10.741 -0.1889  0.6278  0.2322
    1SAPS    HA   19   0.604   4.950  10.810  0.3643 -3.8116 -1.8025
    1SAPS    HB   20   0.447   4.895  10.726 -1.9797  2.2605 -0.0970
    1SAPS    C2   21   0.590   4.989  10.601 -0.0209 -0.1540  0.3717
    1SAPS    HS   22   0.655   5.080  10.600  0.2843 -0.3762 -0.5546
    1SAPS   O21   23   0.483   4.991  10.502 -0.1595  0.0203 -0.7622
    1SAPS   C21   24   0.506   5.054  10.388 -0.6312 -0.0859  0.5101
    1SAPS   O22   25   0.609   5.113  10.373  0.5762 -0.5820  0.0909
    1SAPS   C22   26   0.401   5.021  10.286 -0.6677  0.2852 -1.1884
    1SAPS   H2R   27   0.421   4.916  10.256  0.0770 -0.1523  0.7078
    1SAPS   H2S   28   0.301   5.014  10.333 -0.6644 -0.2774 -1.2567
    1SAPS    C3   29   0.676   4.865  10.583  0.3051  0.3314  0.2257
    1SAPS    HX   30   0.609   4.776  10.582 -0.9420  1.2443  0.4655
    1SAPS    HY   31   0.739   4.856  10.674  1.6728  1.1546 -0.6083
    1SAPS   O31   32   0.749   4.874  10.463  0.2879  0.2696 -0.0809
    1SAPS   C31   33   0.844   4.967  10.461 -0.0738 -0.4801  0.6270
    1SAPS   O32   34   0.886   5.025  10.555  0.0255 -0.1563 -0.5153
    1SAPS   C32   35   0.884   4.979  10.315  0.3510  0.1216  0.8920
    1SAPS   H2X   36   0.941   5.074  10.306  1.9672 -0.6968  1.9181
    1SAPS   H2Y   37   0.797   4.972  10.246 -0.3140 -1.7782  1.8455
    1SAPS   C23   38   0.396   5.096  10.156  0.2008  0.5313 -0.4452
    1SAPS   H3R   39   0.327   5.040  10.089  0.2170  0.5050 -0.4395
    1SAPS   H3S   40   0.497   5.084  10.111 -0.8093  0.8621 -3.0180
    1SAPS   C24   41   0.362   5.247  10.164 -0.6356 -0.7830 -0.3968
    1SAPS   H4R   42   0.388   5.282  10.062  3.0883  0.5104  0.7974
    1SAPS   H4S   43   0.438   5.300  10.226 -0.4537  1.1526 -2.1688
    1SAPS   C25   44   0.223   5.277  10.208 -0.4693  0.1057  0.5217
    1SAPS   H5R   45   0.214   5.241  10.312  3.3755 -0.2032  0.9054
    1SAPS   C26   46   0.112   5.326  10.157  0.0457 -0.0775 -0.2350
    1SAPS   H6R   47   0.032   5.329  10.233  2.0408 -1.5847  2.0827
    1SAPS   C27   48   0.090   5.370  10.012  0.2613 -0.3487  0.5333
    1SAPS   H7R   49   0.028   5.305   9.946  0.3241  0.5798 -0.4524
    1SAPS   H7S   50   0.187   5.382   9.959  1.2973  1.6537  2.7172
    1SAPS   C28   51   0.014   5.505  10.005  0.1643 -0.4366 -0.0376
    1SAPS   H8R   52   0.006   5.557  10.102 -0.0506  0.7736 -0.6891
    1SAPS   C29   53  -0.029   5.569   9.895  0.0244 -0.5270  0.1410
    1SAPS   H9R   54  -0.090   5.661   9.900 -0.3524 -0.5523 -2.4907
    1SAPS  C210   55  -0.003   5.512   9.761 -0.4544 -0.2938  0.7611
    1SAPS  H10R   56  -0.003   5.401   9.761  0.3622 -0.3095  1.6464
    1SAPS  H10S   57   0.103   5.536   9.738 -0.1119 -1.6541  0.8268
    1SAPS  C211   58  -0.096   5.561   9.653 -0.2850  0.4303 -0.0158
    1SAPS  H11R   59  -0.200   5.529   9.666 -0.0483 -0.0695  0.6907
    1SAPS  C212   60  -0.077   5.636   9.545  0.1746 -0.2131 -0.0326
    1SAPS  H12R   61  -0.161   5.628   9.474 -0.8929  0.3804  1.1244
    1SAPS  C213   62   0.055   5.693   9.504  0.4520  0.0072 -0.3492
    1SAPS  H13R   63   0.121   5.708   9.591  1.6920  1.1801 -1.4398
    1SAPS  H13S   64   0.043   5.791   9.453  0.4032  0.6491  0.8721
    1SAPS  C214   65   0.131   5.597   9.416  0.2812  0.0372  0.2848
    1SAPS  H14R   66   0.204   5.530   9.465 -1.0581 -1.2110  0.6566
    1SAPS  C215   67   0.124   5.604   9.278 -0.6742 -0.4811 -0.9307
    1SAPS  H15R   68   0.193   5.534   9.227  2.3836  1.4476  0.2658
    1SAPS  C216   69   0.050   5.704   9.194 -0.4427 -0.2267 -0.3944
    1SAPS  H16R   70   0.016   5.790   9.255  0.5532 -0.8301  1.0583
    1SAPS  H16S   71  -0.048   5.662   9.164 -0.6358  0.2039 -0.3617
    1SAPS  C217   72   0.122   5.778   9.070 -0.3152  1.0026  0.0162
    1SAPS  H17R   73   0.203   5.840   9.115  0.4486 -0.2401  0.4068
    1SAPS  H17S   74   0.063   5.855   9.016  0.0511  0.3053 -1.4283
    1SAPS  C218   75   0.195   5.680   8.977 -0.4446 -1.2169 -0.4673
    1SAPS  H18R   76   0.119   5.614   8.930  0.2232 -0.7613 -2.2599
    1SAPS  H18S   77   0.260   5.613   9.038 -0.9242 -1.8740 -0.6679
    1SAPS  C219   78   0.290   5.751   8.881 -0.1781  0.2081 -0.4470
    1SAPS  H19R   79   0.327   5.674   8.810  2.6407 -1.2138  2.3227
    1SAPS  H19S   80   0.378   5.790   8.937 -0.8794  0.3735  0.5834
    1SAPS  C220   81   0.230   5.869   8.802  0.3709  0.1553  0.3194
    1SAPS  H20R   82   0.294   5.903   8.717  3.7076 -2.9830  1.3261
    1SAPS  H20S   83   0.210   5.952   8.874  1.5135  1.2172 -0.5296
    1SAPS  H20T   84   0.139   5.817   8.765  2.0011 -1.7845 -1.1591
    1SAPS   C33   85   0.979   4.863  10.268  0.8059  0.3727  0.1583
    1SAPS   H3X   86   0.933   4.762  10.273 -0.3149  0.7044 -1.9385
    1SAPS   H3Y   87   1.073   4.857  10.326 -0.4133 -1.3462  2.0520
    1SAPS   C34   88   1.023   4.894  10.122 -0.2705  0.0226 -0.4273
    1SAPS   H4X   89   1.085   4.987  10.126  1.4499 -1.1197  2.1156
    1SAPS   H4Y   90   0.929   4.911  10.065 -0.9011 -1.4842  0.1091
    1SAPS   C35   91   1.110   4.795  10.048  0.4170  0.2261  0.0361
    1SAPS   H5X   92   1.082   4.687  10.054  2.3410 -0.3478 -0.6039
    1SAPS   H5Y   93   1.204   4.809  10.106 -0.7797  0.0819  2.1132
    1SAPS   C36   94   1.127   4.827   9.905 -0.2859 -0.0534  0.2109
    1SAPS   H6X   95   1.156   4.930   9.876  1.4239  0.0253  1.9854
    1SAPS   H6Y   96   1.031   4.806   9.854 -0.2358 -0.9120  0.4514
    1SAPS   C37   97   1.244   4.730   9.847  0.6261 -0.1586 -0.4371
    1SAPS   H7X   98   1.215   4.624   9.862 -1.5795  0.3681 -0.6423
    1SAPS   H7Y   99   1.337   4.744   9.906  0.3043 -1.0959  0.2961
    1SAPS   C38  100   1.289   4.763   9.697 -1.0124  0.3514  0.0779
    1SAPS   H8X  101   1.347   4.671   9.676 -0.1012  0.4903  1.8155
    1SAPS   H8Y  102   1.355   4.853   9.694  0.9451 -1.0257 -0.6487
    1SAPS   C39  103   1.177   4.792   9.599 -1.2391  0.7056 -0.8482
    1SAPS   H9X  104   1.133   4.892   9.618 -1.0938  1.0183 -2.0771
    1SAPS   H9Y  105   1.104   4.709   9.611 -0.7594  0.4831  0.6925
    1SAPS  C310  106   1.225   4.798   9.452  0.4939 -0.3168 -0.7905
    1SAPS  H10X  107   1.242   4.703   9.397 -1.6386 -0.5876 -1.0797
    1SAPS  H10Y  108   1.326   4.842   9.449  0.6005 -0.4956 -0.0702
    1SAPS  C311  109   1.128   4.886   9.375 -0.2896  0.1300  0.1150
    1SAPS  H11X  110   1.079   4.969   9.431 -0.9193 -0.0940 -0.1092
    1SAPS  H11Y  111   1.044   4.818   9.351  0.1873 -1.3277  2.2763
    1SAPS  C312  112   1.197   4.947   9.254 -0.4643 -0.0610  0.5062
    1SAPS  H12X  113   1.224   4.865   9.185  2.4049  0.5660  0.7625
    1SAPS  H12Y  114   1.289   5.004   9.280  0.1147 -1.4450  1.6072
    1SAPS  C313  115   1.102   5.047   9.187  0.4343 -0.4165  0.9807
    1SAPS  H13X  116   1.067   5.123   9.261 -0.1832 -2.0143  2.4093
    1SAPS  H13Y  117   1.014   4.997   9.140 -0.6532  1.0724  1.3371
    1SAPS  C314  118   1.171   5.114   9.063 -0.8804 -0.2567  0.3458
    1SAPS  H14X  119   1.188   5.047   8.976 -0.9289  2.0042 -1.4973
    1SAPS  H14Y  120   1.269   5.148   9.102 -0.9627  0.8925 -0.3920
    1SAPS  C315  121   1.089   5.224   9.007 -0.1326 -0.5482  0.0874
    1SAPS  H15X  122   1.150   5.299   8.953 -0.4772  0.5234  1.1423
    1SAPS  H15Y  123   1.042   5.281   9.090  1.4382 -1.2400  1.5189
    1SAPS  C316  124   0.971   5.182   8.912 -0.1256  0.0082 -0.7289
    1SAPS  H16X  125   0.900   5.117   8.967  0.1771  1.9600  2.2299
    1SAPS  H16Y  126   1.014   5.131   8.824 -1.4790 -2.5578  0.0074
    1SAPS  C317  127   0.891   5.296   8.857  0.1383  0.5178  0.3672
    1SAPS  H17X  128   0.957   5.369   8.805 -0.7001  0.8828 -0.2104
    1SAPS  H17Y  129   0.845   5.357   8.938 -0.9323 -1.1805  1.0696
    1SAPS  C318  130   0.776   5.259   8.765 -0.4263 -0.4460 -0.1792
    1SAPS  H18X  131   0.824   5.214   8.676  1.5049  0.7270  0.2129
    1SAPS  H18Y  132   0.720   5.349   8.731 -1.2599 -1.0274 -0.3848
    1SAPS  H18Z  133   0.704   5.187   8.810 -2.1928  1.8297  0.8754
    2SAPS     N  134   5.058   6.633  10.894 -0.4476 -0.1000 -0.7514
    2SAPS   HN1  135   5.038   6.555  10.960 -1.0548  1.6849  1.3256
    2SAPS   HN2  136   4.977   6.659  10.834  0.2031  0.6442 -1.3222
    2SAPS   HN3  137   5.127   6.594  10.827  2.3856  2.3245  0.4699
    2SAPS   C12  138   5.112   6.744  10.981 -0.0520 -0.4815 -0.3473
    2SAPS  H12A  139   5.029   6.809  11.004  0.5446 -0.1343  0.9519
    2SAPS   C13  140   5.160   6.693  11.119 -0.0610 -0.6707 -0.4901
    2SAPS  O13A  141   5.160   6.571  11.147  0.0988  0.0261  0.7069
    2SAPS  O13B  142   5.220   6.772  11.197  0.3724 -0.0987  0.0403
    2SAPS   C11  143   5.225   6.809  10.895  0.3060  0.2223 -0.9234
    2SAPS  H11A  144   5.309   6.738  10.878 -1.1589 -1.3092 -2.1114
    2SAPS  H11B  145   5.255   6.898  10.954 -0.1610  0.0596 -0.4387
    2SAPS     P  146   5.253   6.960  10.682 -0.1371  0.0799  0.0083
    2SAPS   O13  147   5.205   7.092  10.718  0.1732 -0.6180  0.2674
    2SAPS   O14  148   5.400   6.943  10.681 -0.0767  0.4630  0.3605
    2SAPS   O12  149   5.175   6.848  10.768  0.0712 -0.2493 -0.0150
    2SAPS   O11  150   5.191   6.938  10.543  0.3168  0.4132  0.3938
    2SAPS    C1  151   5.150   6.810  10.494 -0.1984  0.2742 -0.2268
    2SAPS    HA  152   5.087   6.754  10.566  1.5128 -0.2736  0.9156
    2SAPS    HB  153   5.090   6.830  10.403  1.8643 -1.4227 -2.0932
    2SAPS    C2  154   5.264   6.706  10.454 -0.2523 -1.2598 -0.4562
    2SAPS    HS  155   5.317   6.678  10.547 -0.9248 -1.3095 -0.0828
    2SAPS   O21  156   5.349   6.776  10.363  0.1306 -0.2969 -0.2543
    2SAPS   C21  157   5.470   6.733  10.336 -0.0012 -0.0154  0.0101
    2SAPS   O22  158   5.510   6.621  10.367  0.1089 -0.0058  0.4237
    2SAPS   C22  159   5.559   6.855  10.289  0.5755  0.0105 -0.6466
    2SAPS   H2R  160   5.502   6.949  10.304 -0.5731 -0.3336 -2.4460
    2SAPS   H2S  161   5.622   6.851  10.380 -2.2628  1.0673  1.5399
    2SAPS    C3  162   5.196   6.580  10.395 -0.3999  1.0531  0.2994
    2SAPS    HX  163   5.142   6.532  10.479 -1.6388  0.2464 -0.9073
    2SAPS    HY  164   5.276   6.505  10.377 -0.7718  0.8347 -0.5164
    2SAPS   O31  165   5.103   6.600  10.284 -0.0378  0.3615 -0.5582
    2SAPS   C31  166   5.163   6.618  10.162  0.4561  0.9143 -0.2264
    2SAPS   O32  167   5.280   6.610  10.145 -0.0129 -0.0176  0.7115
    2SAPS   C32  168   5.056   6.653  10.056  0.2751  0.0670  0.1845
    2SAPS   H2X  169   4.967   6.692  10.110 -0.8252  0.3447 -1.7505
    2SAPS   H2Y  170   5.026   6.552  10.021  2.3995 -0.8279  0.7289
    2SAPS   C23  171   5.628   6.837  10.156  0.5119  0.1706  1.2584
    2SAPS   H3R  172   5.682   6.739  10.158  0.5587 -0.1896 -3.9698
    2SAPS   H3S  173   5.690   6.923  10.123  1.4314 -0.9092  0.0464
    2SAPS   C24  174   5.530   6.836  10.033  0.2491  0.2560  0.5406
    2SAPS   H4R  175   5.460   6.750  10.042  0.2651 -0.0159 -1.3486
    2SAPS   H4S  176   5.589   6.805   9.944  0.0183  0.6298  0.2555
    2SAPS   C25  177   5.453   6.969  10.023 -0.0538  0.0390 -0.7107
    2SAPS   H5R  178   5.422   7.017  10.116 -0.6080  0.7206 -1.2365
    2SAPS   C26  179   5.403   7.029   9.913  0.1210  0.5972 -0.1980
    2SAPS   H6R  180   5.357   7.128   9.927 -4.2091 -0.9674 -1.7701
    2SAPS   C27  181   5.418   6.977   9.774  0.9366  0.1112 -0.6443
    2SAPS   H7R  182   5.449   6.871   9.763  0.6117 -0.0539 -0.0106
    2SAPS   H7S  183   5.509   7.029   9.737 -0.2372  1.3829 -1.8714
    2SAPS   C28  184   5.304   6.989   9.677  0.5142 -0.0281 -0.2088
    2SAPS   H8R  185   5.202   6.987   9.718 -0.6936  0.9846 -2.9217
    2SAPS   C29  186   5.312   7.007   9.542  0.1076  0.4441  0.6479
    2SAPS   H9R  187   5.225   7.013   9.475  1.7738  0.6851 -1.6098
    2SAPS  C210  188   5.443   7.000   9.466  0.0198  0.0504 -0.2761
    2SAPS  H10R  189   5.536   7.000   9.527  0.2544 -0.4788 -0.6233
    2SAPS  H10S  190   5.449   7.090   9.402  2.2985  1.0532  1.1991
    2SAPS  C211  191   5.461   6.880   9.369  0.1200  0.1483 -0.3489
    2SAPS  H11R  192   5.507   6.790   9.413  0.3621 -0.3436 -1.5516
    2SAPS  C212  193   5.435   6.869   9.231  0.3572 -0.2014 -0.4869
    2SAPS  H12R  194   5.461   6.775   9.180 -2.5062 -3.0926  2.8415
    2SAPS  C213  195   5.383   6.987   9.142 -0.2854 -0.0585  0.0624
    2SAPS  H13R  196   5.464   7.033   9.083 -1.0312 -0.0375 -0.9747
    2SAPS  H13S  197   5.340   7.064   9.209 -1.1077 -0.5281  0.0915
    2SAPS  C214  198   5.271   6.945   9.047 -0.2585  0.3666  0.5860
    2SAPS  H14R  199   5.203   6.866   9.084  0.1877 -1.4528 -2.1709
    2SAPS  C215  200   5.242   6.990   8.925  0.6658  0.7520  0.4550
    2SAPS  H15R  201   5.154   6.950   8.874 -0.6468  3.3984  0.4777
    2SAPS  C216  202   5.310   7.095   8.838  0.0166 -0.2471 -0.7537
    2SAPS  H16R  203   5.394   7.150   8.885 -0.7318  0.7100 -0.4951
    2SAPS  H16S  204   5.234   7.175   8.827 -0.9491 -0.6954  1.7812
    2SAPS  C217  205   5.358   7.047   8.705  0.0814 -0.0485 -0.5441
    2SAPS  H17R  206   5.381   7.138   8.645  0.6823 -0.6352 -1.2341
    2SAPS  H17S  207   5.288   6.978   8.652  0.2778 -0.9673  0.3574
    2SAPS  C218  208   5.491   6.974   8.719 -0.4082 -0.1998 -0.2646
    2SAPS  H18R  209   5.492   6.908   8.808  0.9125 -0.3495 -0.3679
    2SAPS  H18S  210   5.572   7.045   8.745  0.3862 -1.3975  0.6405
    2SAPS  C219  211   5.530   6.893   8.595  0.3554  0.7884  0.3353
    2SAPS  H19R  212   5.546   6.961   8.509 -0.2154  1.0323  0.4195
    2SAPS  H19S  213   5.441   6.832   8.568  1.8280 -0.7671 -1.3032
    2SAPS  C220  214   5.644   6.790   8.611 -0.8318 -0.3875 -0.8548
    2SAPS  H20R  215   5.615   6.726   8.697 -0.8901  1.2139  0.3605
    2SAPS  H20S  216   5.743   6.833   8.639  0.1718 -1.6792 -2.2859
    2SAPS  H20T  217   5.652   6.732   8.517  0.7335 -1.3864 -0.1307
    2SAPS   C33  218   5.097   6.748   9.942  0.5151  0.3242  0.4653
    2SAPS   H3X  219   5.183   6.717   9.879 -0.5297 -1.5431 -0.1413
    2SAPS   H3Y  220   5.137   6.837   9.995  1.5223  1.3396 -1.8449
    2SAPS   C34  221   4.972   6.785   9.857 -0.6481  0.1688 -0.7160
    2SAPS   H4X  222   4.998   6.888   9.823 -2.6963  0.9798  0.0046
    2SAPS   H4Y  223   4.886   6.788   9.928  1.2027  1.6813  1.6579
    2SAPS   C35  224   4.946   6.679   9.741 -0.2622 -0.3776 -0.1058
    2SAPS   H5X  225   4.839   6.681   9.714 -0.5054 -1.0619  0.7459
    2SAPS   H5Y  226   4.975   6.577   9.777  1.4234  0.0399 -0.1811
    2SAPS   C36  227   5.028   6.712   9.615  0.4260  0.2239  0.0408
    2SAPS   H6X  228   5.135   6.726   9.643  0.6826 -0.2017 -0.7060
    2SAPS   H6Y  229   4.984   6.806   9.577  0.8552 -0.2008 -1.5533
    2SAPS   C37  230   5.017   6.608   9.505  0.1842  0.0509  0.1890
    2SAPS   H7X  231   4.910   6.593   9.483  0.3687 -0.0826 -0.6536
    2SAPS   H7Y  232   5.051   6.508   9.541 -0.6559 -0.8438 -1.4128
    2SAPS   C38  233   5.097   6.645   9.388 -0.4460 -0.0553 -0.2111
    2SAPS   H8X  234   5.207   6.636   9.402 -0.2145 -2.0256 -2.5342
    2SAPS   H8Y  235   5.062   6.749   9.371 -1.0775 -0.1304  0.5587
    2SAPS   C39  236   5.065   6.556   9.267 -0.5691 -0.0165 -0.4228
    2SAPS   H9X  237   4.971   6.587   9.216 -0.7234  2.7840  1.3615
    2SAPS   H9Y  238   5.051   6.452   9.305 -1.5897  0.2054 -0.1489
    2SAPS  C310  239   5.174   6.552   9.162 -0.1961 -0.2985  0.7341
    2SAPS  H10X  240   5.234   6.461   9.183 -0.5143 -0.7668 -0.3680
    2SAPS  H10Y  241   5.245   6.637   9.177  1.5360 -1.2902 -1.3448
    2SAPS  C311  242   5.123   6.548   9.014 -0.0415  0.3316  0.0315
    2SAPS  H11X  243   5.037   6.615   8.994  0.9074  1.7436  0.5084
    2SAPS  H11Y  244   5.098   6.442   8.993 -1.0249  0.8318 -1.5324
    2SAPS  C312  245   5.238   6.585   8.914 -0.7014  0.7081 -0.7171
    2SAPS  H12X  246   5.341   6.586   8.955 -1.4641 -1.3214  1.4527
    2SAPS  H12Y  247   5.216   6.691   8.890  2.6929  1.0725 -3.0239
    2SAPS  C313  248   5.237   6.506   8.783  0.0019 -0.0379 -0.2674
    2SAPS  H13X  249   5.279   6.572   8.704 -0.5229  0.0687 -0.4593
    2SAPS  H13Y  250   5.131   6.483   8.761 -0.7023  1.8770  0.8965
    2SAPS  C314  251   5.327   6.380   8.794 -0.2880  0.2417 -0.7803
    2SAPS  H14X  252   5.277   6.316   8.869  1.0895 -1.4604 -1.2259
    2SAPS  H14Y  253   5.426   6.412   8.834 -0.8278 -1.3731  2.0630
    2SAPS  C315  254   5.345   6.299   8.664  0.3751 -0.6599  0.2154
    2SAPS  H15X  255   5.388   6.199   8.685  1.9852  0.2262  1.3963
    2SAPS  H15Y  256   5.415   6.355   8.599 -0.0214  1.6195  1.6383
    2SAPS  C316  257   5.221   6.270   8.581  0.6600  0.3525 -0.2462
    2SAPS  H16X  258   5.157   6.358   8.556  0.5810  0.3967  0.0985
    2SAPS  H16Y  259   5.154   6.206   8.642  1.1524  0.9691  0.9839
    2SAPS  C317  260   5.258   6.205   8.452  0.1697  0.0867 -0.0412
    2SAPS  H17X  261   5.330   6.122   8.469  2.5927  2.0578 -0.1307
    2SAPS  H17Y  262   5.311   6.278   8.386  0.2886 -1.0846 -1.2880
    2SAPS  C318  263   5.138   6.158   8.366 -1.0528 -0.3360  0.0605
    2SAPS  H18X  264   5.069   6.244   8.354  0.0660  0.5454 -0.2303
    2SAPS  H18Y  265   5.095   6.067   8.414 -0.9640 -0.2770  0.2560
    2SAPS  H18Z  266   5.184   6.128   8.270  2.9862 -1.2915  2.0528
    3SAPS     N  267   0.875   2.215  10.666 -0.5947  0.4104  0.2158
    3SAPS   HN1  268   0.955   2.280  10.676  0.2983 -0.0293 -2.9998
    3SAPS   HN2  269   0.901   2.121  10.703 -1.7356 -0.2276 -0.5345
    3SAPS   HN3  270   0.877   2.207  10.562  1.4916  2.0649  0.0701
    3SAPS   C12  271   0.737   2.244  10.699 -0.6323 -0.4721 -0.2150
    3SAPS  H12A  272   0.670   2.167  10.663 -1.1123  0.2392 -0.8758
    3SAPS   C13  273   0.706   2.266  10.849 -0.2673 -0.0564 -0.8509
    3SAPS  O13A  274   0.793   2.241  10.938 -0.0212 -0.1168  0.2964
    3SAPS  O13B  275   0.586   2.275  10.892 -0.6421  0.1259  0.2411
    3SAPS   C11  276   0.696   2.387  10.625  0.4532  0.3986 -0.4012
    3SAPS  H11A  277   0.592   2.409  10.657  0.6712 -1.4376  1.8752
    3SAPS  H11B  278   0.702   2.349  10.521 -0.7366 -1.4450  0.1541
    3SAPS     P  279   0.774   2.630  10.586  0.1449  0.2296  0.8435
    3SAPS   O13  280   0.669   2.707  10.654 -0.1941 -0.4122 -0.3119
    3SAPS   O14  281   0.911   2.691  10.577 -0.4092  0.2731 -0.1133
    3SAPS   O12  282   0.797   2.486  10.658  0.5047 -0.0373 -0.0113
    3SAPS   O11  283   0.730   2.583  10.439  0.1690  0.5812 -0.9052
    3SAPS    C1  284   0.824   2.513  10.357  0.7004 -0.5414 -0.2096
    3SAPS    HA  285   0.881   2.431  10.407 -0.1628  0.4227  2.5596
    3SAPS    HB  286   0.771   2.469  10.271 -1.3132  1.2032  0.0740
    3SAPS    C2  287   0.930   2.608  10.286 -0.2520  0.9973 -0.6004
    3SAPS    HS  288   0.973   2.672  10.366 -1.2734  0.7071  0.1943
    3SAPS   O21  289   0.864   2.684  10.186 -0.2810  0.8238  0.3367
    3SAPS   C21  290   0.926   2.793  10.133  0.2855 -0.4160  0.0489
    3SAPS   O22  291   1.023   2.850  10.180 -0.1994 -0.1817 -0.1841
    3SAPS   C22  292   0.832   2.840  10.014  0.8414 -0.2017 -0.3798
    3SAPS   H2R  293   0.760   2.918  10.047 -1.2634 -1.6173 -1.4234
    3SAPS   H2S  294   0.911   2.889   9.954  0.8807  0.2833  0.0600
    3SAPS    C3  295   1.052   2.521  10.243 -0.4656  0.4387  0.4633
    3SAPS    HX  296   1.092   2.480  10.339 -0.6261 -1.5960 -0.2784
    3SAPS    HY  297   1.121   2.598  10.203 -0.8073  0.1232 -0.7468
    3SAPS   O31  298   1.021   2.415  10.151  0.2517  0.0121 -0.1587
    3SAPS   C31  299   1.027   2.436  10.022  0.0541  0.2393  0.1612
    3SAPS   O32  300   1.061   2.537   9.962 -0.1356 -0.5092 -0.2273
    3SAPS   C32  301   0.992   2.306   9.953 -0.3856  0.4705 -0.4972
    3SAPS   H2X  302   0.882   2.312   9.937 -0.3835  1.5034 -0.2119
    3SAPS   H2Y  303   1.016   2.225  10.024 -1.8017  0.3981 -0.0707
    3SAPS   C23  304   0.766   2.734   9.921 -0.0574  0.0677 -0.0073
    3SAPS   H3R  305   0.683   2.684   9.976  0.3753  2.3125  2.9099
    3SAPS   H3S  306   0.838   2.652   9.899  1.1873  0.8454  1.0678
    3SAPS   C24  307   0.725   2.796   9.790  0.4571 -0.2529 -0.1799
    3SAPS   H4R  308   0.817   2.836   9.743  0.9606 -1.3624 -0.1744
    3SAPS   H4S  309   0.658   2.883   9.810 -1.5996 -1.7368 -0.2836
    3SAPS   C25  310   0.659   2.693   9.700 -0.2323  1.2330 -0.5316
    3SAPS   H5R  311   0.588   2.618   9.737  2.6232 -2.4670 -1.9828
    3SAPS   C26  312   0.701   2.657   9.577  0.5882  0.4371 -0.1587
    3SAPS   H6R  313   0.647   2.574   9.530  0.4678  0.8965 -0.8548
    3SAPS   C27  314   0.808   2.710   9.487 -0.0741 -0.0332 -1.0100
    3SAPS   H7R  315   0.906   2.672   9.522  0.3219  0.3869 -1.6382
    3SAPS   H7S  316   0.814   2.820   9.477  0.2873 -0.0396 -0.8649
    3SAPS   C28  317   0.784   2.665   9.339  0.6983  0.3164 -0.8084
    3SAPS   H8R  318   0.831   2.573   9.301 -1.4071 -0.9440 -0.5306
    3SAPS   C29  319   0.702   2.728   9.252  0.5217  0.3976 -0.0019
    3SAPS   H9R  320   0.691   2.696   9.147  0.2543  0.0900  0.1192
    3SAPS  C210  321   0.616   2.854   9.284  0.6730  0.2402  0.5485
    3SAPS  H10R  322   0.685   2.941   9.284  1.2893 -0.0496 -3.4527
    3SAPS  H10S  323   0.562   2.847   9.381  2.0336  2.1172  1.5053
    3SAPS  C211  324   0.519   2.900   9.178 -0.4459  0.2823 -0.3766
    3SAPS  H11R  325   0.553   2.989   9.124  1.6851  0.5225  1.2446
    3SAPS  C212  326   0.407   2.840   9.143  0.5784 -0.6545  0.0251
    3SAPS  H12R  327   0.349   2.888   9.064  0.6240 -0.7309 -0.0550
    3SAPS  C213  328   0.349   2.719   9.200 -0.6275 -0.0685  0.1283
    3SAPS  H13R  329   0.387   2.702   9.303 -2.2520 -0.1816  0.7360
    3SAPS  H13S  330   0.386   2.626   9.151  1.1581  0.9605 -0.5616
    3SAPS  C214  331   0.201   2.725   9.207  0.8317  0.5035  0.8335
    3SAPS  H14R  332   0.151   2.737   9.304 -2.6549  1.0093 -0.8795
    3SAPS  C215  333   0.120   2.709   9.098  0.1327  0.2929 -0.1518
    3SAPS  H15R  334   0.012   2.723   9.105  0.2263  1.0755 -0.1586
    3SAPS  C216  335   0.160   2.681   8.952  0.1064  0.2439 -0.2787
    3SAPS  H16R  336   0.270   2.677   8.940  0.4858  1.5378  2.0783
    3SAPS  H16S  337   0.108   2.760   8.895  0.2033  0.7533  0.3274
    3SAPS  C217  338   0.095   2.552   8.916 -0.2256 -0.2864 -0.9545
    3SAPS  H17R  339   0.082   2.536   8.807  0.3273 -0.2597 -1.0299
    3SAPS  H17S  340  -0.012   2.549   8.946  0.0573 -0.2067  0.1218
    3SAPS  C218  341   0.156   2.426   8.986 -0.3185 -0.5096 -0.1148
    3SAPS  H18R  342   0.148   2.439   9.096  1.7953 -0.3206  0.0660
    3SAPS  H18S  343   0.265   2.426   8.961 -0.6198  1.4639 -1.7185
    3SAPS  C219  344   0.076   2.303   8.950  0.1218 -0.7826 -0.1474
    3SAPS  H19R  345   0.072   2.282   8.841 -1.7622 -1.5378  0.0324
    3SAPS  H19S  346  -0.033   2.319   8.962  0.4262  2.4880 -0.5897
    3SAPS  C220  347   0.120   2.177   9.028 -0.0325  0.4910  0.1734
    3SAPS  H20R  348   0.046   2.094   9.018 -1.4455  1.8703 -1.6139
    3SAPS  H20S  349   0.126   2.198   9.136  3.5815  0.0933  0.1571
    3SAPS  H20T  350   0.216   2.140   8.987 -0.2764  2.1148 -2.0905
    3SAPS   C33  351   1.069   2.277   9.826 -0.3330 -0.0842  0.9993
    3SAPS   H3X  352   1.047   2.169   9.812  0.8955 -0.1376 -0.7578
    3SAPS   H3Y  353   1.175   2.293   9.854 -0.6279  0.8045  1.6756
    3SAPS   C34  354   1.016   2.362   9.706  0.1479  0.8541 -0.4782
    3SAPS   H4X  355   1.062   2.463   9.709  0.2229  0.8005  0.6167
    3SAPS   H4Y  356   0.907   2.383   9.714  0.2302  1.0901  0.0860
    3SAPS   C35  357   1.036   2.292   9.574 -0.0658  0.0343 -0.1932
    3SAPS   H5X  358   0.949   2.223   9.575 -0.6036  0.7090  0.1958
    3SAPS   H5Y  359   1.132   2.236   9.578 -0.3289 -0.7707 -2.9954
    3SAPS   C36  360   1.035   2.383   9.448 -0.3779 -0.1250 -0.7865
    3SAPS   H6X  361   1.114   2.458   9.472  0.5215 -1.0223 -0.8908
    3SAPS   H6Y  362   0.930   2.419   9.442 -0.4190 -0.2691 -0.9206
    3SAPS   C37  363   1.066   2.297   9.328 -0.1632  0.6915 -0.4748
    3SAPS   H7X  364   1.013   2.200   9.347  0.2523  0.6372  0.4786
    3SAPS   H7Y  365   1.173   2.270   9.325 -0.4136 -0.6250  0.8682
    3SAPS   C38  366   1.031   2.352   9.188 -0.4015  0.0173 -0.2690
    3SAPS   H8X  367   0.920   2.350   9.181 -0.7300 -2.3276  3.4909
    3SAPS   H8Y  368   1.076   2.276   9.121 -1.1901 -0.5601 -0.1527
    3SAPS   C39  369   1.076   2.498   9.166  0.1031  0.4353 -0.1826
    3SAPS   H9X  370   1.185   2.489   9.184 -0.3635 -1.2337  2.4215
    3SAPS   H9Y  371   1.029   2.556   9.249  1.6995  1.1901  0.2262
    3SAPS  C310  372   1.046   2.539   9.029  0.1339  0.5660 -1.0578
    3SAPS  H10X  373   1.065   2.454   8.960  0.6574  0.0377 -0.2720
    3SAPS  H10Y  374   1.116   2.619   8.996  0.4023 -0.0893 -2.1449
    3SAPS  C311  375   0.905   2.595   9.008 -0.3931  0.3369 -0.2172
    3SAPS  H11X  376   0.900   2.686   9.073 -0.3327  1.7996 -2.1811
    3SAPS  H11Y  377   0.833   2.519   9.047  1.6243 -1.0190  1.0728
    3SAPS  C312  378   0.888   2.642   8.867 -0.3768 -0.1189  0.3721
    3SAPS  H12X  379   0.922   2.574   8.786 -1.6073  0.6559 -0.8198
    3SAPS  H12Y  380   0.953   2.731   8.854 -1.9366  0.7592 -2.1355
    3SAPS  C313  381   0.747   2.693   8.838 -0.5589 -0.0842 -0.5008
    3SAPS  H13X  382   0.732   2.751   8.931 -2.3607 -2.4285  0.7843
    3SAPS  H13Y  383   0.662   2.621   8.842 -1.4460  0.9561  3.0226
    3SAPS  C314  384   0.734   2.777   8.716  0.1077 -0.0584  0.5235
    3SAPS  H14X  385   0.721   2.714   8.626  4.2541 -0.3405 -0.0757
    3SAPS  H14Y  386   0.831   2.827   8.695 -1.1540  1.1546 -3.1772
    3SAPS  C315  387   0.627   2.882   8.740 -0.2347 -0.9215  0.5505
    3SAPS  H15X  388   0.636   2.956   8.657 -3.1778  0.6753  1.5084
    3SAPS  H15Y  389   0.649   2.942   8.831 -0.0900 -0.0752 -0.0352
    3SAPS  C316  390   0.490   2.813   8.750 -1.1430  0.3066  0.4407
    3SAPS  H16X  391   0.474   2.756   8.843 -2.1861  1.1522  0.7996
    3SAPS  H16Y  392   0.493   2.743   8.663  1.2061 -1.1906  1.6370
    3SAPS  C317  393   0.379   2.925   8.727  0.0283  0.6140  0.2554
    3SAPS  H17X  394   0.380   2.999   8.810  0.8911  1.2009 -0.2576
    3SAPS  H17Y  395   0.283   2.871   8.738 -0.9047  1.8606 -1.3408
    3SAPS  C318  396   0.384   2.992   8.591 -0.0157 -0.1718 -0.5566
    3SAPS  H18X  397   0.302   3.067   8.582  0.6401  0.5343 -0.7137
    3SAPS  H18Y  398   0.383   2.921   8.505  1.5532 -0.4861 -0.3360
    3SAPS  H18Z  399   0.476   3.052   8.579  0.8364 -1.0462  1.2367
    4SAPS     N  400   4.520   1.903  10.582 -0.2004 -0.2435  0.0874
    4SAPS   HN1  401   4.440   1.966  10.565  0.8440  0.7829 -1.2333
    4SAPS   HN2  402   4.593   1.917  10.509  0.5766  2.3413  1.2549
    4SAPS   HN3  403   4.494   1.806  10.608 -0.1025 -0.4282 -0.4885
    4SAPS   C12  404   4.570   1.966  10.713  0.4184 -0.3862  0.0323
    4SAPS  H12A  405   4.489   1.947  10.782 -1.1881  2.1122 -1.0263
    4SAPS   C13  406   4.704   1.911  10.770 -0.3082  0.3401 -0.0153
    4SAPS  O13A  407   4.760   1.812  10.715  0.3484 -0.2877  0.5033
    4SAPS  O13B  408   4.735   1.947  10.884  0.0504 -0.0899 -0.4977
    4SAPS   C11  409   4.579   2.117  10.696 -1.1496 -0.3316 -0.7933
    4SAPS  H11A  410   4.666   2.130  10.628 -0.6125 -0.1994 -0.0813
    4SAPS  H11B  411   4.615   2.158  10.792  0.3917 -2.2560 -0.4811
    4SAPS     P  412   4.447   2.317  10.621 -0.1902 -0.6060  0.1206
    4SAPS   O13  413   4.309   2.360  10.601  0.4802  0.7117  0.4036
    4SAPS   O14  414   4.519   2.399  10.723  0.3794 -0.1389  0.7033
    4SAPS   O12  415   4.456   2.165  10.648  0.1422  0.5586  0.0278
    4SAPS   O11  416   4.524   2.320  10.480  0.3347  0.1384 -0.4763
    4SAPS    C1  417   4.647   2.378  10.460  0.0415 -0.2220 -0.7510
    4SAPS    HA  418   4.723   2.342  10.533 -1.2876 -0.3576  0.6178
    4SAPS    HB  419   4.690   2.344  10.364  3.7304 -0.3261  0.7824
    4SAPS    C2  420   4.645   2.531  10.441 -0.1719 -0.4129  0.0482
    4SAPS    HS  421   4.605   2.569  10.538  1.5253 -0.2454  0.7056
    4SAPS   O21  422   4.558   2.554  10.331  0.0369 -0.4029 -0.1233
    4SAPS   C21  423   4.490   2.664  10.332  0.0329 -0.4325 -0.1991
    4SAPS   O22  424   4.486   2.742  10.426 -0.0472 -0.0098 -0.3434
    4SAPS   C22  425   4.397   2.674  10.214  0.0964  0.4190  0.2294
    4SAPS   H2R  426   4.419   2.596  10.138 -1.8013 -0.7160  0.7865
    4SAPS   H2S  427   4.290   2.663  10.243 -0.4028  0.1318 -1.6138
    4SAPS    C3  428   4.779   2.599  10.423 -0.6221 -0.3881 -0.4728
    4SAPS    HX  429   4.846   2.592  10.511  0.2448 -1.3146 -1.1849
    4SAPS    HY  430   4.773   2.710  10.417 -0.3994 -0.4025 -1.0329
    4SAPS   O31  431   4.850   2.544  10.309  0.8103 -0.1425 -1.0897
    4SAPS   C31  432   4.966   2.607  10.277  0.0985  0.0589 -0.6321
    4SAPS   O32  433   5.020   2.697  10.341  0.1894 -0.0900 -0.2431
    4SAPS   C32  434   5.030   2.527  10.163 -0.3723 -0.2259  0.0251
    4SAPS   H2X  435   4.952   2.457  10.125  0.5866 -0.9623 -0.6230
    4SAPS   H2Y  436   5.115   2.468  10.204 -1.4785 -1.8836  0.0447
    4SAPS   C23  437   4.408   2.817  10.158 -0.0847 -0.3514 -0.3206
    4SAPS   H3R  438   4.500   2.819  10.095  0.5363 -3.2036  0.3322
    4SAPS   H3S  439   4.408   2.890  10.242  2.2557 -2.0374  1.2742
    4SAPS   C24  440   4.282   2.855  10.088 -0.0317 -1.0506  0.7100
    4SAPS   H4R  441   4.193   2.838  10.152 -0.0445  1.0600  1.3502
    4SAPS   H4S  442   4.260   2.789  10.002 -2.0999  1.3359 -0.7581
    4SAPS   C25  443   4.278   3.001  10.047  0.1819 -0.1728  0.1635
    4SAPS   H5R  444   4.247   3.071  10.126  0.6055 -0.5221  0.6434
    4SAPS   C26  445   4.290   3.046   9.920 -0.4335  0.2042  0.5913
    4SAPS   H6R  446   4.282   3.153   9.896 -0.9925  0.0791  0.2009
    4SAPS   C27  447   4.325   2.955   9.796  0.1009 -0.9523 -0.5098
    4SAPS   H7R  448   4.277   3.010   9.712 -1.8130  0.4363  1.3804
    4SAPS   H7S  449   4.264   2.863   9.809  0.3196 -0.8959  1.1008
    4SAPS   C28  450   4.477   2.929   9.773 -0.0862  0.0004 -0.2688
    4SAPS   H8R  451   4.524   2.910   9.870 -1.4837 -3.8139 -0.1671
    4SAPS   C29  452   4.551   2.941   9.662 -0.1361  0.4760  0.0772
    4SAPS   H9R  453   4.658   2.916   9.667  0.1916  1.1250 -2.5429
    4SAPS  C210  454   4.492   2.983   9.525  0.5082  0.3050 -0.4480
    4SAPS  H10R  455   4.405   2.919   9.503 -0.3091  0.5558  1.7428
    4SAPS  H10S  456   4.569   2.957   9.450 -0.6164 -1.1433 -1.1361
    4SAPS  C211  457   4.455   3.132   9.521 -0.2807  0.1709  1.4568
    4SAPS  H11R  458   4.447   3.179   9.620 -0.2687 -0.1426  1.6096
    4SAPS  C212  459   4.423   3.200   9.407  0.3444  0.0198 -0.7264
    4SAPS  H12R  460   4.409   3.308   9.418 -1.8497 -0.3140  0.2294
    4SAPS  C213  461   4.420   3.144   9.266  0.5372 -0.8405  0.2830
    4SAPS  H13R  462   4.313   3.120   9.247  0.5899 -1.3687  0.6180
    4SAPS  H13S  463   4.486   3.056   9.247  1.5224 -0.1781  0.5884
    4SAPS  C214  464   4.436   3.249   9.154 -0.2270 -0.1637  0.4566
    4SAPS  H14R  465   4.424   3.355   9.178 -1.8050  0.1267 -1.4235
    4SAPS  C215  466   4.454   3.220   9.026  0.3149  0.1678  0.0479
    4SAPS  H15R  467   4.474   3.294   8.947 -2.7843  1.7788  0.6310
    4SAPS  C216  468   4.466   3.080   8.966  0.8571  0.3836  0.2232
    4SAPS  H16R  469   4.390   3.079   8.885  1.3673  0.8955 -0.2733
    4SAPS  H16S  470   4.454   2.996   9.038 -0.3599  0.2226 -0.1414
    4SAPS  C217  471   4.607   3.062   8.907  0.6053  0.0569  0.4462
    4SAPS  H17R  472   4.622   2.952   8.902  0.7826  0.0553  1.0074
    4SAPS  H17S  473   4.687   3.094   8.976 -0.2129  1.3166  0.8347
    4SAPS  C218  474   4.634   3.137   8.781 -1.0331 -0.6356  0.2153
    4SAPS  H18R  475   4.731   3.093   8.750 -0.2200  0.9890  0.3045
    4SAPS  H18S  476   4.654   3.245   8.802  0.8360 -0.4317 -2.2170
    4SAPS  C219  477   4.531   3.131   8.669  0.2526  0.1354  0.2325
    4SAPS  H19R  478   4.433   3.167   8.706 -1.6038 -4.1417  0.1034
    4SAPS  H19S  479   4.510   3.023   8.648  0.2685  0.4499 -1.4965
    4SAPS  C220  480   4.556   3.209   8.538  1.0056 -0.0242 -0.1282
    4SAPS  H20R  481   4.458   3.215   8.487  1.0244 -0.3897 -0.2098
    4SAPS  H20S  482   4.626   3.159   8.468 -0.3186 -0.2584 -1.3284
    4SAPS  H20T  483   4.590   3.312   8.561 -0.2384  0.6028 -1.0137
    4SAPS   C33  484   5.074   2.615  10.048  0.2527  0.2624  0.2562
    4SAPS   H3X  485   5.120   2.710  10.085  2.2182 -0.5930  0.1018
    4SAPS   H3Y  486   4.990   2.651   9.985  0.2822  0.2727  0.2223
    4SAPS   C34  487   5.186   2.558   9.957  0.4549 -0.5576  0.1312
    4SAPS   H4X  488   5.139   2.470   9.908  1.0879 -0.1088 -1.3513
    4SAPS   H4Y  489   5.269   2.524  10.022  2.6818  0.8143 -1.8090
    4SAPS   C35  490   5.227   2.662   9.852  0.4774  1.0775  0.4359
    4SAPS   H5X  491   5.322   2.619   9.811 -0.4672  1.0491 -1.9043
    4SAPS   H5Y  492   5.253   2.762   9.893  1.4330  0.0774  2.3793
    4SAPS   C36  493   5.125   2.671   9.737  0.1861  0.0316 -0.1836
    4SAPS   H6X  494   5.027   2.703   9.777 -0.6792 -1.6707 -0.8483
    4SAPS   H6Y  495   5.096   2.566   9.719 -1.1358  0.3000  0.3028
    4SAPS   C37  496   5.174   2.760   9.626 -0.2819  0.0847  0.9582
    4SAPS   H7X  497   5.202   2.862   9.656  1.1949  0.5586 -1.7292
    4SAPS   H7Y  498   5.092   2.774   9.551  1.0388 -1.8467 -0.9941
    4SAPS   C38  499   5.292   2.703   9.548  0.2445 -0.4034 -0.5510
    4SAPS   H8X  500   5.267   2.603   9.506 -3.1002  0.2417 -0.3654
    4SAPS   H8Y  501   5.383   2.701   9.613 -0.8979 -1.1704  1.0919
    4SAPS   C39  502   5.330   2.772   9.417 -0.1985  0.3647  0.3611
    4SAPS   H9X  503   5.380   2.867   9.447  1.9566 -0.7218  0.4519
    4SAPS   H9Y  504   5.232   2.795   9.372 -0.2677 -0.5218  0.0503
    4SAPS  C310  505   5.420   2.691   9.324  0.6544  0.1866  0.1426
    4SAPS  H10X  506   5.350   2.625   9.269  0.0159  3.4646 -3.4422
    4SAPS  H10Y  507   5.486   2.643   9.399 -0.6507 -1.1437  0.4910
    4SAPS  C311  508   5.477   2.780   9.218 -0.4276  0.3225 -0.0319
    4SAPS  H11X  509   5.418   2.871   9.192 -0.9584 -0.1787 -0.6315
    4SAPS  H11Y  510   5.489   2.733   9.118  2.4027  2.7508 -0.9857
    4SAPS  C312  511   5.627   2.811   9.261  0.3062 -0.2146  0.5044
    4SAPS  H12X  512   5.637   2.855   9.363 -1.3821  1.2024  0.1190
    4SAPS  H12Y  513   5.672   2.883   9.190  0.4550  2.2606  2.9498
    4SAPS  C313  514   5.715   2.682   9.260  0.5377  0.0398  0.4088
    4SAPS  H13X  515   5.691   2.620   9.172  2.2869 -2.6027  1.6370
    4SAPS  H13Y  516   5.690   2.612   9.343 -0.3658  0.6495  0.6684
    4SAPS  C314  517   5.864   2.717   9.265  0.1679  0.0035 -0.0203
    4SAPS  H14X  518   5.927   2.641   9.316 -0.3839  0.5624  1.5542
    4SAPS  H14Y  519   5.862   2.808   9.328 -3.1856 -0.5190  0.8231
    4SAPS  C315  520   5.926   2.735   9.123 -0.6836 -0.2852  0.1222
    4SAPS  H15X  521   5.851   2.763   9.046 -0.8936 -0.5705  0.2220
    4SAPS  H15Y  522   5.979   2.641   9.096 -0.3487  0.0517 -0.4203
    4SAPS  C316  523   6.020   2.847   9.127 -0.6040 -0.3971  0.5754
    4SAPS  H16X  524   5.964   2.941   9.143 -0.6608 -0.8347  3.5938
    4SAPS  H16Y  525   6.072   2.855   9.029 -0.6193 -2.9795  0.2675
    4SAPS  C317  526   6.135   2.836   9.232 -0.2592  0.4030 -0.1242
    4SAPS  H17X  527   6.175   2.732   9.236 -2.1872 -0.3622  1.0832
    4SAPS  H17Y  528   6.075   2.848   9.325  0.6035 -3.7550  1.1905
    4SAPS  C318  529   6.255   2.934   9.205  0.4098  0.4493  0.2797
    4SAPS  H18X  530   6.227   3.041   9.215  0.4088  0.4014  0.8554
    4SAPS  H18Y  531   6.296   2.924   9.103 -1.4384  3.4372 -0.8864
    4SAPS  H18Z  532   6.341   2.906   9.270  1.6502  1.3562 -0.9075
    5SAPS     N  533   2.950   2.866  11.039 -0.0615  0.1372  0.6426
    5SAPS   HN1  534   2.876   2.880  11.110  1.1638 -0.5550  2.1070
    5SAPS   HN2  535   3.035   2.917  11.072 -1.8752  2.6680  1.6614
    5SAPS   HN3  536   2.922   2.896  10.943 -0.5513 -0.9858  0.4140
    5SAPS   C12  537   2.985   2.724  11.027 -1.1582 -0.5976 -0.1778
    5SAPS  H12A  538   3.046   2.705  10.939  0.9361 -1.7154  1.4014
    5SAPS   C13  539   3.080   2.676  11.148  0.4328  0.3686 -0.8631
    5SAPS  O13A  540   3.117   2.767  11.231  0.2057  0.3307  0.3125
    5SAPS  O13B  541   3.127   2.560  11.144 -0.4660  0.1955 -0.1504
    5SAPS   C11  542   2.855   2.631  11.020  0.0844 -0.3191  0.8657
    5SAPS  H11A  543   2.804   2.619  11.118 -2.2857 -1.8169 -0.4405
    5SAPS  H11B  544   2.900   2.532  10.994  2.1634  0.3465  1.7004
    5SAPS     P  545   2.670   2.552  10.845 -0.0118  0.1395  0.2449
    5SAPS   O13  546   2.758   2.462  10.765  0.3570  0.1407 -0.0442
    5SAPS   O14  547   2.576   2.483  10.940 -0.1581  0.1481  0.2335
    5SAPS   O12  548   2.752   2.670  10.917 -0.4046 -0.6014 -0.3470
    5SAPS   O11  549   2.582   2.627  10.732 -0.0606 -0.2815  0.1177
    5SAPS    C1  550   2.493   2.730  10.768 -0.9595 -0.1407 -0.7480
    5SAPS    HA  551   2.396   2.690  10.804 -0.7424  1.2491  1.5483
    5SAPS    HB  552   2.521   2.806  10.844 -2.3580 -0.2661 -0.0885
    5SAPS    C2  553   2.451   2.815  10.643  0.1570  0.5803  0.1903
    5SAPS    HS  554   2.348   2.850  10.667 -1.0822 -3.4525  1.5014
    5SAPS   O21  555   2.453   2.743  10.524  0.5031  0.0845 -0.1931
    5SAPS   C21  556   2.352   2.655  10.521  0.5781  0.5197  0.0936
    5SAPS   O22  557   2.251   2.658  10.590 -0.5108 -0.3399 -0.0201
    5SAPS   C22  558   2.369   2.551  10.412 -0.4079 -0.1664  0.1453
    5SAPS   H2R  559   2.467   2.501  10.421 -0.2737 -0.2708 -1.5435
    5SAPS   H2S  560   2.300   2.466  10.430 -0.1364 -0.6251 -0.9493
    5SAPS    C3  561   2.545   2.947  10.637 -0.1163  0.7312 -0.4293
    5SAPS    HX  562   2.651   2.918  10.622 -0.7524 -2.1302 -0.1523
    5SAPS    HY  563   2.525   2.989  10.738 -3.2363 -0.3064 -0.5016
    5SAPS   O31  564   2.499   3.019  10.524 -0.2616  0.0920  0.0825
    5SAPS   C31  565   2.521   3.148  10.531  0.1344 -0.3626  0.8952
    5SAPS   O32  566   2.583   3.208  10.619 -0.5605 -0.3315 -0.3814
    5SAPS   C32  567   2.466   3.208  10.407 -0.4919  0.4755 -0.3640
    5SAPS   H2X  568   2.355   3.204  10.412 -0.4382 -1.5744 -0.2479
    5SAPS   H2Y  569   2.500   3.148  10.320  0.0799  0.5468 -0.1965
    5SAPS   C23  570   2.372   2.600  10.270  0.6939  0.5557 -0.1357
    5SAPS   H3R  571   2.423   2.698  10.256 -0.4262  1.2483  0.4980
    5SAPS   H3S  572   2.269   2.621  10.233  0.5638  1.5236  0.7300
    5SAPS   C24  573   2.434   2.495  10.175 -0.0358  0.5108  0.8803
    5SAPS   H4R  574   2.530   2.452  10.211 -0.1811  1.4997  2.5343
    5SAPS   H4S  575   2.452   2.546  10.079 -0.2424  1.0125  1.1063
    5SAPS   C25  576   2.348   2.370  10.158 -1.0525  0.0630 -0.1090
    5SAPS   H5R  577   2.301   2.327  10.247  1.7584  0.1400  1.5391
    5SAPS   C26  578   2.320   2.305  10.047 -0.4151  1.6609  0.2164
    5SAPS   H6R  579   2.260   2.212  10.053 -0.9010  1.8610 -1.1959
    5SAPS   C27  580   2.371   2.343   9.911 -0.0426 -0.5818  0.4062
    5SAPS   H7R  581   2.394   2.452   9.906  0.4309 -0.7340 -1.4837
    5SAPS   H7S  582   2.285   2.348   9.841  0.8448 -0.0733 -0.6932
    5SAPS   C28  583   2.476   2.252   9.855  0.3202 -0.1778  0.3657
    5SAPS   H8R  584   2.554   2.229   9.929  0.6835  2.2201  0.8216
    5SAPS   C29  585   2.498   2.205   9.732 -0.2495  0.6251 -0.2570
    5SAPS   H9R  586   2.583   2.138   9.714  1.8842  3.2300 -0.3508
    5SAPS  C210  587   2.422   2.257   9.609 -0.3033  0.3369 -0.1119
    5SAPS  H10R  588   2.383   2.355   9.643  0.6179  0.0909  1.8248
    5SAPS  H10S  589   2.337   2.189   9.587 -0.6754  1.3832 -2.0859
    5SAPS  C211  590   2.497   2.271   9.480 -0.0370 -0.5193  0.5132
    5SAPS  H11R  591   2.557   2.182   9.458  0.3502 -0.0269 -0.4898
    5SAPS  C212  592   2.492   2.375   9.393  0.8797  0.1706 -0.1734
    5SAPS  H12R  593   2.551   2.359   9.301 -0.5079 -2.2028 -0.7411
    5SAPS  C213  594   2.420   2.506   9.407 -0.0991 -0.1498  0.4789
    5SAPS  H13R  595   2.485   2.584   9.452  0.6388 -0.1792 -0.4862
    5SAPS  H13S  596   2.328   2.492   9.467  0.5221  0.8818  1.7112
    5SAPS  C214  597   2.384   2.556   9.262  0.6239  0.4333  0.4814
    5SAPS  H14R  598   2.469   2.582   9.196 -0.1210 -1.4872 -1.3509
    5SAPS  C215  599   2.261   2.551   9.213  0.6722  0.0501 -0.6398
    5SAPS  H15R  600   2.248   2.587   9.110 -2.1274 -2.8375 -1.4355
    5SAPS  C216  601   2.126   2.512   9.269  0.4947  0.4312 -0.5738
    5SAPS  H16R  602   2.135   2.478   9.375  0.8685 -1.3785 -1.1345
    5SAPS  H16S  603   2.075   2.439   9.203  0.3067  0.5149 -0.5189
    5SAPS  C217  604   2.044   2.636   9.287 -0.2674  0.9839 -0.5416
    5SAPS  H17R  605   2.110   2.707   9.342  1.7778  0.4430 -2.1907
    5SAPS  H17S  606   1.956   2.607   9.348  0.1242  2.4160  0.7880
    5SAPS  C218  607   1.998   2.701   9.159 -0.2685 -0.2199  0.2834
    5SAPS  H18R  608   2.088   2.721   9.098  0.4516  1.2057  1.7438
    5SAPS  H18S  609   1.941   2.636   9.089  0.7087  0.3674 -1.0931
    5SAPS  C219  610   1.929   2.836   9.174 -0.5212  0.0355 -0.4683
    5SAPS  H19R  611   2.017   2.898   9.202  0.7186 -1.9134  0.1629
    5SAPS  H19S  612   1.853   2.829   9.255 -2.1237  2.3461 -1.6648
    5SAPS  C220  613   1.855   2.907   9.056 -0.7124 -0.1526 -0.5803
    5SAPS  H20R  614   1.925   2.966   8.993  2.4190 -1.2654  1.5753
    5SAPS  H20S  615   1.777   2.977   9.093 -0.7541  1.2091 -3.0264
    5SAPS  H20T  616   1.801   2.824   9.006 -1.9888  0.3447 -0.0524
    5SAPS   C33  617   2.497   3.357  10.384  0.0661  0.3743 -0.5958
    5SAPS   H3X  618   2.603   3.359  10.352 -0.0314  0.7643 -0.9043
    5SAPS   H3Y  619   2.489   3.415  10.479  0.8636 -0.1434 -0.2075
    5SAPS   C34  620   2.418   3.415  10.264 -0.4653  0.5220 -0.5270
    5SAPS   H4X  621   2.355   3.505  10.283 -0.3675  0.4836 -0.0186
    5SAPS   H4Y  622   2.366   3.326  10.223 -0.1483  0.2336 -0.3039
    5SAPS   C35  623   2.510   3.452  10.141 -0.3618 -0.0513 -0.0335
    5SAPS   H5X  624   2.589   3.374  10.141  0.2321  0.5001  1.5561
    5SAPS   H5Y  625   2.560   3.549  10.163  2.3273 -1.5744  0.9983
    5SAPS   C36  626   2.435   3.459  10.009 -0.8399  0.6861  0.2031
    5SAPS   H6X  627   2.349   3.530  10.015 -0.6574  1.3348 -3.2500
    5SAPS   H6Y  628   2.397   3.362   9.971  0.9593  0.4701 -1.1824
    5SAPS   C37  629   2.527   3.509   9.897 -0.2947  0.0260 -0.0466
    5SAPS   H7X  630   2.625   3.459   9.913 -1.6036 -3.4294 -1.8555
    5SAPS   H7Y  631   2.529   3.618   9.918 -0.0884 -0.2350  1.4400
    5SAPS   C38  632   2.468   3.467   9.752  0.5175  0.3939 -0.3653
    5SAPS   H8X  633   2.362   3.499   9.766  0.7259  0.3281  1.6383
    5SAPS   H8Y  634   2.476   3.357   9.748 -0.2915  0.3420 -0.8932
    5SAPS   C39  635   2.518   3.537   9.632 -0.9398 -0.3264 -0.0444
    5SAPS   H9X  636   2.625   3.506   9.628  0.2483  2.9830  2.1257
    5SAPS   H9Y  637   2.518   3.645   9.656 -0.4268 -0.1908 -0.6063
    5SAPS  C310  638   2.433   3.502   9.507  0.4778 -0.2617 -0.6299
    5SAPS  H10X  639   2.327   3.522   9.531  0.7556 -0.4408  0.8450
    5SAPS  H10Y  640   2.452   3.394   9.489  0.1682 -0.2305 -1.1532
    5SAPS  C311  641   2.495   3.572   9.381 -0.3216 -0.3284 -0.4275
    5SAPS  H11X  642   2.600   3.540   9.364 -0.6763 -0.6503 -2.1803
    5SAPS  H11Y  643   2.487   3.683   9.394  0.3779 -0.3674  0.3861
    5SAPS  C312  644   2.414   3.533   9.251 -0.8266 -0.6698 -0.0618
    5SAPS  H12X  645   2.307   3.547   9.281 -0.4345  1.8409  0.4285
    5SAPS  H12Y  646   2.438   3.425   9.248  1.0730 -0.2713 -0.5903
    5SAPS  C313  647   2.466   3.595   9.119 -0.0110  0.2699  0.3633
    5SAPS  H13X  648   2.563   3.549   9.090 -0.5903  1.3007 -3.8682
    5SAPS  H13Y  649   2.484   3.704   9.132 -1.5987  0.5092  0.7576
    5SAPS  C314  650   2.358   3.565   9.015 -0.1249  0.1721  0.0516
    5SAPS  H14X  651   2.259   3.603   9.049 -0.3801 -2.0646  2.0352
    5SAPS  H14Y  652   2.352   3.454   9.013 -1.5737  0.2410 -0.7062
    5SAPS  C315  653   2.380   3.611   8.869 -0.5337  0.5873 -0.5121
    5SAPS  H15X  654   2.461   3.541   8.838 -0.2229 -0.2703  2.0337
    5SAPS  H15Y  655   2.419   3.714   8.861  1.2323 -0.1454 -2.4254
    5SAPS  C316  656   2.253   3.595   8.782 -0.5246  0.1829 -0.2455
    5SAPS  H16X  657   2.259   3.636   8.679 -1.1084 -0.8865 -0.7145
    5SAPS  H16Y  658   2.172   3.654   8.830  0.0354  0.0177  0.9259
    5SAPS  C317  659   2.202   3.453   8.772  0.1259  0.0269 -0.2628
    5SAPS  H17X  660   2.164   3.414   8.868 -1.2742  0.0458 -0.7817
    5SAPS  H17Y  661   2.277   3.379   8.737  0.4236 -0.5734  1.5678
    5SAPS  C318  662   2.091   3.448   8.663 -0.3623  0.5988  0.5066
    5SAPS  H18X  663   2.054   3.345   8.646  2.2571 -0.2844 -0.3511
    5SAPS  H18Y  664   2.139   3.488   8.572 -0.6656 -0.6476 -0.2300
    5SAPS  H18Z  665   1.999   3.505   8.689  0.3035  2.7634 -1.6020
    6SAPS     N  666   4.424   6.731  10.927 -0.1480 -0.3984  0.3328
    6SAPS   HN1  667   4.337   6.738  10.870 -1.3442  1.3413  2.2370
    6SAPS   HN2  668   4.412   6.672  11.012  1.1307  3.3366  3.4084
    6SAPS   HN3  669   4.454   6.827  10.954  4.6966 -1.2875 -0.8284
    6SAPS   C12  670   4.534   6.684  10.832  0.0381  0.5446  0.3910
    6SAPS  H12A  671   4.626   6.683  10.889  0.1526 -0.7985  0.2093
    6SAPS   C13  672   4.526   6.533  10.782  0.0528  0.0026 -0.6760
    6SAPS  O13A  673   4.420   6.468  10.807  0.7902  0.1559  0.5132
    6SAPS  O13B  674   4.627   6.486  10.724 -0.5599  0.2428 -0.2239
    6SAPS   C11  675   4.552   6.776  10.711  0.2666 -0.6856  0.1442
    6SAPS  H11A  676   4.452   6.786  10.664  0.3278 -0.7544 -0.0026
    6SAPS  H11B  677   4.617   6.729  10.633  0.2020  0.2967 -0.5177
    6SAPS     P  678   4.639   7.013  10.643 -0.5959  0.0084 -0.3935
    6SAPS   O13  679   4.511   7.068  10.599  0.2997 -0.6047 -0.7548
    6SAPS   O14  680   4.742   7.113  10.698  0.4021 -0.0149  0.4749
    6SAPS   O12  681   4.602   6.906  10.754  0.2007 -0.1003 -0.2329
    6SAPS   O11  682   4.706   6.929  10.524  0.2097 -0.4402 -0.1830
    6SAPS    C1  683   4.752   7.001  10.410 -0.2267  0.5175  0.0215
    6SAPS    HA  684   4.664   7.066  10.388 -0.8674  0.1560  1.3955
    6SAPS    HB  685   4.824   7.081  10.439 -0.1073 -0.1112  1.5456
    6SAPS    C2  686   4.786   6.906  10.298 -0.3331  0.6469  0.1194
    6SAPS    HS  687   4.884   6.855  10.307 -1.5411 -1.7262  0.9769
    6SAPS   O21  688   4.775   6.973  10.169 -0.4158  0.1121 -0.2140
    6SAPS   C21  689   4.888   7.028  10.137  1.0024  0.6823 -0.7114
    6SAPS   O22  690   4.996   7.020  10.194  0.3911 -0.3446  0.4996
    6SAPS   C22  691   4.862   7.111  10.009 -0.0593  0.5769 -0.2408
    6SAPS   H2R  692   4.873   7.039   9.925  2.0343  0.0632  0.4102
    6SAPS   H2S  693   4.762   7.158  10.012  0.6788  2.2126  1.9680
    6SAPS    C3  694   4.693   6.782  10.286 -0.1964  0.1166 -0.8264
    6SAPS    HX  695   4.595   6.832  10.293  0.9499  2.3467  0.4592
    6SAPS    HY  696   4.705   6.718  10.376 -3.4387  1.0631  0.4137
    6SAPS   O31  697   4.724   6.705  10.171 -0.1587 -0.1338  0.1503
    6SAPS   C31  698   4.634   6.612  10.138  0.1459 -0.0655  0.1336
    6SAPS   O32  699   4.524   6.613  10.190 -0.0672  0.7579  1.0055
    6SAPS   C32  700   4.681   6.520  10.022  0.0730  0.3674  0.1145
    6SAPS   H2X  701   4.791   6.506  10.015  0.0345  0.2639 -0.3169
    6SAPS   H2Y  702   4.655   6.566   9.924 -0.7727  1.2728  0.7500
    6SAPS   C23  703   4.961   7.223  10.002 -0.4094  0.0423 -0.4039
    6SAPS   H3R  704   5.061   7.193  10.040  0.6450  1.0744 -2.2352
    6SAPS   H3S  705   4.937   7.301  10.077  0.5837 -0.3264  0.3224
    6SAPS   C24  706   4.972   7.303   9.876  0.0045  0.3381  0.9060
    6SAPS   H4R  707   5.034   7.389   9.909  0.1045  0.6842 -0.1708
    6SAPS   H4S  708   4.870   7.341   9.856 -0.0893  0.5307  1.7215
    6SAPS   C25  709   5.042   7.230   9.764  0.2691  0.7671  0.4610
    6SAPS   H5R  710   5.147   7.201   9.779  0.2390 -0.5075 -1.3557
    6SAPS   C26  711   4.995   7.220   9.636  0.1512 -0.2308 -0.2173
    6SAPS   H6R  712   5.054   7.161   9.564 -0.4494  0.0353 -0.9403
    6SAPS   C27  713   4.865   7.274   9.580 -0.2576 -0.2099 -0.4603
    6SAPS   H7R  714   4.802   7.322   9.658  1.1605  0.5971  0.2241
    6SAPS   H7S  715   4.788   7.195   9.565  0.2173 -0.8587  0.5002
    6SAPS   C28  716   4.896   7.366   9.460  0.3069  0.0835  0.4485
    6SAPS   H8R  717   4.937   7.466   9.482  1.7458 -0.2977 -0.4237
    6SAPS   C29  718   4.879   7.332   9.332 -0.9840 -0.3085  0.1695
    6SAPS   H9R  719   4.928   7.410   9.272  1.5469 -0.4895  1.8558
    6SAPS  C210  720   4.831   7.213   9.259  0.4796  0.4186  0.2496
    6SAPS  H10R  721   4.723   7.218   9.232  0.5766 -3.2583 -1.3744
    6SAPS  H10S  722   4.837   7.129   9.331  0.5646  1.6531  1.7577
    6SAPS  C211  723   4.923   7.180   9.141 -0.0990 -0.1151  0.0247
    6SAPS  H11R  724   5.001   7.105   9.158 -1.0869 -1.1541  0.1167
    6SAPS  C212  725   4.921   7.239   9.022 -0.4683  0.2693 -0.4376
    6SAPS  H12R  726   5.000   7.221   8.947  0.8798 -0.6489  1.1446
    6SAPS  C213  727   4.813   7.338   8.975 -1.1971  0.4363 -0.4340
    6SAPS  H13R  728   4.764   7.394   9.057  0.0250 -0.5121  0.9845
    6SAPS  H13S  729   4.716   7.294   8.942 -0.6491 -0.1583 -1.2786
    6SAPS  C214  730   4.848   7.447   8.879  0.1374 -0.0118 -0.5423
    6SAPS  H14R  731   4.905   7.524   8.933  0.8445 -1.3662  0.7172
    6SAPS  C215  732   4.842   7.441   8.744 -0.2299  0.3430 -0.8538
    6SAPS  H15R  733   4.867   7.527   8.679 -0.8778  0.8870 -0.3921
    6SAPS  C216  734   4.790   7.323   8.671  0.2025 -0.4230 -0.3550
    6SAPS  H16R  735   4.749   7.244   8.737  0.0056  1.2699  1.6694
    6SAPS  H16S  736   4.865   7.273   8.606 -0.6459 -1.3179 -0.6588
    6SAPS  C217  737   4.692   7.373   8.564 -0.4951 -0.0334  0.7163
    6SAPS  H17R  738   4.652   7.285   8.509  0.5394  1.2025 -2.2266
    6SAPS  H17S  739   4.741   7.430   8.482 -0.2713 -3.1196 -1.4347
    6SAPS  C218  740   4.577   7.455   8.620 -0.6494 -0.3935 -0.0904
    6SAPS  H18R  741   4.620   7.549   8.662  0.4786 -1.1819  0.5667
    6SAPS  H18S  742   4.532   7.404   8.708  0.2860 -1.7556 -0.3661
    6SAPS  C219  743   4.470   7.478   8.514  0.2428 -0.1941  0.1214
    6SAPS  H19R  744   4.427   7.381   8.483  2.1864 -0.5836 -1.6614
    6SAPS  H19S  745   4.509   7.523   8.419 -1.3749 -0.0102 -0.4894
    6SAPS  C220  746   4.360   7.575   8.554 -0.3528  0.6154 -0.3364
    6SAPS  H20R  747   4.287   7.593   8.473 -1.1008  2.1150  0.6171
    6SAPS  H20S  748   4.406   7.667   8.596 -0.9591  0.1642  1.4304
    6SAPS  H20T  749   4.312   7.533   8.645  1.4163  0.2534  0.4813
    6SAPS   C33  750   4.627   6.381  10.034 -0.3154 -0.3825 -0.3341
    6SAPS   H3X  751   4.517   6.384  10.050 -0.0921 -1.8204  1.9250
    6SAPS   H3Y  752   4.664   6.321  10.120 -1.2987 -3.1990 -1.7656
    6SAPS   C34  753   4.658   6.292   9.910  0.2559  0.6443 -0.3300
    6SAPS   H4X  754   4.639   6.186   9.937 -0.6007  0.6849 -0.7323
    6SAPS   H4Y  755   4.765   6.297   9.883  0.7192 -3.3798  0.1163
    6SAPS   C35  756   4.574   6.330   9.792 -0.1909 -0.0419  0.4271
    6SAPS   H5X  757   4.589   6.437   9.765 -0.6603  0.0151  0.3788
    6SAPS   H5Y  758   4.468   6.327   9.825 -1.0087  2.2773 -1.6913
    6SAPS   C36  759   4.600   6.226   9.679  0.9694 -0.2405 -0.2285
    6SAPS   H6X  760   4.498   6.189   9.656  0.0960 -1.1811  4.2263
    6SAPS   H6Y  761   4.638   6.131   9.723  1.3843 -0.0313 -0.1279
    6SAPS   C37  762   4.678   6.275   9.559  0.3274 -0.2538  0.1367
    6SAPS   H7X  763   4.774   6.322   9.590  0.3196 -0.4922  0.5198
    6SAPS   H7Y  764   4.619   6.360   9.518  0.1155 -1.3274 -1.9094
    6SAPS   C38  765   4.714   6.180   9.448  0.8604  0.9391 -0.3554
    6SAPS   H8X  766   4.632   6.112   9.417  0.5352  0.5030  1.3377
    6SAPS   H8Y  767   4.787   6.107   9.488  0.8488 -0.0970 -2.1065
    6SAPS   C39  768   4.776   6.236   9.314 -0.1058 -0.5285 -0.6029
    6SAPS   H9X  769   4.784   6.150   9.244 -0.8887 -0.9158 -0.2231
    6SAPS   H9Y  770   4.876   6.277   9.339 -1.6458  3.6767 -0.6342
    6SAPS  C310  771   4.705   6.354   9.249  0.3954 -0.4700  0.3389
    6SAPS  H10X  772   4.707   6.437   9.322  1.0447 -0.7246  0.6104
    6SAPS  H10Y  773   4.599   6.323   9.234  1.5425 -4.5266 -0.6183
    6SAPS  C311  774   4.769   6.412   9.119 -0.2925  0.2940  0.7258
    6SAPS  H11X  775   4.871   6.452   9.135 -0.9745  2.1837  0.6270
    6SAPS  H11Y  776   4.719   6.507   9.090  1.6464  0.6298 -1.9424
    6SAPS  C312  777   4.754   6.321   8.994  0.6474 -0.3218 -0.1490
    6SAPS  H12X  778   4.646   6.301   8.976  0.2613  0.1248  1.5398
    6SAPS  H12Y  779   4.812   6.226   8.999 -1.3018 -1.5268  0.8386
    6SAPS  C313  780   4.806   6.382   8.864  0.5964 -0.1615 -0.0334
    6SAPS  H13X  781   4.910   6.420   8.867  0.3436  0.6978 -1.2496
    6SAPS  H13Y  782   4.739   6.470   8.854 -0.4145 -0.7244  1.3759
    6SAPS  C314  783   4.775   6.311   8.734  0.6521  0.0258  0.0818
    6SAPS  H14X  784   4.668   6.280   8.725  0.4149  0.6444  0.6935
    6SAPS  H14Y  785   4.830   6.215   8.746 -1.0358 -1.3107 -1.9092
    6SAPS  C315  786   4.827   6.383   8.609 -0.3788 -0.5522  0.2737
    6SAPS  H15X  787   4.935   6.395   8.631 -0.3948  0.0718  0.0446
    6SAPS  H15Y  788   4.775   6.480   8.596 -1.0855 -1.0228 -0.5457
    6SAPS  C316  789   4.823   6.310   8.478 -0.2491 -0.3790  0.3907
    6SAPS  H16X  790   4.846   6.202   8.488 -2.0275 -0.6279  2.2938
    6SAPS  H16Y  791   4.895   6.348   8.402 -0.9714 -0.8072 -0.5254
    6SAPS  C317  792   4.691   6.319   8.397 -0.4196  0.0711 -0.3157
    6SAPS  H17X  793   4.684   6.421   8.353  0.2437  1.3625  2.3185
    6SAPS  H17Y  794   4.603   6.314   8.465 -0.2627 -0.6801 -0.1581
    6SAPS  C318  795   4.682   6.228   8.279 -0.0117  1.0404  0.5441
    6SAPS  H18X  796   4.692   6.121   8.308  2.0450  0.1707 -2.8011
    6SAPS  H18Y  797   4.764   6.247   8.207 -0.2771  1.1750  0.2754
    6SAPS  H18Z  798   4.584   6.247   8.230  0.6924  0.2855 -1.2142
    7SAPS     N  799   3.735   2.651  10.482  0.1726  0.0356 -0.3078
    7SAPS   HN1  800   3.634   2.626  10.492  0.3806 -1.8309 -2.1727
    7SAPS   HN2  801   3.739   2.740  10.428  1.1669  0.7927  0.9815
    7SAPS   HN3  802   3.789   2.582  10.426 -0.5960 -1.3523  0.5860
    7SAPS   C12  803   3.788   2.691  10.614  0.5988 -0.3852 -0.1975
    7SAPS  H12A  804   3.705   2.697  10.683  0.0816 -2.9660 -0.5016
    7SAPS   C13  805   3.887   2.585  10.673 -0.1052  0.2628 -0.4582
    7SAPS  O13A  806   3.937   2.498  10.593  0.4276 -0.0166 -0.2811
    7SAPS  O13B  807   3.951   2.629  10.768  0.1737  0.0637 -0.0594
    7SAPS   C11  808   3.868   2.830  10.596  0.7957  1.0029  0.4473
    7SAPS  H11A  809   3.947   2.804  10.524 -0.5152  1.1242 -1.0967
    7SAPS  H11B  810   3.906   2.856  10.697 -0.0419  1.6652  0.6078
    7SAPS     P  811   3.803   3.080  10.580 -0.1031  0.3490  0.2850
    7SAPS   O13  812   3.719   3.159  10.492 -0.0442 -0.3329 -0.2852
    7SAPS   O14  813   3.795   3.099  10.725  0.1426 -0.4620 -0.3152
    7SAPS   O12  814   3.780   2.930  10.546 -0.0663 -0.5257 -0.2868
    7SAPS   O11  815   3.953   3.097  10.538  0.5296  0.2882  0.2903
    7SAPS    C1  816   3.983   3.052  10.406 -1.0248  0.3866  0.6873
    7SAPS    HA  817   4.074   2.989  10.415 -2.0134 -1.0818  0.7548
    7SAPS    HB  818   3.911   2.980  10.360  0.1297 -1.1933  1.2653
    7SAPS    C2  819   4.018   3.171  10.310  0.1253 -0.0990  0.0749
    7SAPS    HS  820   4.072   3.124  10.224 -2.8411 -0.0021 -1.9964
    7SAPS   O21  821   4.091   3.278  10.372  0.0641  0.2991 -0.3265
    7SAPS   C21  822   4.199   3.323  10.321  0.0883  0.2602 -0.5292
    7SAPS   O22  823   4.256   3.290  10.218  0.0193  0.8114 -0.4447
    7SAPS   C22  824   4.262   3.422  10.421 -0.2664 -0.1410 -0.2211
    7SAPS   H2R  825   4.187   3.500  10.443  1.0013  1.8148 -2.3648
    7SAPS   H2S  826   4.298   3.365  10.510  1.5760  0.7848 -0.3356
    7SAPS    C3  827   3.891   3.229  10.239  0.4853 -0.1199  0.0179
    7SAPS    HX  828   3.837   3.296  10.310 -0.9381 -1.5870  0.3762
    7SAPS    HY  829   3.820   3.145  10.225 -2.1170  1.9060  0.3150
    7SAPS   O31  830   3.930   3.288  10.105 -0.0418  0.6712  0.2166
    7SAPS   C31  831   3.958   3.415  10.101  0.2937  0.4592  0.5284
    7SAPS   O32  832   3.954   3.493  10.196  0.1460  0.5735 -0.0873
    7SAPS   C32  833   3.982   3.454   9.956  0.2458 -0.6086 -0.5355
    7SAPS   H2X  834   4.027   3.555   9.969  0.8771 -1.1215  1.8771
    7SAPS   H2Y  835   3.889   3.454   9.896 -1.0715  1.6209  1.3418
    7SAPS   C23  836   4.391   3.493  10.365 -0.7496 -0.5989  0.8692
    7SAPS   H3R  837   4.462   3.417  10.324  1.1477  0.3424  2.2589
    7SAPS   H3S  838   4.441   3.543  10.450  0.0790 -1.0486  0.6535
    7SAPS   C24  839   4.363   3.611  10.259  0.5628 -0.0320 -0.4016
    7SAPS   H4R  840   4.332   3.565  10.162  2.2425 -0.1504 -0.9216
    7SAPS   H4S  841   4.464   3.649  10.233  1.3005 -2.1383 -0.8691
    7SAPS   C25  842   4.269   3.722  10.314  0.1122 -0.2172  0.5141
    7SAPS   H5R  843   4.276   3.742  10.422  0.1610 -1.5058  0.7641
    7SAPS   C26  844   4.209   3.810  10.235  0.4389  0.6777  1.1758
    7SAPS   H6R  845   4.156   3.891  10.288 -0.8503  0.0987  0.8058
    7SAPS   C27  846   4.199   3.813  10.080 -0.0291  0.0433 -0.5538
    7SAPS   H7R  847   4.092   3.826  10.055  0.2742  1.1772 -1.3699
    7SAPS   H7S  848   4.222   3.716  10.031  1.8255  1.7392 -3.3369
    7SAPS   C28  849   4.285   3.918  10.027  0.1677 -0.6640  0.0101
    7SAPS   H8R  850   4.367   3.955  10.090  0.8884  1.5782 -2.0804
    7SAPS   C29  851   4.265   3.980   9.911 -0.2123 -0.6668  0.0843
    7SAPS   H9R  852   4.335   4.058   9.879  2.0486 -2.4947  0.3186
    7SAPS  C210  853   4.159   3.932   9.810  0.1903 -0.0282  0.5911
    7SAPS  H10R  854   4.076   3.870   9.852  0.1629 -0.3186  0.1230
    7SAPS  H10S  855   4.212   3.854   9.750  0.9873  0.0789  1.1443
    7SAPS  C211  856   4.106   4.055   9.735  0.0597 -0.1515 -0.2723
    7SAPS  H11R  857   4.117   4.141   9.803 -0.7382 -1.1575  1.1822
    7SAPS  C212  858   4.047   4.055   9.612  0.0351 -1.5709 -0.0197
    7SAPS  H12R  859   4.005   4.153   9.585  1.1550  0.3573  4.3230
    7SAPS  C213  860   4.029   3.936   9.526  0.3150 -0.7347  0.1188
    7SAPS  H13R  861   4.022   3.844   9.588  3.0401 -1.4285 -0.4592
    7SAPS  H13S  862   4.118   3.919   9.462 -0.2602 -2.7766 -0.2185
    7SAPS  C214  863   3.904   3.934   9.440 -0.0971  0.1980  0.5407
    7SAPS  H14R  864   3.810   3.894   9.481  0.0807 -0.0146  0.7354
    7SAPS  C215  865   3.893   3.986   9.318  0.4857 -0.5056  0.0531
    7SAPS  H15R  866   3.807   3.961   9.254 -0.2685  1.6834  0.1320
    7SAPS  C216  867   4.010   4.054   9.240 -0.4503  0.4565  0.3203
    7SAPS  H16R  868   4.066   4.118   9.312  2.9327 -1.5315 -0.3440
    7SAPS  H16S  869   3.985   4.133   9.166  0.3564 -0.4744 -0.9851
    7SAPS  C217  870   4.099   3.958   9.165 -0.4611  0.2698 -0.0568
    7SAPS  H17R  871   4.151   3.880   9.225  2.0125  0.5429 -1.7107
    7SAPS  H17S  872   4.171   4.029   9.119 -1.6853  1.6853  0.1172
    7SAPS  C218  873   4.039   3.889   9.046 -0.7982 -0.2455  0.0425
    7SAPS  H18R  874   3.979   3.961   8.986 -2.7744 -2.4944 -0.8197
    7SAPS  H18S  875   3.967   3.814   9.084  0.0913  0.2628  2.9585
    7SAPS  C219  876   4.139   3.828   8.952 -0.3422  0.5684 -0.5234
    7SAPS  H19R  877   4.210   3.762   9.007 -0.7896  2.0919  2.0701
    7SAPS  H19S  878   4.208   3.910   8.920  0.4111  0.1205 -0.0807
    7SAPS  C220  879   4.081   3.764   8.826 -0.0203  0.2434 -0.0223
    7SAPS  H20R  880   4.031   3.846   8.772  1.9355  1.1497 -0.5668
    7SAPS  H20S  881   4.010   3.686   8.862 -1.0604 -0.6692 -3.7077
    7SAPS  H20T  882   4.164   3.720   8.767  3.3799  1.7820  3.1892
    7SAPS   C33  883   4.088   3.366   9.881 -0.3105 -0.1435  0.3840
    7SAPS   H3X  884   4.030   3.273   9.860 -2.1263  0.5340  2.0996
    7SAPS   H3Y  885   4.167   3.357   9.959  0.0973  0.7364  0.0890
    7SAPS   C34  886   4.138   3.436   9.754  0.4817  0.1230 -0.0148
    7SAPS   H4X  887   4.213   3.365   9.712 -0.6711 -0.4645 -1.1763
    7SAPS   H4Y  888   4.197   3.527   9.774  1.3219 -0.5670  0.7359
    7SAPS   C35  889   4.025   3.452   9.647  0.0507 -0.2109 -0.0348
    7SAPS   H5X  890   3.957   3.527   9.690 -0.9960  0.0893 -2.0818
    7SAPS   H5Y  891   3.959   3.363   9.635 -0.4463  0.3149 -1.3894
    7SAPS   C36  892   4.082   3.502   9.506  0.0988  0.0661 -0.1144
    7SAPS   H6X  893   4.145   3.422   9.462 -0.1485 -0.4254  0.4202
    7SAPS   H6Y  894   4.154   3.587   9.515  1.4898 -0.8362 -1.9001
    7SAPS   C37  895   3.978   3.535   9.401  0.1433  0.7191 -0.3794
    7SAPS   H7X  896   3.923   3.629   9.418 -1.1963 -0.2121  0.6739
    7SAPS   H7Y  897   3.904   3.452   9.395  1.0085 -0.0493 -0.6873
    7SAPS   C38  898   4.043   3.551   9.261 -0.0450  0.3570  0.1754
    7SAPS   H8X  899   4.135   3.489   9.257  0.5196  0.9106  2.5351
    7SAPS   H8Y  900   4.063   3.661   9.259 -0.2656  0.4931  2.5100
    7SAPS   C39  901   3.958   3.506   9.143  0.0737  0.6158 -0.0105
    7SAPS   H9X  902   3.946   3.396   9.141  0.1263  0.6223 -0.8517
    7SAPS   H9Y  903   4.023   3.522   9.054 -0.9346  1.2389 -0.6530
    7SAPS  C310  904   3.821   3.568   9.138 -0.3079  0.1194  0.1175
    7SAPS  H10X  905   3.830   3.676   9.163  0.0027  0.2728 -0.6333
    7SAPS  H10Y  906   3.763   3.523   9.222  1.7661  0.2575  1.7010
    7SAPS  C311  907   3.755   3.573   8.999  0.0994  0.1294 -0.7013
    7SAPS  H11X  908   3.724   3.475   8.957 -0.8764  0.4164 -0.6846
    7SAPS  H11Y  909   3.824   3.621   8.927 -1.5194  2.9246 -0.5477
    7SAPS  C312  910   3.631   3.657   8.995  0.1064 -0.1464 -0.7750
    7SAPS  H12X  911   3.649   3.762   9.028 -1.7840 -0.4775  1.5434
    7SAPS  H12Y  912   3.558   3.601   9.056 -0.8260  1.1601 -0.6575
    7SAPS  C313  913   3.565   3.681   8.855 -0.2205  0.7544 -0.7356
    7SAPS  H13X  914   3.641   3.705   8.777  1.6365  0.0623  0.8021
    7SAPS  H13Y  915   3.502   3.771   8.873 -0.7613  0.0306  1.1608
    7SAPS  C314  916   3.489   3.556   8.819  0.5976 -0.2954 -0.0822
    7SAPS  H14X  917   3.420   3.540   8.905 -0.0738 -0.9171 -0.7246
    7SAPS  H14Y  918   3.557   3.468   8.807  0.7364 -0.3557  1.0146
    7SAPS  C315  919   3.412   3.569   8.688 -0.0060  0.5936  0.3982
    7SAPS  H15X  920   3.488   3.606   8.615  1.4188 -1.2694  0.8512
    7SAPS  H15Y  921   3.342   3.652   8.712 -1.8148  0.2361 -3.0276
    7SAPS  C316  922   3.329   3.455   8.645 -0.8118 -0.2088 -0.1071
    7SAPS  H16X  923   3.395   3.378   8.601 -1.7104 -1.1925  0.2362
    7SAPS  H16Y  924   3.256   3.495   8.572 -0.4065  0.6103 -0.0736
    7SAPS  C317  925   3.242   3.406   8.759 -0.2894  0.4969  0.2383
    7SAPS  H17X  926   3.204   3.487   8.825 -1.7722  0.7526 -0.8572
    7SAPS  H17Y  927   3.306   3.336   8.815  0.2196 -1.0419 -2.1081
    7SAPS  C318  928   3.129   3.315   8.714 -0.2838 -0.1839  0.0062
    7SAPS  H18X  929   3.144   3.207   8.690 -1.0901 -0.3144  0.0661
    7SAPS  H18Y  930   3.050   3.360   8.651 -0.3309  0.4895  0.5360
    7SAPS  H18Z  931   3.064   3.294   8.802 -0.2291  0.5917  0.2359
    8SAPS     N  932   0.778   4.292  10.600 -0.4911 -0.4023  0.3095
    8SAPS   HN1  933   0.696   4.274  10.539  0.2613 -0.9209 -0.5690
    8SAPS   HN2  934   0.802   4.391  10.580 -1.2458 -0.2324  0.2227
    8SAPS   HN3  935   0.851   4.221  10.577  0.7017  1.5351 -2.3514
    8SAPS   C12  936   0.730   4.286  10.739  0.1343  0.2586 -0.4715
    8SAPS  H12A  937   0.720   4.181  10.764  1.0022  0.3219  0.1881
    8SAPS   C13  938   0.823   4.343  10.853  0.4079  0.7647 -0.8165
    8SAPS  O13A  939   0.933   4.398  10.837  0.4135  0.0340  0.4793
    8SAPS  O13B  940   0.794   4.288  10.964  0.3373 -0.0880  0.1222
    8SAPS   C11  941   0.583   4.353  10.736 -0.3428  0.2310 -0.2082
    8SAPS  H11A  942   0.550   4.314  10.835 -0.6449  3.0963  0.9041
    8SAPS  H11B  943   0.521   4.322  10.650  0.5702  2.8540 -1.9507
    8SAPS     P  944   0.508   4.586  10.815 -0.3996  0.5424  0.2906
    8SAPS   O13  945   0.436   4.516  10.926 -0.3620  0.1752  0.9455
    8SAPS   O14  946   0.587   4.704  10.856  0.1596  0.2055  0.0132
    8SAPS   O12  947   0.607   4.495  10.732  0.3917 -0.1090  0.5174
    8SAPS   O11  948   0.403   4.643  10.712  0.1948 -0.4140 -0.0762
    8SAPS    C1  949   0.395   4.601  10.574  0.1382  0.2686 -0.1185
    8SAPS    HA  950   0.495   4.606  10.525  1.1614  0.4466  1.8900
    8SAPS    HB  951   0.352   4.499  10.576 -0.7369  0.6323  0.0172
    8SAPS    C2  952   0.299   4.689  10.487  0.0073 -0.1998  0.4026
    8SAPS    HS  953   0.331   4.795  10.499 -0.0449 -0.1869  0.4208
    8SAPS   O21  954   0.166   4.656  10.530 -0.1442 -0.2765  0.0874
    8SAPS   C21  955   0.092   4.767  10.528  0.5624 -0.6879 -0.5082
    8SAPS   O22  956   0.129   4.879  10.490  0.2900  0.6248 -0.1390
    8SAPS   C22  957  -0.049   4.738  10.584  0.1448  0.1902  0.7016
    8SAPS   H2R  958  -0.056   4.634  10.624  0.0908 -0.6840 -1.4540
    8SAPS   H2S  959  -0.065   4.805  10.671  0.8661  0.7707  0.3967
    8SAPS    C3  960   0.316   4.662  10.335  0.1240 -0.0109  0.7041
    8SAPS    HX  961   0.244   4.729  10.284 -1.3081 -0.7572  1.6702
    8SAPS    HY  962   0.281   4.560  10.306  1.7568 -1.2751  2.8483
    8SAPS   O31  963   0.448   4.674  10.276 -0.1143 -0.2502 -0.5642
    8SAPS   C31  964   0.522   4.563  10.261 -0.2879  0.6044  0.1983
    8SAPS   O32  965   0.482   4.446  10.281 -0.2700  0.2350  0.2346
    8SAPS   C32  966   0.657   4.592  10.193 -0.4597 -0.0084  0.3555
    8SAPS   H2X  967   0.719   4.650  10.265  1.3655 -1.5600  0.1187
    8SAPS   H2Y  968   0.633   4.654  10.105  0.0663 -1.7774 -1.0911
    8SAPS   C23  969  -0.156   4.762  10.483  0.4324  0.2812 -0.7200
    8SAPS   H3R  970  -0.154   4.870  10.457  0.8964  0.8461  1.4194
    8SAPS   H3S  971  -0.250   4.742  10.540  0.0246  0.2055 -1.4135
    8SAPS   C24  972  -0.166   4.680  10.349  0.3051  0.0185 -0.4028
    8SAPS   H4R  973  -0.077   4.686  10.284  0.0706  0.7303 -0.6691
    8SAPS   H4S  974  -0.234   4.741  10.285  0.6441  2.2709  1.2663
    8SAPS   C25  975  -0.209   4.541  10.383  1.3250  0.3719  0.5610
    8SAPS   H5R  976  -0.310   4.537  10.426  0.3848 -0.7785 -1.5626
    8SAPS   C26  977  -0.139   4.428  10.363  1.1253 -0.0984 -0.1265
    8SAPS   H6R  978  -0.172   4.331  10.404  0.8166  0.1320  0.1819
    8SAPS   C27  979  -0.007   4.415  10.304  0.6086  0.2523 -0.9760
    8SAPS   H7R  980   0.031   4.517  10.281 -0.5318  1.5732  2.3372
    8SAPS   H7S  981  -0.016   4.359  10.208 -0.4957 -0.7538 -0.3136
    8SAPS   C28  982   0.091   4.345  10.397  0.0969 -0.0145  0.0844
    8SAPS   H8R  983   0.077   4.380  10.501 -1.9747  0.9181 -0.4642
    8SAPS   C29  984   0.172   4.237  10.373  0.6100  0.2342  0.0191
    8SAPS   H9R  985   0.232   4.201  10.458 -2.2847  1.4317  2.8005
    8SAPS  C210  986   0.179   4.159  10.242  0.1117 -0.5008  0.4266
    8SAPS  H10R  987   0.121   4.199  10.156  0.5214 -0.0832  0.3400
    8SAPS  H10S  988   0.134   4.059  10.260 -1.9913 -0.1991 -2.4134
    8SAPS  C211  989   0.322   4.139  10.198 -0.4410  0.3921 -0.5699
    8SAPS  H11R  990   0.382   4.075  10.263 -1.2887  0.7763  0.6391
    8SAPS  C212  991   0.379   4.177  10.086 -0.1061 -0.0164 -0.2864
    8SAPS  H12R  992   0.483   4.150  10.060 -0.5251 -0.6800 -1.3394
    8SAPS  C213  993   0.306   4.254   9.973 -0.3320 -0.5058 -0.5542
    8SAPS  H13R  994   0.226   4.315  10.022 -0.5627 -2.4417  1.6707
    8SAPS  H13S  995   0.246   4.189   9.907 -0.1639 -1.9367  0.6554
    8SAPS  C214  996   0.396   4.339   9.889 -0.3139  0.0039 -0.4112
    8SAPS  H14R  997   0.465   4.288   9.820  0.9649  0.3798  0.5388
    8SAPS  C215  998   0.410   4.471   9.897  0.3668  0.5225  0.1809
    8SAPS  H15R  999   0.468   4.516   9.815 -0.2946  0.2752 -0.4332
    8SAPS  C216 1000   0.327   4.558   9.973  0.1235 -0.5684 -0.4779
    8SAPS  H16R 1001   0.380   4.652  10.000  0.3975 -0.4826 -1.2929
    8SAPS  H16S 1002   0.296   4.504  10.065  0.4464  1.1860  0.7065
    8SAPS  C217 1003   0.188   4.591   9.898 -0.1408  0.4786  0.0883
    8SAPS  H17R 1004   0.129   4.499   9.879  0.7760 -0.0906 -0.0840
    8SAPS  H17S 1005   0.209   4.649   9.806 -0.3780  1.7463  0.8149
    8SAPS  C218 1006   0.101   4.688   9.985  0.1462 -0.1464 -0.2498
    8SAPS  H18R 1007   0.086   4.631  10.079  1.1770 -2.5941 -1.4767
    8SAPS  H18S 1008   0.002   4.696   9.935 -1.5512 -1.2665  2.6575
    8SAPS  C219 1009   0.158   4.826  10.019  0.0069 -0.0171  0.0401
    8SAPS  H19R 1010   0.161   4.874   9.919 -0.2286  0.0864  0.0801
    8SAPS  H19S 1011   0.261   4.822  10.061 -0.3982  0.6330  1.1635
    8SAPS  C220 1012   0.071   4.904  10.114 -0.2287  0.6624 -0.5853
    8SAPS  H20R 1013  -0.033   4.905  10.074 -0.6619  0.8323  0.5229
    8SAPS  H20S 1014   0.106   5.008  10.131  0.3553  0.3699  0.0211
    8SAPS  H20T 1015   0.064   4.853  10.212  0.1437  0.6218 -0.5803
    8SAPS   C33 1016   0.741   4.475  10.150  0.0162 -0.4107 -0.0449
    8SAPS   H3X 1017   0.688   4.379  10.134 -1.2138  0.1462  0.5667
    8SAPS   H3Y 1018   0.804   4.451  10.239 -0.6288  1.7444  1.0617
    8SAPS   C34 1019   0.835   4.505  10.026  0.0495 -0.5718 -0.1319
    8SAPS   H4X 1020   0.885   4.603  10.040 -1.6309  0.3832 -0.5832
    8SAPS   H4Y 1021   0.764   4.509   9.940 -1.2667  1.7175  0.9522
    8SAPS   C35 1022   0.931   4.388  10.006  0.4892 -0.0013 -0.4447
    8SAPS   H5X 1023   0.866   4.299   9.994 -4.1275  2.1565  4.2039
    8SAPS   H5Y 1024   0.990   4.364  10.097  1.2051  0.2539 -0.8419
    8SAPS   C36 1025   1.022   4.406   9.889  0.4288  0.4361  0.1170
    8SAPS   H6X 1026   1.080   4.312   9.874 -0.1303  0.2796 -1.2669
    8SAPS   H6Y 1027   1.091   4.491   9.904 -2.4458  2.6062  2.1364
    8SAPS   C37 1028   0.955   4.413   9.754 -0.1210 -0.0653 -0.1095
    8SAPS   H7X 1029   0.912   4.515   9.752  0.2508  0.1147  0.5789
    8SAPS   H7Y 1030   0.882   4.330   9.747  0.4776 -0.6551  0.4047
    8SAPS   C38 1031   1.057   4.406   9.637  0.3271 -0.1561  0.7188
    8SAPS   H8X 1032   1.125   4.322   9.661  0.1991 -0.3029  0.5767
    8SAPS   H8Y 1033   1.116   4.500   9.637 -0.3639  0.3151 -0.7490
    8SAPS   C39 1034   1.007   4.405   9.493 -0.2525  0.4019  0.2044
    8SAPS   H9X 1035   0.938   4.489   9.469 -1.3087 -0.5253 -0.0853
    8SAPS   H9Y 1036   0.943   4.315   9.481  0.8448 -0.0941 -2.7506
    8SAPS  C310 1037   1.129   4.416   9.403  0.3082  0.1532  0.7574
    8SAPS  H10X 1038   1.200   4.336   9.433  0.9326 -0.3879 -1.9368
    8SAPS  H10Y 1039   1.172   4.519   9.408 -1.8989  1.1031  1.2489
    8SAPS  C311 1040   1.089   4.398   9.253 -0.6075 -0.3549  0.4919
    8SAPS  H11X 1041   1.026   4.308   9.242 -0.8570 -0.1723  0.4089
    8SAPS  H11Y 1042   1.180   4.381   9.191 -1.5410 -0.1942 -0.9493
    8SAPS  C312 1043   1.022   4.531   9.198 -0.7595 -0.4104  0.1773
    8SAPS  H12X 1044   1.097   4.612   9.207  0.4789 -1.4437 -0.4379
    8SAPS  H12Y 1045   0.951   4.561   9.278  1.1116  0.2080  1.6882
    8SAPS  C313 1046   0.976   4.534   9.061  0.0028 -0.1823  0.2478
    8SAPS  H13X 1047   0.935   4.433   9.040  1.0089 -0.1951 -1.8834
    8SAPS  H13Y 1048   1.058   4.552   8.988 -0.3891 -0.5960 -0.3052
    8SAPS  C314 1049   0.861   4.635   9.039 -0.6321 -0.2222  0.1505
    8SAPS  H14X 1050   0.890   4.741   9.046  0.3164 -0.4448 -0.2710
    8SAPS  H14Y 1051   0.786   4.616   9.119  0.0551 -0.6680  0.7069
    8SAPS  C315 1052   0.790   4.610   8.906 -0.5729 -0.0154 -0.3381
    8SAPS  H15X 1053   0.689   4.655   8.915  0.2169  1.7757 -0.0806
    8SAPS  H15Y 1054   0.780   4.499   8.894  1.9911 -0.3144 -0.2104
    8SAPS  C316 1055   0.861   4.669   8.784  0.0331  0.4810  0.3397
    8SAPS  H16X 1056   0.951   4.609   8.759 -0.5640 -0.9662  1.5221
    8SAPS  H16Y 1057   0.889   4.776   8.797 -2.9316  1.8265 -2.7454
    8SAPS  C317 1058   0.779   4.659   8.651 -1.0328 -0.4508 -0.0755
    8SAPS  H17X 1059   0.848   4.684   8.568  1.8714 -0.6198  2.1343
    8SAPS  H17Y 1060   0.694   4.731   8.654 -3.4191 -3.0957  1.9399
    8SAPS  C318 1061   0.709   4.522   8.625  0.1789 -0.5738  0.2531
    8SAPS  H18X 1062   0.779   4.438   8.641 -0.1143 -0.8404  0.1544
    8SAPS  H18Y 1063   0.662   4.530   8.524  0.3002  2.0429  0.3457
    8SAPS  H18Z 1064   0.628   4.522   8.702  1.3554  0.9643  1.5540
    9SAPS     N 1065   6.375   0.988   6.140  0.4749 -0.1857 -0.6122
    9SAPS   HN1 1066   6.394   1.088   6.159  0.1079 -0.1784 -0.2541
    9SAPS   HN2 1067   6.342   0.944   6.229  3.0887 -1.2623 -0.0860
    9SAPS   HN3 1068   6.452   0.926   6.110 -0.7480 -1.0000 -2.2178
    9SAPS   C12 1069   6.257   0.949   6.049 -0.6633  0.6379  0.1238
    9SAPS  H12A 1070   6.264   1.013   5.963 -1.5442 -0.7774 -1.0433
    9SAPS   C13 1071   6.270   0.804   5.995 -0.0458 -0.1454  0.0398
    9SAPS  O13A 1072   6.367   0.731   6.033  0.2220 -0.4524  0.6001
    9SAPS  O13B 1073   6.188   0.764   5.906  0.0961  0.0121  0.0621
    9SAPS   C11 1074   6.122   0.960   6.131  0.4961 -0.4024  0.6917
    9SAPS  H11A 1075   6.138   0.886   6.212 -0.3518 -1.9125 -0.4592
    9SAPS  H11B 1076   6.034   0.942   6.065  0.8366  0.3106  0.0211
    9SAPS     P 1077   5.969   1.123   6.269 -0.1338  0.1020  0.0528
    9SAPS   O13 1078   5.878   1.188   6.177  0.3095 -0.7485 -0.5752
    9SAPS   O14 1079   5.926   0.997   6.333  0.4424  0.0566 -0.0227
    9SAPS   O12 1080   6.109   1.088   6.201 -0.0977  0.1350 -0.2692
    9SAPS   O11 1081   6.007   1.217   6.388 -0.5755  0.3990 -0.0073
    9SAPS    C1 1082   6.141   1.268   6.408 -0.7180 -0.2264 -0.0454
    9SAPS    HA 1083   6.208   1.188   6.446 -0.8015 -0.6113 -0.6936
    9SAPS    HB 1084   6.182   1.311   6.315  3.8613 -1.3884  1.2169
    9SAPS    C2 1085   6.130   1.375   6.530  0.5424  0.3700 -0.0192
    9SAPS    HS 1086   6.232   1.403   6.564  0.9936 -0.3285 -0.7532
    9SAPS   O21 1087   6.054   1.312   6.635 -0.2191  0.5634 -0.3535
    9SAPS   C21 1088   6.137   1.251   6.721  0.2654 -0.1027 -0.2005
    9SAPS   O22 1089   6.257   1.253   6.717 -0.1389  0.3436  0.0607
    9SAPS   C22 1090   6.049   1.162   6.819 -0.3880 -0.2109  0.7401
    9SAPS   H2R 1091   5.944   1.198   6.815 -0.1393  0.7512  2.1500
    9SAPS   H2S 1092   6.035   1.075   6.751 -0.9856 -0.6738  1.4357
    9SAPS    C3 1093   6.059   1.507   6.476 -0.1080 -0.0558 -0.6239
    9SAPS    HX 1094   5.953   1.477   6.466 -0.4728  0.3026  1.5553
    9SAPS    HY 1095   6.109   1.516   6.377  1.4257  0.9183  0.1825
    9SAPS   O31 1096   6.089   1.618   6.565 -0.0725  0.2133 -0.6340
    9SAPS   C31 1097   5.992   1.706   6.569  0.2150 -0.3010  0.7119
    9SAPS   O32 1098   5.913   1.718   6.480  0.8047  0.4551  0.0650
    9SAPS   C32 1099   5.983   1.781   6.702  0.0293  0.2008 -0.0697
    9SAPS   H2X 1100   5.885   1.832   6.694  0.6808  1.1682 -3.8275
    9SAPS   H2Y 1101   6.063   1.856   6.719 -0.9734  1.6949 -1.6225
    9SAPS   C23 1102   6.089   1.121   6.962  0.4393 -0.0113 -0.0704
    9SAPS   H3R 1103   6.195   1.088   6.953  1.1574  2.3628 -1.1894
    9SAPS   H3S 1104   6.028   1.035   6.996  2.2527 -0.8685  1.1815
    9SAPS   C24 1105   6.078   1.245   7.057 -0.1854  0.0357  0.2435
    9SAPS   H4R 1106   5.983   1.298   7.033 -1.8705 -1.2875  3.3386
    9SAPS   H4S 1107   6.158   1.314   7.025  0.9594 -1.2553  0.2334
    9SAPS   C25 1108   6.094   1.211   7.208  0.3010  0.3082 -0.3596
    9SAPS   H5R 1109   6.007   1.156   7.249 -0.9279  1.0657 -1.8758
    9SAPS   C26 1110   6.202   1.235   7.285  0.5864  0.3455 -0.0676
    9SAPS   H6R 1111   6.205   1.210   7.392  1.4869 -1.1415 -0.4091
    9SAPS   C27 1112   6.323   1.303   7.246 -0.6823  0.0854  0.4626
    9SAPS   H7R 1113   6.351   1.373   7.328  0.9284  1.5270 -1.2160
    9SAPS   H7S 1114   6.310   1.371   7.159  1.2904  0.6581  0.5710
    9SAPS   C28 1115   6.439   1.219   7.204  0.4006  0.3136 -0.1877
    9SAPS   H8R 1116   6.421   1.113   7.180 -2.1898  0.5158  0.5671
    9SAPS   C29 1117   6.573   1.259   7.213  0.6957 -0.2533 -0.2572
    9SAPS   H9R 1118   6.649   1.185   7.184  1.2483  0.6187 -1.0740
    9SAPS  C210 1119   6.613   1.397   7.254 -0.6316 -0.0305 -0.7290
    9SAPS  H10R 1120   6.527   1.466   7.265  0.3679  1.1855 -0.2387
    9SAPS  H10S 1121   6.674   1.442   7.172  0.1741 -2.6370 -1.6948
    9SAPS  C211 1122   6.697   1.389   7.382  0.1802 -0.2297  0.0582
    9SAPS  H11R 1123   6.801   1.424   7.375  0.0320  0.7122  1.8412
    9SAPS  C212 1124   6.660   1.370   7.507 -0.5896  1.0511  0.4052
    9SAPS  H12R 1125   6.748   1.366   7.573 -0.0445  0.9366 -0.3149
    9SAPS  C213 1126   6.524   1.342   7.568 -0.3981  0.1265 -0.0938
    9SAPS  H13R 1127   6.500   1.233   7.566 -1.4943  0.2655  2.0816
    9SAPS  H13S 1128   6.444   1.385   7.505 -0.0537 -0.1510 -0.7354
    9SAPS  C214 1129   6.513   1.395   7.705  0.0766  0.2274  0.0915
    9SAPS  H14R 1130   6.493   1.502   7.721 -0.4158 -0.0358  1.3486
    9SAPS  C215 1131   6.508   1.320   7.816 -1.1385  0.0976  0.0433
    9SAPS  H15R 1132   6.508   1.359   7.919  0.4378 -1.7832  0.8171
    9SAPS  C216 1133   6.528   1.171   7.813 -0.8069  0.1796 -0.2851
    9SAPS  H16R 1134   6.561   1.123   7.718 -0.5997  0.8152 -0.5411
    9SAPS  H16S 1135   6.425   1.137   7.836 -0.4437 -1.3001 -0.6835
    9SAPS  C217 1136   6.618   1.113   7.928  0.2576  0.3043 -0.1899
    9SAPS  H17R 1137   6.588   1.006   7.920 -0.3378  0.5483 -1.5783
    9SAPS  H17S 1138   6.577   1.142   8.027 -2.5174 -1.5693 -0.6521
    9SAPS  C218 1139   6.764   1.152   7.907 -0.5749  0.3513 -0.0553
    9SAPS  H18R 1140   6.774   1.261   7.890  3.6774  0.0157 -0.9246
    9SAPS  H18S 1141   6.831   1.100   7.835  1.3140 -1.7392  2.9310
    9SAPS  C219 1142   6.848   1.135   8.040  0.6957 -0.3690  0.3785
    9SAPS  H19R 1143   6.798   1.198   8.117  0.7406 -0.9281  0.8729
    9SAPS  H19S 1144   6.952   1.171   8.024  1.4853 -0.8835  3.6626
    9SAPS  C220 1145   6.857   0.989   8.098  0.0829 -0.6178 -0.5783
    9SAPS  H20R 1146   6.758   0.939   8.097  0.5909 -1.6721  0.2056
    9SAPS  H20S 1147   6.892   0.988   8.204 -1.4623 -0.7823 -0.0418
    9SAPS  H20T 1148   6.921   0.930   8.029  1.2367 -1.3625  1.0599
    9SAPS   C33 1149   5.980   1.679   6.828 -0.3419 -0.8251 -0.2999
    9SAPS   H3X 1150   6.055   1.598   6.821  0.1384 -0.3308 -1.0377
    9SAPS   H3Y 1151   5.880   1.632   6.839  0.0585 -1.1282  4.2775
    9SAPS   C34 1152   6.000   1.757   6.962 -0.4404  0.2861 -0.4035
    9SAPS   H4X 1153   6.091   1.821   6.955  0.8158 -1.4653 -0.5399
    9SAPS   H4Y 1154   6.001   1.675   7.036  0.1711 -1.2702 -2.0599
    9SAPS   C35 1155   5.874   1.850   7.003 -0.6710  0.4163 -0.2301
    9SAPS   H5X 1156   5.785   1.784   6.996 -0.9972  0.5483  1.8450
    9SAPS   H5Y 1157   5.870   1.942   6.942 -1.2126  1.1667  0.8974
    9SAPS   C36 1158   5.894   1.879   7.159 -0.5040 -0.5006 -0.0751
    9SAPS   H6X 1159   5.997   1.916   7.176 -0.6704  0.0037 -0.1468
    9SAPS   H6Y 1160   5.888   1.792   7.228 -0.6255 -0.6180 -0.2292
    9SAPS   C37 1161   5.786   1.962   7.210  0.0409 -0.7409  0.3969
    9SAPS   H7X 1162   5.690   1.906   7.212 -0.8312  0.6749  2.8011
    9SAPS   H7Y 1163   5.780   2.060   7.159 -2.0894 -0.9712  0.1083
    9SAPS   C38 1164   5.804   2.011   7.356 -0.4515  0.1719 -1.2975
    9SAPS   H8X 1165   5.733   2.094   7.374  0.3088  0.3802  1.1044
    9SAPS   H8Y 1166   5.905   2.057   7.351 -1.0637  1.5676 -1.1469
    9SAPS   C39 1167   5.793   1.894   7.461 -0.0471 -0.5019  0.1771
    9SAPS   H9X 1168   5.884   1.832   7.445  1.2884  1.4555 -0.1720
    9SAPS   H9Y 1169   5.702   1.832   7.446 -1.7138  2.1089 -1.2351
    9SAPS  C310 1170   5.812   1.936   7.609  0.6838  0.5286  0.1117
    9SAPS  H10X 1171   5.716   1.980   7.645  0.4280 -2.5538  3.8977
    9SAPS  H10Y 1172   5.888   2.016   7.620  0.7479  0.6804 -1.2484
    9SAPS  C311 1173   5.849   1.823   7.705  0.6191 -0.3381  0.3060
    9SAPS  H11X 1174   5.950   1.796   7.668  1.0433  1.1435  0.3237
    9SAPS  H11Y 1175   5.795   1.727   7.690 -1.1310  0.3300  1.8992
    9SAPS  C312 1176   5.855   1.867   7.852 -0.3668  0.5467 -0.3079
    9SAPS  H12X 1177   5.905   1.966   7.861 -1.1543  0.8325  1.1180
    9SAPS  H12Y 1178   5.915   1.790   7.906 -0.9742 -1.8070 -2.7691
    9SAPS  C313 1179   5.721   1.879   7.913  0.5939  0.2602 -0.0783
    9SAPS  H13X 1180   5.653   1.794   7.893  1.2242 -0.7747  1.8822
    9SAPS  H13Y 1181   5.668   1.966   7.869  1.2947  1.2737  1.0131
    9SAPS  C314 1182   5.722   1.905   8.065 -0.1746 -0.3581 -0.7994
    9SAPS  H14X 1183   5.783   1.831   8.121  0.3979  1.0576  0.5138
    9SAPS  H14Y 1184   5.615   1.897   8.092 -0.2777 -3.1772 -1.7603
    9SAPS  C315 1185   5.779   2.041   8.099  0.1129  0.4694 -0.2269
    9SAPS  H15X 1186   5.727   2.113   8.033  0.8510  2.0438  0.8500
    9SAPS  H15Y 1187   5.887   2.034   8.072  0.9201 -0.9613  2.8761
    9SAPS  C316 1188   5.763   2.079   8.246  0.4905 -0.4081  0.2601
    9SAPS  H16X 1189   5.811   1.995   8.299  2.0479  0.7917  0.8393
    9SAPS  H16Y 1190   5.657   2.080   8.280  0.2906 -1.5757 -0.2878
    9SAPS  C317 1191   5.829   2.213   8.278  0.1239 -0.6401 -0.3454
    9SAPS  H17X 1192   5.937   2.209   8.254 -0.0221 -1.2264 -0.9419
    9SAPS  H17Y 1193   5.825   2.232   8.388 -0.0750 -1.0274 -0.2835
    9SAPS  C318 1194   5.766   2.336   8.212 -0.8585  0.5668  0.5959
    9SAPS  H18X 1195   5.828   2.424   8.242  0.7768 -0.3180 -0.0690
    9SAPS  H18Y 1196   5.663   2.351   8.251 -1.6348 -2.6877  0.0822
    9SAPS  H18Z 1197   5.756   2.333   8.101  0.5687 -0.2593  0.4694
   10SAPS     N 1198   1.348   6.394   6.246  0.4844 -0.3804  0.1807
   10SAPS   HN1 1199   1.391   6.308   6.205 -1.7571 -2.8572  2.6324
   10SAPS   HN2 1200   1.388   6.398   6.342 -1.3559 -0.9000  1.0024
   10SAPS   HN3 1201   1.246   6.379   6.237  0.6936 -1.0702 -1.3825
   10SAPS   C12 1202   1.400   6.503   6.169  0.0597 -0.6179 -0.2907
   10SAPS  H12A 1203   1.508   6.495   6.169  0.0137 -1.3624  0.4792
   10SAPS   C13 1204   1.375   6.488   6.015 -0.2003 -0.3103  0.0088
   10SAPS  O13A 1205   1.311   6.383   5.978 -0.1218 -0.2239  0.2392
   10SAPS  O13B 1206   1.420   6.577   5.936 -0.9482  0.1376 -0.0866
   10SAPS   C11 1207   1.350   6.637   6.227 -0.7356 -0.4603 -0.3482
   10SAPS  H11A 1208   1.240   6.637   6.211 -1.0781  0.2428  1.7796
   10SAPS  H11B 1209   1.393   6.725   6.173  0.9407  0.8987  2.9191
   10SAPS     P 1210   1.505   6.672   6.433 -0.0432  0.0934  0.3182
   10SAPS   O13 1211   1.601   6.561   6.402  0.0497 -0.0967 -0.7253
   10SAPS   O14 1212   1.554   6.805   6.383 -0.5213 -0.3318 -0.1639
   10SAPS   O12 1213   1.364   6.648   6.365 -0.2736  0.4010 -0.6281
   10SAPS   O11 1214   1.483   6.684   6.583 -0.5975  0.1767 -0.4245
   10SAPS    C1 1215   1.417   6.791   6.655 -0.1299 -0.2500 -0.2530
   10SAPS    HA 1216   1.368   6.866   6.588  0.2167 -0.7653 -1.1068
   10SAPS    HB 1217   1.344   6.742   6.723 -0.3026 -1.1537 -1.0521
   10SAPS    C2 1218   1.515   6.866   6.751 -0.1338 -1.4187  0.1738
   10SAPS    HS 1219   1.606   6.883   6.690 -2.2999  2.0615 -2.4752
   10SAPS   O21 1220   1.525   6.783   6.869 -0.2944 -0.0847  0.2196
   10SAPS   C21 1221   1.650   6.757   6.906 -0.4795 -0.5864 -0.3537
   10SAPS   O22 1222   1.752   6.783   6.843  0.5008  0.3457 -0.5391
   10SAPS   C22 1223   1.646   6.670   7.030 -0.0361  0.4887 -0.2829
   10SAPS   H2R 1224   1.545   6.666   7.076 -0.5331  1.2373 -1.2850
   10SAPS   H2S 1225   1.677   6.570   6.994 -0.0123  0.2768  0.3075
   10SAPS    C3 1226   1.459   7.011   6.776 -0.2449 -1.1773 -1.0220
   10SAPS    HX 1227   1.356   7.015   6.818  0.7743  1.4865  1.5851
   10SAPS    HY 1228   1.470   7.070   6.683 -0.2161  0.4654 -0.0169
   10SAPS   O31 1229   1.547   7.070   6.880 -0.2007 -0.1056  0.1298
   10SAPS   C31 1230   1.508   7.193   6.899  0.0089 -0.7620  0.2390
   10SAPS   O32 1231   1.413   7.252   6.843  0.3835 -0.5300 -0.1883
   10SAPS   C32 1232   1.610   7.249   6.996 -0.0664  0.3800 -1.3932
   10SAPS   H2X 1233   1.653   7.337   6.943 -1.4907  0.3015 -2.7294
   10SAPS   H2Y 1234   1.690   7.174   7.014 -0.8190 -0.2480 -0.6114
   10SAPS   C23 1235   1.753   6.709   7.135 -0.2052 -0.7260  0.6306
   10SAPS   H3R 1236   1.846   6.730   7.077 -0.7903 -1.9446 -0.8175
   10SAPS   H3S 1237   1.781   6.614   7.185 -0.0835 -1.3582 -0.5992
   10SAPS   C24 1238   1.718   6.820   7.227  0.2837 -0.9320 -0.0507
   10SAPS   H4R 1239   1.687   6.913   7.175  1.4723 -0.8140 -0.5980
   10SAPS   H4S 1240   1.816   6.847   7.273 -0.5592 -0.5561  1.5804
   10SAPS   C25 1241   1.622   6.776   7.333 -0.2659  0.6798 -0.4641
   10SAPS   H5R 1242   1.532   6.724   7.299 -0.4794  0.2787  0.6742
   10SAPS   C26 1243   1.640   6.777   7.465  0.5594  1.4573 -0.4200
   10SAPS   H6R 1244   1.567   6.738   7.537  1.9854  1.9856  1.3733
   10SAPS   C27 1245   1.756   6.824   7.550 -0.5151  0.1669  0.1371
   10SAPS   H7R 1246   1.846   6.831   7.485 -0.1617  0.6142  0.6591
   10SAPS   H7S 1247   1.781   6.752   7.631  1.0276  0.1282 -0.3445
   10SAPS   C28 1248   1.736   6.961   7.599  0.4933  0.5682 -0.3380
   10SAPS   H8R 1249   1.740   7.040   7.522 -2.5607  2.7270  1.5014
   10SAPS   C29 1250   1.708   6.997   7.729  0.0702  0.7466  0.0936
   10SAPS   H9R 1251   1.683   7.102   7.747 -1.5916  0.4452 -0.2127
   10SAPS  C210 1252   1.691   6.892   7.842 -0.1287 -0.1643 -0.1100
   10SAPS  H10R 1253   1.791   6.863   7.881 -0.2861 -1.5021 -0.6736
   10SAPS  H10S 1254   1.640   6.802   7.802  1.2552  0.0609 -2.5923
   10SAPS  C211 1255   1.622   6.944   7.969 -0.0713  0.3373 -0.4873
   10SAPS  H11R 1256   1.681   6.953   8.061 -2.0523  3.4491  0.6526
   10SAPS  C212 1257   1.489   6.950   7.993  0.7483 -1.0368 -0.4267
   10SAPS  H12R 1258   1.445   6.990   8.085  0.1008  0.5165 -1.3848
   10SAPS  C213 1259   1.386   6.918   7.887  0.0267 -0.2684  0.4101
   10SAPS  H13R 1260   1.324   6.829   7.908 -1.1359  0.7035  1.2128
   10SAPS  H13S 1261   1.443   6.906   7.792 -0.8014 -0.7223 -0.0424
   10SAPS  C214 1262   1.295   7.034   7.861  0.0898  0.1844 -0.2783
   10SAPS  H14R 1263   1.234   7.058   7.950 -1.0269 -2.2944 -0.2888
   10SAPS  C215 1264   1.277   7.111   7.756 -0.0125 -0.6046 -0.1201
   10SAPS  H15R 1265   1.195   7.183   7.745  1.2809  0.9095 -0.1931
   10SAPS  C216 1266   1.344   7.119   7.621  0.3913  0.2918 -0.0559
   10SAPS  H16R 1267   1.449   7.090   7.642  0.2213  0.0546  0.4656
   10SAPS  H16S 1268   1.345   7.221   7.577 -2.1433 -0.0057 -0.9755
   10SAPS  C217 1269   1.278   7.019   7.520 -0.1131  0.0110 -0.3015
   10SAPS  H17R 1270   1.168   7.035   7.521 -0.0879  1.1805  3.5679
   10SAPS  H17S 1271   1.299   6.913   7.547  2.3001  0.4231 -0.4216
   10SAPS  C218 1272   1.333   7.033   7.377  0.4011 -0.2095 -0.1107
   10SAPS  H18R 1273   1.443   7.023   7.368  0.3353  0.7787 -3.1931
   10SAPS  H18S 1274   1.315   7.138   7.343  0.3030  0.0222  0.6367
   10SAPS  C219 1275   1.277   6.929   7.282  0.5801  0.0095  0.0530
   10SAPS  H19R 1276   1.166   6.934   7.287  0.6631  4.5674  1.9122
   10SAPS  H19S 1277   1.291   6.822   7.309  0.2690 -0.3898 -1.2687
   10SAPS  C220 1278   1.320   6.962   7.140 -0.0247 -0.8561  0.4984
   10SAPS  H20R 1279   1.431   6.966   7.136 -0.0882  0.6960 -0.9435
   10SAPS  H20S 1280   1.295   7.069   7.125  1.8175 -0.5759 -0.8921
   10SAPS  H20T 1281   1.284   6.893   7.060  0.4811 -1.2704  0.6249
   10SAPS   C33 1282   1.549   7.284   7.131  0.8045  0.1923 -0.1914
   10SAPS   H3X 1283   1.498   7.206   7.193 -0.7921 -0.0668 -1.7578
   10SAPS   H3Y 1284   1.483   7.373   7.131  1.2583  0.5304  0.0762
   10SAPS   C34 1285   1.664   7.321   7.241 -0.7370 -0.3181  0.1709
   10SAPS   H4X 1286   1.734   7.395   7.196 -0.7224  0.0600  0.7994
   10SAPS   H4Y 1287   1.713   7.227   7.273  1.0843 -0.4253 -2.6275
   10SAPS   C35 1288   1.606   7.390   7.370  0.1229 -0.1955 -0.3790
   10SAPS   H5X 1289   1.543   7.331   7.441  1.4620  0.6759  1.6274
   10SAPS   H5Y 1290   1.540   7.474   7.338  2.0545  1.2243 -0.7696
   10SAPS   C36 1291   1.717   7.469   7.448  0.0503  0.3556  0.0135
   10SAPS   H6X 1292   1.748   7.548   7.376  0.8402 -0.1663 -0.2256
   10SAPS   H6Y 1293   1.810   7.417   7.478 -1.0011 -0.1966  2.6392
   10SAPS   C37 1294   1.664   7.533   7.579  0.1406  0.6239 -0.1806
   10SAPS   H7X 1295   1.566   7.581   7.558 -0.8053 -1.1240  0.0172
   10SAPS   H7Y 1296   1.742   7.601   7.616  0.3028  0.1453  0.3695
   10SAPS   C38 1297   1.650   7.419   7.695 -0.0692 -0.0916  0.6081
   10SAPS   H8X 1298   1.744   7.370   7.730  0.3140 -1.0435 -1.5879
   10SAPS   H8Y 1299   1.582   7.342   7.652 -1.0666  0.2000  1.6148
   10SAPS   C39 1300   1.559   7.461   7.804  0.0723  0.1343 -0.1495
   10SAPS   H9X 1301   1.459   7.491   7.765 -0.9564 -0.8110  1.6036
   10SAPS   H9Y 1302   1.586   7.556   7.854  1.1104 -0.6045  0.7406
   10SAPS  C310 1303   1.555   7.347   7.917  0.3488 -0.6789 -0.5427
   10SAPS  H10X 1304   1.661   7.328   7.945  0.9222  1.2018 -1.2465
   10SAPS  H10Y 1305   1.503   7.253   7.891  2.1094 -2.2992  1.4311
   10SAPS  C311 1306   1.479   7.411   8.044  0.2103  0.7697 -0.4445
   10SAPS  H11X 1307   1.524   7.511   8.063 -0.8006  1.6120 -2.2200
   10SAPS  H11Y 1308   1.493   7.333   8.121  1.3538  0.1487 -1.2526
   10SAPS  C312 1309   1.337   7.432   8.021  0.4180  0.2631  0.6157
   10SAPS  H12X 1310   1.307   7.341   7.964 -0.0268  0.7594  0.0548
   10SAPS  H12Y 1311   1.324   7.520   7.955  0.0813 -0.6575 -0.5848
   10SAPS  C313 1312   1.256   7.460   8.148  1.2730  0.4564 -0.7548
   10SAPS  H13X 1313   1.292   7.557   8.188  0.7528  0.0558  0.7393
   10SAPS  H13Y 1314   1.287   7.385   8.223 -2.2147 -0.3501  0.0633
   10SAPS  C314 1315   1.106   7.466   8.134 -0.3047  0.3570  0.3432
   10SAPS  H14X 1316   1.068   7.371   8.091  0.6967  0.2539 -0.3665
   10SAPS  H14Y 1317   1.080   7.546   8.062 -0.1057  0.6303  0.5710
   10SAPS  C315 1318   1.049   7.505   8.274  0.2134  0.3545 -0.7319
   10SAPS  H15X 1319   1.087   7.607   8.296 -1.8618  0.5696  2.5218
   10SAPS  H15Y 1320   1.092   7.442   8.355  0.6529  1.2528 -0.2594
   10SAPS  C316 1321   0.898   7.514   8.269  0.3237 -0.0822  0.1241
   10SAPS  H16X 1322   0.887   7.591   8.190 -0.5361 -0.5392 -0.2186
   10SAPS  H16Y 1323   0.875   7.563   8.366  2.6416  1.6568 -0.1073
   10SAPS  C317 1324   0.811   7.391   8.244 -0.0358 -0.2306  0.7210
   10SAPS  H17X 1325   0.855   7.309   8.305 -0.2372 -2.3562 -1.7860
   10SAPS  H17Y 1326   0.823   7.370   8.136 -1.3787  1.4057  0.2106
   10SAPS  C318 1327   0.665   7.429   8.276 -0.1195 -0.0752 -0.3557
   10SAPS  H18X 1328   0.634   7.498   8.195  0.2861 -1.3264 -1.6240
   10SAPS  H18Y 1329   0.652   7.467   8.380 -0.7095  4.0502 -1.7527
   10SAPS  H18Z 1330   0.608   7.333   8.277 -1.3374  0.5724  2.7293
   11SAPS     N 1331   4.879   6.593   5.615 -0.1950  0.6951  0.1531
   11SAPS   HN1 1332   4.868   6.670   5.684  1.6713  2.5519 -1.4718
   11SAPS   HN2 1333   4.977   6.564   5.594 -1.6835 -4.1117 -1.4383
   11SAPS   HN3 1334   4.836   6.626   5.527  1.7093  0.0523 -1.0939
   11SAPS   C12 1335   4.808   6.465   5.644  0.5667 -0.1951  0.2001
   11SAPS  H12A 1336   4.702   6.485   5.650  0.3419 -0.9499 -0.9911
   11SAPS   C13 1337   4.826   6.347   5.546 -0.0886  0.0111  0.3684
   11SAPS  O13A 1338   4.900   6.371   5.442  0.1713 -0.6188  0.8662
   11SAPS  O13B 1339   4.745   6.251   5.541 -0.2364  0.2191  0.3683
   11SAPS   C11 1340   4.850   6.420   5.789  0.0333  0.2976 -0.3702
   11SAPS  H11A 1341   4.792   6.328   5.812 -2.8415  1.7518 -1.3375
   11SAPS  H11B 1342   4.819   6.496   5.863 -2.3140 -1.7589  0.9278
   11SAPS     P 1343   5.091   6.456   5.875  0.1680  0.0276 -0.2309
   11SAPS   O13 1344   5.216   6.388   5.845  0.1894 -0.2187  0.5926
   11SAPS   O14 1345   5.087   6.598   5.829 -0.0536 -0.0573  0.4135
   11SAPS   O12 1346   4.989   6.393   5.786 -0.7372 -0.0669  0.9766
   11SAPS   O11 1347   5.056   6.446   6.031 -0.1299  0.2273  1.1075
   11SAPS    C1 1348   4.986   6.326   6.073 -0.4638  0.0695  0.2055
   11SAPS    HA 1349   4.880   6.339   6.042  0.9990  0.0382 -6.4747
   11SAPS    HB 1350   5.018   6.239   6.013  2.0940  0.9169  0.2220
   11SAPS    C2 1351   5.022   6.290   6.214  0.2687 -0.1629 -0.4464
   11SAPS    HS 1352   4.981   6.192   6.245  1.3916  0.0424  1.8831
   11SAPS   O21 1353   4.984   6.392   6.302 -0.4796  0.2679 -0.0126
   11SAPS   C21 1354   4.852   6.395   6.328  0.7056  0.4714 -0.1830
   11SAPS   O22 1355   4.771   6.317   6.282  0.4874  0.0448 -0.1198
   11SAPS   C22 1356   4.828   6.501   6.424  0.1246  0.7155 -0.1799
   11SAPS   H2R 1357   4.906   6.494   6.502  1.6682  1.2817 -1.6070
   11SAPS   H2S 1358   4.822   6.594   6.363  0.6808  0.4926 -0.5879
   11SAPS    C3 1359   5.175   6.260   6.229 -0.3855  0.3352 -0.3694
   11SAPS    HX 1360   5.239   6.331   6.173  0.8887  0.7333  1.4972
   11SAPS    HY 1361   5.193   6.160   6.185  1.1096  1.0085 -1.3760
   11SAPS   O31 1362   5.219   6.266   6.368 -0.2763 -0.6020 -0.5502
   11SAPS   C31 1363   5.175   6.172   6.454 -0.0481  0.4293  0.6335
   11SAPS   O32 1364   5.096   6.084   6.426 -0.0258  0.1952 -0.4478
   11SAPS   C32 1365   5.235   6.201   6.589  0.1341 -0.0159 -0.3121
   11SAPS   H2X 1366   5.264   6.308   6.592  2.4017 -0.5990  0.0195
   11SAPS   H2Y 1367   5.328   6.141   6.590 -0.1563 -0.4669  0.0285
   11SAPS   C23 1368   4.691   6.482   6.489 -0.6925  0.2341 -0.1687
   11SAPS   H3R 1369   4.691   6.385   6.543  0.7836  0.8505  1.0034
   11SAPS   H3S 1370   4.615   6.478   6.408 -0.8181 -0.3144 -0.0271
   11SAPS   C24 1371   4.660   6.596   6.588  0.4798 -0.3611 -0.0783
   11SAPS   H4R 1372   4.602   6.673   6.533 -0.1549 -0.2068  0.7844
   11SAPS   H4S 1373   4.755   6.637   6.627  0.0978  0.0674  0.4153
   11SAPS   C25 1374   4.558   6.548   6.694  0.1786 -0.4513 -0.4039
   11SAPS   H5R 1375   4.452   6.534   6.668 -0.1775  1.5861 -0.1931
   11SAPS   C26 1376   4.593   6.514   6.821  0.1482  0.1214  0.3013
   11SAPS   H6R 1377   4.512   6.487   6.890  0.8679 -0.9456  0.7652
   11SAPS   C27 1378   4.727   6.517   6.885  0.6453  0.1632  0.3587
   11SAPS   H7R 1379   4.810   6.543   6.816  0.7324  3.6014  1.6225
   11SAPS   H7S 1380   4.737   6.413   6.924 -0.2006  0.2581  0.8499
   11SAPS   C28 1381   4.727   6.620   6.996 -0.2054  0.8071  0.4075
   11SAPS   H8R 1382   4.739   6.724   6.963  2.5339 -0.4482 -3.1307
   11SAPS   C29 1383   4.697   6.600   7.127 -0.1594  0.1481  0.6055
   11SAPS   H9R 1384   4.694   6.684   7.197  1.0334  0.5639  0.1918
   11SAPS  C210 1385   4.674   6.475   7.202  0.0248 -0.0093 -0.1231
   11SAPS  H10R 1386   4.692   6.383   7.141  1.2972  0.0676  0.1056
   11SAPS  H10S 1387   4.564   6.473   7.218  0.1817  0.5685  1.1694
   11SAPS  C211 1388   4.759   6.457   7.323 -0.0697  0.5176  0.0032
   11SAPS  H11R 1389   4.865   6.436   7.302 -0.4993  0.8702 -2.9514
   11SAPS  C212 1390   4.723   6.445   7.450  0.0525 -0.3618 -0.9574
   11SAPS  H12R 1391   4.794   6.434   7.533 -2.1976 -2.3542  0.8559
   11SAPS  C213 1392   4.582   6.453   7.501  0.2873  0.0885 -0.0842
   11SAPS  H13R 1393   4.587   6.398   7.597  3.1965  0.1880 -0.1103
   11SAPS  H13S 1394   4.518   6.396   7.430 -0.9617  2.9841 -1.4442
   11SAPS  C214 1395   4.521   6.591   7.513 -0.3073  0.0691  0.0516
   11SAPS  H14R 1396   4.473   6.625   7.420 -3.4871  0.4728  1.7027
   11SAPS  C215 1397   4.495   6.666   7.619  0.1579  0.4490 -0.3124
   11SAPS  H15R 1398   4.452   6.766   7.608 -1.3230 -0.1864 -0.5208
   11SAPS  C216 1399   4.532   6.626   7.763  0.3588  0.8973  0.5700
   11SAPS  H16R 1400   4.574   6.712   7.818 -1.1022  1.1203  1.4027
   11SAPS  H16S 1401   4.613   6.551   7.752 -0.6346 -0.0041 -0.9622
   11SAPS  C217 1402   4.407   6.567   7.839  0.8970  0.9420 -0.1239
   11SAPS  H17R 1403   4.395   6.461   7.808 -0.0174  0.8654  0.4872
   11SAPS  H17S 1404   4.315   6.619   7.805  0.5897  1.3353  1.2550
   11SAPS  C218 1405   4.421   6.572   7.997  0.2221  0.1154 -0.5842
   11SAPS  H18R 1406   4.372   6.665   8.034 -0.1133 -0.7070  1.1678
   11SAPS  H18S 1407   4.529   6.582   8.020  0.2192  0.1549 -0.5864
   11SAPS  C219 1408   4.376   6.446   8.077  0.8408 -0.6149 -0.0206
   11SAPS  H19R 1409   4.438   6.446   8.168 -0.4562  0.3901  0.9021
   11SAPS  H19S 1410   4.417   6.358   8.023  1.0875 -0.7766  0.4282
   11SAPS  C220 1411   4.226   6.435   8.108 -0.1792 -0.0931  0.2198
   11SAPS  H20R 1412   4.157   6.460   8.025 -0.0159 -0.3838 -0.0031
   11SAPS  H20S 1413   4.194   6.509   8.186  0.6486 -0.4335  0.9015
   11SAPS  H20T 1414   4.203   6.333   8.144 -0.1997  0.1775  1.0077
   11SAPS   C33 1415   5.157   6.162   6.714 -0.1117 -0.2015 -0.1684
   11SAPS   H3X 1416   5.160   6.051   6.725 -0.3483 -0.1948 -0.0337
   11SAPS   H3Y 1417   5.050   6.191   6.698 -0.4470 -1.0815  0.3846
   11SAPS   C34 1418   5.218   6.216   6.846  0.2958  0.9999 -0.4163
   11SAPS   H4X 1419   5.267   6.315   6.833  1.3536  0.4680 -0.5685
   11SAPS   H4Y 1420   5.300   6.146   6.873 -0.4142  1.3843  3.2046
   11SAPS   C35 1421   5.106   6.241   6.955  0.3728  0.1292 -0.6186
   11SAPS   H5X 1422   5.024   6.310   6.925  1.4303  2.0390  0.6485
   11SAPS   H5Y 1423   5.152   6.287   7.045  0.9859 -0.3042 -0.7048
   11SAPS   C36 1424   5.051   6.112   7.020  0.0812  0.0575  0.3546
   11SAPS   H6X 1425   5.131   6.076   7.088  0.2510 -0.6691 -0.2102
   11SAPS   H6Y 1426   5.018   6.029   6.953  1.0066 -1.0013  1.1675
   11SAPS   C37 1427   4.925   6.146   7.103 -0.4336  0.1660  0.8260
   11SAPS   H7X 1428   4.837   6.167   7.040  0.0171  1.6797  0.6531
   11SAPS   H7Y 1429   4.938   6.245   7.152  0.9467  0.4061  0.0394
   11SAPS   C38 1430   4.888   6.040   7.207  0.2191  0.8322 -0.1428
   11SAPS   H8X 1431   4.983   6.005   7.252 -0.8906 -1.9962  0.2150
   11SAPS   H8Y 1432   4.845   5.953   7.152  0.3703  0.0330  0.9571
   11SAPS   C39 1433   4.790   6.090   7.314 -0.3545  0.2822  0.8486
   11SAPS   H9X 1434   4.692   6.110   7.266 -0.3408 -2.4089 -0.4688
   11SAPS   H9Y 1435   4.827   6.182   7.364 -1.5623  2.1915 -1.5710
   11SAPS  C310 1436   4.751   5.992   7.429 -0.3285 -0.1943 -0.2828
   11SAPS  H10X 1437   4.844   5.969   7.486 -0.6479  0.2373  0.4273
   11SAPS  H10Y 1438   4.730   5.891   7.389 -0.2822 -0.2222 -0.2391
   11SAPS  C311 1439   4.647   6.050   7.525  0.0559  0.0658 -0.1306
   11SAPS  H11X 1440   4.557   6.090   7.473  1.6451  1.0854 -2.2412
   11SAPS  H11Y 1441   4.688   6.132   7.587 -0.0645  1.0165 -1.2682
   11SAPS  C312 1442   4.590   5.938   7.617  0.1134  0.8992 -0.4765
   11SAPS  H12X 1443   4.549   5.870   7.539  3.0001  0.0774 -1.4310
   11SAPS  H12Y 1444   4.511   5.972   7.687 -0.3754 -0.9360 -0.0674
   11SAPS  C313 1445   4.697   5.868   7.710 -0.4544  0.7099  0.9292
   11SAPS  H13X 1446   4.751   5.948   7.766 -1.2765  0.8141  1.5812
   11SAPS  H13Y 1447   4.768   5.815   7.642  1.2392  1.5485  1.9597
   11SAPS  C314 1448   4.629   5.758   7.802 -0.3214 -0.8022  0.8903
   11SAPS  H14X 1449   4.592   5.677   7.736 -1.3307  0.6851 -0.4429
   11SAPS  H14Y 1450   4.536   5.799   7.846  0.1431  3.4389 -1.5565
   11SAPS  C315 1451   4.723   5.694   7.907  0.5086  0.2118  0.5949
   11SAPS  H15X 1452   4.807   5.653   7.847 -0.7900 -0.7850 -0.6144
   11SAPS  H15Y 1453   4.666   5.607   7.944 -2.3090  0.8208 -1.8419
   11SAPS  C316 1454   4.761   5.796   8.011 -0.2636  0.2403 -0.2732
   11SAPS  H16X 1455   4.676   5.831   8.073 -0.0652  2.0097 -0.9321
   11SAPS  H16Y 1456   4.802   5.891   7.969 -1.6646  1.5182  1.1343
   11SAPS  C317 1457   4.878   5.739   8.101  0.0557 -1.0526  0.0879
   11SAPS  H17X 1458   4.951   5.697   8.029  0.6399 -1.2284  0.7818
   11SAPS  H17Y 1459   4.833   5.664   8.169 -1.5967 -1.4887 -1.4066
   11SAPS  C318 1460   4.947   5.840   8.193  0.4444  0.6754 -0.2301
   11SAPS  H18X 1461   4.975   5.931   8.136  3.5065 -0.9540 -1.5316
   11SAPS  H18Y 1462   5.038   5.786   8.227 -0.4310 -1.5358 -1.2239
   11SAPS  H18Z 1463   4.881   5.859   8.281 -0.6592 -3.3591  0.0015
   12SAPS     N 1464   4.384   6.778   5.711  0.0967  0.2216  0.0878
   12SAPS   HN1 1465   4.295   6.810   5.756 -0.1581 -1.7777  1.1021
   12SAPS   HN2 1466   4.408   6.850   5.639 -0.4992  1.6937  1.3004
   12SAPS   HN3 1467   4.366   6.682   5.675 -0.3904  0.4651 -0.3335
   12SAPS   C12 1468   4.499   6.767   5.809  0.4498  0.2237  0.8407
   12SAPS  H12A 1469   4.486   6.675   5.864  1.9379 -0.0621  0.7441
   12SAPS   C13 1470   4.647   6.778   5.757 -0.3956 -0.1703  0.1900
   12SAPS  O13A 1471   4.652   6.805   5.631 -0.1427  0.2223  0.2674
   12SAPS  O13B 1472   4.744   6.737   5.823 -0.2637  0.6419 -0.6409
   12SAPS   C11 1473   4.475   6.878   5.911 -0.5059  0.4103 -0.1593
   12SAPS  H11A 1474   4.562   6.880   5.980  2.5490  1.2357 -3.7158
   12SAPS  H11B 1475   4.383   6.853   5.968  0.2361  1.0604  1.3812
   12SAPS     P 1476   4.444   7.148   5.920  0.1471 -0.4537  0.1700
   12SAPS   O13 1477   4.565   7.233   5.913  0.5735 -0.2620  0.0913
   12SAPS   O14 1478   4.317   7.204   5.865  0.1406  0.4966 -0.2838
   12SAPS   O12 1479   4.464   7.007   5.853 -0.6792 -0.4941 -0.0843
   12SAPS   O11 1480   4.427   7.099   6.061  0.2967  0.3956 -0.3629
   12SAPS    C1 1481   4.534   7.127   6.153  0.1099  0.4589  0.3689
   12SAPS    HA 1482   4.634   7.139   6.107  0.7711 -2.0606  0.9802
   12SAPS    HB 1483   4.514   7.227   6.197  1.2691  0.9367 -0.1353
   12SAPS    C2 1484   4.545   7.015   6.256  0.1186 -0.1722  0.5888
   12SAPS    HS 1485   4.579   6.928   6.196 -0.5452 -0.9640  1.3295
   12SAPS   O21 1486   4.413   6.994   6.308  0.1030  0.0649  0.3911
   12SAPS   C21 1487   4.387   6.886   6.374  0.3254 -0.7097  0.6279
   12SAPS   O22 1488   4.451   6.783   6.361  0.3988 -0.3003 -0.0507
   12SAPS   C22 1489   4.277   6.912   6.473 -0.5041  0.5641 -0.4724
   12SAPS   H2R 1490   4.287   7.018   6.506  4.1217 -0.0743  0.8426
   12SAPS   H2S 1491   4.173   6.897   6.436 -0.4801 -0.7789 -0.0367
   12SAPS    C3 1492   4.649   7.057   6.366 -0.1421  0.1611  0.3074
   12SAPS    HX 1493   4.745   7.066   6.312  0.4395 -3.2490  0.5251
   12SAPS    HY 1494   4.663   6.971   6.435 -0.0305 -0.3485 -0.3439
   12SAPS   O31 1495   4.603   7.170   6.441  0.2115 -0.1569 -0.6693
   12SAPS   C31 1496   4.695   7.219   6.522 -0.1716 -0.3483  0.2403
   12SAPS   O32 1497   4.808   7.184   6.537 -0.6062  0.3965 -0.7841
   12SAPS   C32 1498   4.632   7.346   6.574 -0.2548  0.1980 -0.4145
   12SAPS   H2X 1499   4.521   7.350   6.565 -0.4457 -1.1996  0.8977
   12SAPS   H2Y 1500   4.655   7.416   6.491  1.3730  1.6627  1.1912
   12SAPS   C23 1501   4.267   6.819   6.599 -0.4011  0.1099 -0.4636
   12SAPS   H3R 1502   4.287   6.716   6.560 -1.7576 -0.1675 -0.4552
   12SAPS   H3S 1503   4.170   6.821   6.653 -0.4488  0.7699 -0.5662
   12SAPS   C24 1504   4.376   6.863   6.704  0.3536  0.1299  0.4867
   12SAPS   H4R 1505   4.466   6.884   6.643 -0.5300 -2.1915 -1.7874
   12SAPS   H4S 1506   4.389   6.765   6.755  2.1956 -0.0191 -0.1887
   12SAPS   C25 1507   4.342   6.977   6.802 -0.3821  0.1847 -0.0085
   12SAPS   H5R 1508   4.259   7.041   6.768  0.1277  0.3267 -1.0465
   12SAPS   C26 1509   4.378   6.987   6.925  0.6244  0.3185  0.1873
   12SAPS   H6R 1510   4.337   7.067   6.989  1.2079  0.7821 -0.0029
   12SAPS   C27 1511   4.475   6.894   6.999 -0.1412 -0.6473 -0.4418
   12SAPS   H7R 1512   4.515   6.833   6.915 -3.7839  0.6068 -3.4212
   12SAPS   H7S 1513   4.424   6.833   7.076 -1.8948 -0.2165 -1.1938
   12SAPS   C28 1514   4.590   6.981   7.042 -0.3434  0.1475 -0.3055
   12SAPS   H8R 1515   4.661   7.016   6.966  1.7202  0.3625  1.6125
   12SAPS   C29 1516   4.610   7.026   7.164 -0.0972 -0.2186  0.1039
   12SAPS   H9R 1517   4.702   7.082   7.189 -0.2878 -0.1848  0.7418
   12SAPS  C210 1518   4.518   7.012   7.284 -0.2816 -0.0184  0.5085
   12SAPS  H10R 1519   4.478   6.909   7.291  1.0252 -0.4818  1.2261
   12SAPS  H10S 1520   4.433   7.084   7.270 -0.0037 -0.0751 -1.9229
   12SAPS  C211 1521   4.579   7.019   7.418  0.5082  0.3467 -0.3502
   12SAPS  H11R 1522   4.680   6.977   7.425  0.2961 -0.0039  0.7767
   12SAPS  C212 1523   4.523   7.064   7.531  0.0155 -0.0046 -0.4564
   12SAPS  H12R 1524   4.579   7.055   7.626 -0.8151  3.3228  0.5016
   12SAPS  C213 1525   4.378   7.109   7.547  0.3271  0.3177 -0.7292
   12SAPS  H13R 1526   4.320   7.019   7.578 -1.8272  1.3258 -1.6145
   12SAPS  H13S 1527   4.317   7.138   7.459 -1.1680  0.4744  0.3240
   12SAPS  C214 1528   4.369   7.205   7.668 -0.3825 -0.2868  0.4754
   12SAPS  H14R 1529   4.358   7.308   7.631 -0.8895 -0.7616 -0.7748
   12SAPS  C215 1530   4.380   7.182   7.798 -0.3673 -0.2566 -0.1524
   12SAPS  H15R 1531   4.373   7.263   7.871 -2.8575 -2.2973  2.0821
   12SAPS  C216 1532   4.393   7.049   7.874 -0.0851 -0.7259 -0.2055
   12SAPS  H16R 1533   4.420   6.956   7.819  0.4758 -1.5264  1.3628
   12SAPS  H16S 1534   4.296   7.033   7.927  0.2566  1.4699  1.1999
   12SAPS  C217 1535   4.476   7.062   7.999 -0.4088 -0.8724  0.1130
   12SAPS  H17R 1536   4.431   7.143   8.060  0.8665  1.2046 -1.5599
   12SAPS  H17S 1537   4.575   7.102   7.969 -1.5833  1.1039 -1.3204
   12SAPS  C218 1538   4.509   6.935   8.077 -0.7287 -0.1773  0.7630
   12SAPS  H18R 1539   4.552   6.867   8.000  0.3247  2.5190 -1.2008
   12SAPS  H18S 1540   4.415   6.897   8.123 -1.3271  0.9250  0.4898
   12SAPS  C219 1541   4.613   6.958   8.194  0.2534  0.0146 -0.3427
   12SAPS  H19R 1542   4.707   7.007   8.162  2.6032 -2.8269  1.7021
   12SAPS  H19S 1543   4.653   6.862   8.234 -0.0666  0.5447  1.3284
   12SAPS  C220 1544   4.545   7.040   8.310 -0.6449  0.1159 -0.6518
   12SAPS  H20R 1545   4.458   6.998   8.365  1.7974 -0.8384  2.7794
   12SAPS  H20S 1546   4.521   7.138   8.264  2.9090  1.6462  0.3839
   12SAPS  H20T 1547   4.623   7.075   8.381 -0.6565  0.6223 -0.8812
   12SAPS   C33 1548   4.690   7.407   6.705 -0.2824 -0.5592  0.0620
   12SAPS   H3X 1549   4.682   7.517   6.692 -2.0721 -0.7575 -0.9768
   12SAPS   H3Y 1550   4.799   7.390   6.705 -0.3274 -1.1328  2.1125
   12SAPS   C34 1551   4.626   7.326   6.824  0.1499 -0.1434  1.3245
   12SAPS   H4X 1552   4.693   7.333   6.913 -0.4147  0.1393  1.7360
   12SAPS   H4Y 1553   4.621   7.220   6.792  0.7781  0.0146  0.6651
   12SAPS   C35 1554   4.476   7.373   6.849 -0.5982 -0.8027  0.4288
   12SAPS   H5X 1555   4.457   7.327   6.948 -0.0937  1.1209  1.4441
   12SAPS   H5Y 1556   4.407   7.327   6.775 -1.6565 -0.3120  1.0872
   12SAPS   C36 1557   4.455   7.528   6.847 -0.5708 -0.1768 -0.7159
   12SAPS   H6X 1558   4.476   7.572   6.748 -2.3088  0.0343 -1.0360
   12SAPS   H6Y 1559   4.513   7.581   6.925 -1.4273  0.3585 -0.4206
   12SAPS   C37 1560   4.305   7.563   6.889 -0.1278  0.3095 -0.1472
   12SAPS   H7X 1561   4.287   7.540   6.996 -0.7701 -1.0959 -0.5347
   12SAPS   H7Y 1562   4.252   7.487   6.827  2.6953  0.3886 -2.8794
   12SAPS   C38 1563   4.278   7.712   6.864 -0.2286 -1.1456 -0.4731
   12SAPS   H8X 1564   4.170   7.729   6.885  0.1243  0.2008  0.4426
   12SAPS   H8Y 1565   4.295   7.745   6.759  3.3929 -2.5197 -0.4527
   12SAPS   C39 1566   4.356   7.795   6.969 -0.0909 -0.7874  0.0840
   12SAPS   H9X 1567   4.464   7.783   6.947  0.3735 -0.8808  2.1870
   12SAPS   H9Y 1568   4.356   7.761   7.075  1.3923  2.0971  1.1121
   12SAPS  C310 1569   4.318   7.945   6.959  0.5449  0.7640  0.0615
   12SAPS  H10X 1570   4.208   7.952   6.974  0.2395  1.1798 -2.1467
   12SAPS  H10Y 1571   4.333   7.977   6.854 -1.7827  0.2220 -0.5086
   12SAPS  C311 1572   4.394   8.032   7.051  0.1256  0.0181 -0.0187
   12SAPS  H11X 1573   4.374   8.134   7.011 -0.7082  0.3382  1.1643
   12SAPS  H11Y 1574   4.504   8.012   7.055  0.0052 -0.9781 -1.1303
   12SAPS  C312 1575   4.356   8.008   7.198 -0.3359 -0.4322  0.2712
   12SAPS  H12X 1576   4.401   7.913   7.235  0.8037  0.2166  0.5907
   12SAPS  H12Y 1577   4.245   7.996   7.193 -0.1241 -2.7446 -0.0373
   12SAPS  C313 1578   4.396   8.122   7.285 -0.0867 -0.4517  0.3143
   12SAPS  H13X 1579   4.352   8.215   7.243  0.3353 -1.5613 -2.8778
   12SAPS  H13Y 1580   4.507   8.127   7.280  0.0123 -1.1954  1.4257
   12SAPS  C314 1581   4.360   8.096   7.428  0.1377 -0.1099 -0.5744
   12SAPS  H14X 1582   4.406   7.997   7.447  0.8793  0.2805 -0.2757
   12SAPS  H14Y 1583   4.250   8.085   7.434  0.0296  0.1617 -1.8618
   12SAPS  C315 1584   4.403   8.208   7.521 -0.7235 -0.0822  0.1371
   12SAPS  H15X 1585   4.344   8.299   7.497 -0.6751 -0.3583 -1.1051
   12SAPS  H15Y 1586   4.512   8.225   7.507 -0.2250  0.0608  3.3571
   12SAPS  C316 1587   4.373   8.172   7.672  0.2969  0.4232 -0.3313
   12SAPS  H16X 1588   4.416   8.079   7.716 -1.6762  0.8695  2.8870
   12SAPS  H16Y 1589   4.262   8.161   7.674  0.1869  1.4342 -0.6948
   12SAPS  C317 1590   4.424   8.266   7.777 -0.4104  0.4410  0.5464
   12SAPS  H17X 1591   4.387   8.370   7.764  0.0206  0.7091  1.3889
   12SAPS  H17Y 1592   4.534   8.271   7.765  0.0183 -4.3060  0.5774
   12SAPS  C318 1593   4.393   8.230   7.921 -0.2436  0.7333  0.4496
   12SAPS  H18X 1594   4.408   8.121   7.934 -2.5570  0.2878 -0.0456
   12SAPS  H18Y 1595   4.289   8.256   7.954 -0.7039  1.3973 -1.4214
   12SAPS  H18Z 1596   4.458   8.278   7.998 -2.1084  0.7531  2.1145
   13SAPS     N 1597   4.169   2.147   6.005  0.5782 -0.0658 -0.3425
   13SAPS   HN1 1598   4.183   2.228   5.940  2.8399 -1.1835 -1.3486
   13SAPS   HN2 1599   4.264   2.105   6.012  1.2412  1.3584 -0.3035
   13SAPS   HN3 1600   4.116   2.080   5.947 -1.5832  2.4515 -1.4826
   13SAPS   C12 1601   4.109   2.171   6.140 -0.4921  0.2837  0.0826
   13SAPS  H12A 1602   4.178   2.236   6.191 -0.6997  1.2506 -0.8418
   13SAPS   C13 1603   3.971   2.238   6.150 -0.1778  0.2498  0.1849
   13SAPS  O13A 1604   3.922   2.293   6.041 -0.3300  0.5918 -0.1308
   13SAPS  O13B 1605   3.934   2.277   6.265 -0.3140  0.4403  0.0322
   13SAPS   C11 1606   4.104   2.032   6.216 -0.2829 -0.1102 -0.1383
   13SAPS  H11A 1607   4.067   2.049   6.319 -1.5473  0.3137 -0.6496
   13SAPS  H11B 1608   4.208   1.994   6.223 -0.1725  0.1923 -0.1384
   13SAPS     P 1609   4.005   1.789   6.229 -0.0593  0.1877  0.8066
   13SAPS   O13 1610   3.861   1.759   6.223  0.5145 -1.4489 -0.3310
   13SAPS   O14 1611   4.102   1.704   6.164 -0.1756 -0.0147  0.5900
   13SAPS   O12 1612   4.019   1.930   6.158  0.1719 -0.5414  0.3992
   13SAPS   O11 1613   4.046   1.815   6.377 -0.2635 -0.0451  0.0546
   13SAPS    C1 1614   4.178   1.806   6.431 -0.9814 -0.3038  0.3824
   13SAPS    HA 1615   4.205   1.701   6.403 -2.0304  0.1136 -2.4905
   13SAPS    HB 1616   4.251   1.874   6.382 -2.8151 -0.4802 -2.8793
   13SAPS    C2 1617   4.179   1.831   6.582  0.6528 -0.3773 -0.7554
   13SAPS    HS 1618   4.281   1.807   6.618  0.8690 -0.8367 -1.6409
   13SAPS   O21 1619   4.090   1.743   6.654  0.4434 -0.3906  0.1293
   13SAPS   C21 1620   4.147   1.631   6.700 -0.3168  0.3815  0.6809
   13SAPS   O22 1621   4.259   1.589   6.677  0.2108 -0.0320 -0.1113
   13SAPS   C22 1622   4.046   1.549   6.778 -0.2246 -0.3517 -0.0266
   13SAPS   H2R 1623   3.960   1.609   6.816 -0.3074 -0.9417  0.7375
   13SAPS   H2S 1624   4.018   1.456   6.725 -2.3923  0.8695 -1.1460
   13SAPS    C3 1625   4.141   1.979   6.621 -0.0359  0.6684  0.1500
   13SAPS    HX 1626   4.042   2.011   6.584 -0.9470 -1.7065  0.3512
   13SAPS    HY 1627   4.212   2.038   6.559  0.0746  0.6290  0.2362
   13SAPS   O31 1628   4.163   2.011   6.761  0.3502 -0.1601  0.1897
   13SAPS   C31 1629   4.063   2.000   6.845  0.3384 -0.0646  0.0192
   13SAPS   O32 1630   3.946   1.980   6.815  0.9765  0.2482  0.4735
   13SAPS   C32 1631   4.122   2.024   6.986 -0.6447  0.4675  0.4387
   13SAPS   H2X 1632   4.232   2.045   6.983 -0.5733  0.3102  1.5041
   13SAPS   H2Y 1633   4.103   1.930   7.042 -0.8593  1.1494  1.5458
   13SAPS   C23 1634   4.108   1.496   6.910  0.4727 -0.1489 -0.0057
   13SAPS   H3R 1635   4.210   1.453   6.905  1.2377  1.2108  2.3609
   13SAPS   H3S 1636   4.059   1.403   6.947  0.8963  0.2937  1.7814
   13SAPS   C24 1637   4.093   1.595   7.020 -0.2974 -0.5025 -0.1047
   13SAPS   H4R 1638   3.986   1.619   7.034 -0.6336 -0.7736 -1.9871
   13SAPS   H4S 1639   4.148   1.687   6.993 -0.5342 -0.7883 -1.6405
   13SAPS   C25 1640   4.151   1.558   7.152  0.0451 -0.3567 -0.2871
   13SAPS   H5R 1641   4.229   1.481   7.142  0.6998  0.1014  1.0852
   13SAPS   C26 1642   4.109   1.591   7.276  0.0309 -0.2874  0.0546
   13SAPS   H6R 1643   4.162   1.554   7.365  2.0051  2.3258  0.1122
   13SAPS   C27 1644   3.984   1.664   7.305  0.0139 -0.1941 -0.4951
   13SAPS   H7R 1645   3.923   1.605   7.376  0.0337 -0.5357 -0.7630
   13SAPS   H7S 1646   3.919   1.687   7.218 -0.0748  1.4072 -0.0362
   13SAPS   C28 1647   4.030   1.794   7.363 -0.5640 -0.4082 -0.9553
   13SAPS   H8R 1648   4.098   1.856   7.303  3.7470  0.8392  4.3841
   13SAPS   C29 1649   4.007   1.832   7.492  0.6019 -0.4644 -0.5442
   13SAPS   H9R 1650   4.043   1.931   7.525 -1.5984  0.1039  0.3036
   13SAPS  C210 1651   3.926   1.745   7.594 -0.5376  0.2865 -0.2029
   13SAPS  H10R 1652   3.999   1.671   7.632 -1.3218 -0.2912  0.2290
   13SAPS  H10S 1653   3.853   1.689   7.531 -0.2366 -0.8907  0.4534
   13SAPS  C211 1654   3.862   1.841   7.690 -0.3801 -0.6090 -0.0916
   13SAPS  H11R 1655   3.813   1.927   7.642 -0.1594 -0.6269 -0.3502
   13SAPS  C212 1656   3.870   1.814   7.821 -0.8396 -0.2129 -0.1207
   13SAPS  H12R 1657   3.817   1.889   7.882 -0.0720  0.2041  0.0505
   13SAPS  C213 1658   3.940   1.710   7.897  0.6419  0.6619  0.2626
   13SAPS  H13R 1659   4.047   1.714   7.868  0.7181  1.2678  0.6186
   13SAPS  H13S 1660   3.904   1.609   7.865  0.9347  0.6740 -0.1171
   13SAPS  C214 1661   3.920   1.731   8.045  0.7209 -0.0823 -0.3297
   13SAPS  H14R 1662   3.851   1.814   8.067  1.9858  0.8562  0.2669
   13SAPS  C215 1663   3.991   1.673   8.144  0.2270  0.4744  0.0457
   13SAPS  H15R 1664   3.991   1.710   8.248  0.7335 -1.5001  0.7957
   13SAPS  C216 1665   4.089   1.571   8.103 -0.5229  0.1989  0.9395
   13SAPS  H16R 1666   4.153   1.601   8.017  1.1629 -2.3777  1.1958
   13SAPS  H16S 1667   4.049   1.470   8.081  0.8185  0.3242 -2.6846
   13SAPS  C217 1668   4.204   1.548   8.203  0.1837 -0.3874  0.0647
   13SAPS  H17R 1669   4.249   1.646   8.231 -0.3089 -0.4763  1.2218
   13SAPS  H17S 1670   4.287   1.488   8.160 -0.1420  1.2134 -3.0276
   13SAPS  C218 1671   4.156   1.489   8.337  0.0392 -0.0603 -0.7259
   13SAPS  H18R 1672   4.118   1.386   8.319  0.6558 -0.2119 -1.1732
   13SAPS  H18S 1673   4.069   1.546   8.375 -0.2383 -1.3954  0.7636
   13SAPS  C219 1674   4.270   1.492   8.433  0.2232  0.3245  0.0626
   13SAPS  H19R 1675   4.287   1.592   8.479  0.9619 -0.0328  0.5772
   13SAPS  H19S 1676   4.360   1.468   8.373  0.7941 -0.7040  1.2884
   13SAPS  C220 1677   4.273   1.386   8.546  0.5602  0.6305  0.3549
   13SAPS  H20R 1678   4.180   1.393   8.605 -1.5846 -2.1008 -2.3616
   13SAPS  H20S 1679   4.362   1.408   8.608  0.8179  0.0280  0.2014
   13SAPS  H20T 1680   4.277   1.286   8.498  0.2299  0.9471 -0.3487
   13SAPS   C33 1681   4.062   2.153   7.051  0.8396  0.0778  0.0777
   13SAPS   H3X 1682   3.951   2.150   7.049  0.8630 -0.3576 -0.7477
   13SAPS   H3Y 1683   4.102   2.242   6.999  0.5257 -0.4036 -1.0184
   13SAPS   C34 1684   4.113   2.162   7.189 -0.3161  0.2203 -0.5944
   13SAPS   H4X 1685   4.218   2.130   7.206  0.0928  2.3752  1.4695
   13SAPS   H4Y 1686   4.047   2.102   7.255  0.1568 -1.6306 -1.7083
   13SAPS   C35 1687   4.116   2.300   7.256 -0.1747  0.1073  0.4603
   13SAPS   H5X 1688   4.015   2.345   7.245 -0.5845 -1.1383 -1.2455
   13SAPS   H5Y 1689   4.189   2.372   7.212 -0.9737  0.4832 -0.2629
   13SAPS   C36 1690   4.152   2.295   7.405  0.0882 -0.1397  0.1963
   13SAPS   H6X 1691   4.193   2.393   7.435 -0.4706 -0.0907  0.8326
   13SAPS   H6Y 1692   4.218   2.207   7.421 -2.3282 -1.7270  2.2505
   13SAPS   C37 1693   4.029   2.271   7.500 -0.5526 -0.6341 -0.0829
   13SAPS   H7X 1694   3.982   2.173   7.476 -1.4651 -0.6568  1.6127
   13SAPS   H7Y 1695   3.964   2.356   7.471 -1.7830 -1.6671 -0.4616
   13SAPS   C38 1696   4.068   2.270   7.651 -0.3580  0.1179 -0.6946
   13SAPS   H8X 1697   4.103   2.369   7.686 -1.7107  0.0306  1.0087
   13SAPS   H8Y 1698   4.151   2.196   7.655 -0.6036 -0.3757 -3.1544
   13SAPS   C39 1699   3.944   2.225   7.732  0.3856  0.6139 -0.1494
   13SAPS   H9X 1700   3.908   2.121   7.719 -1.2798  0.9387  1.4529
   13SAPS   H9Y 1701   3.859   2.293   7.708  1.2663  2.3142  1.2766
   13SAPS  C310 1702   3.953   2.232   7.881  0.4018  0.2760  0.0643
   13SAPS  H10X 1703   3.858   2.190   7.921 -0.8772  3.0048  0.0960
   13SAPS  H10Y 1704   3.963   2.336   7.917  1.8324 -0.1212  0.9083
   13SAPS  C311 1705   4.074   2.147   7.938 -0.3079  0.0175  0.2079
   13SAPS  H11X 1706   4.169   2.197   7.910 -0.8384  1.0485  0.2062
   13SAPS  H11Y 1707   4.065   2.049   7.886  1.2615 -0.3677  0.5981
   13SAPS  C312 1708   4.061   2.141   8.086 -0.0748  1.0272 -0.4826
   13SAPS  H12X 1709   3.955   2.119   8.113  0.4898 -0.4275  0.6875
   13SAPS  H12Y 1710   4.093   2.239   8.126 -0.3932  1.5873 -1.5807
   13SAPS  C313 1711   4.147   2.031   8.144  0.2249  0.5495  0.2874
   13SAPS  H13X 1712   4.254   2.040   8.118  0.2058 -0.7346 -0.3256
   13SAPS  H13Y 1713   4.114   1.930   8.112  1.6022  0.7800 -2.0923
   13SAPS  C314 1714   4.137   2.057   8.301  0.0704  0.4950  0.2238
   13SAPS  H14X 1715   4.032   2.032   8.329  0.3073 -2.0401 -0.8863
   13SAPS  H14Y 1716   4.163   2.161   8.327  0.6487  0.4221 -0.0359
   13SAPS  C315 1717   4.225   1.956   8.380  0.6825 -0.4029 -0.0122
   13SAPS  H15X 1718   4.223   1.861   8.324  2.3013 -0.9709  0.8377
   13SAPS  H15Y 1719   4.177   1.938   8.479  1.0213 -0.3496  0.1615
   13SAPS  C316 1720   4.364   1.995   8.407 -0.5118 -0.1942 -0.0380
   13SAPS  H16X 1721   4.378   2.084   8.473  0.3792 -0.3929  0.0538
   13SAPS  H16Y 1722   4.422   2.011   8.314 -1.7781  0.6136 -0.7263
   13SAPS  C317 1723   4.441   1.888   8.485 -0.7902 -0.8678  0.7350
   13SAPS  H17X 1724   4.460   1.799   8.421 -0.6051 -1.3534  1.4594
   13SAPS  H17Y 1725   4.387   1.871   8.581 -0.9807 -0.4240  0.7126
   13SAPS  C318 1726   4.577   1.937   8.530 -0.0555 -0.2287 -0.1588
   13SAPS  H18X 1727   4.605   1.857   8.601 -1.5987  0.3729  1.1933
   13SAPS  H18Y 1728   4.555   2.024   8.596 -0.1802 -0.9152  0.7178
   13SAPS  H18Z 1729   4.657   1.951   8.454 -0.7386  2.1402 -0.5215
   14SAPS     N 1730   5.125   0.806   5.903  0.0225 -0.0452  0.3725
   14SAPS   HN1 1731   5.088   0.883   5.963 -3.1844  0.9957 -2.6355
   14SAPS   HN2 1732   5.225   0.805   5.931 -0.2636  0.1777  1.4692
   14SAPS   HN3 1733   5.115   0.840   5.805  1.5516 -0.5590  0.0032
   14SAPS   C12 1734   5.064   0.670   5.945  0.5365 -0.7345  0.3348
   14SAPS  H12A 1735   5.080   0.663   6.051  0.0655  0.0364  0.4662
   14SAPS   C13 1736   4.917   0.639   5.920  0.0446  0.1099 -0.0907
   14SAPS  O13A 1737   4.857   0.714   5.834  0.1756 -0.3291 -0.0454
   14SAPS  O13B 1738   4.860   0.531   5.956  0.1971  0.1219 -0.3741
   14SAPS   C11 1739   5.157   0.554   5.891 -0.2502 -0.0784  0.5479
   14SAPS  H11A 1740   5.136   0.546   5.782  0.5731  0.5525  0.3391
   14SAPS  H11B 1741   5.121   0.457   5.933  1.8093 -0.2501  2.0646
   14SAPS     P 1742   5.388   0.446   5.912 -0.2307  0.1110  0.3139
   14SAPS   O13 1743   5.358   0.377   5.784 -0.5665  0.0710  0.2438
   14SAPS   O14 1744   5.520   0.475   5.953 -0.4658 -0.1256  1.0317
   14SAPS   O12 1745   5.300   0.574   5.922  0.1547 -0.7574 -0.1561
   14SAPS   O11 1746   5.323   0.359   6.024  0.3545  0.6190  0.0126
   14SAPS    C1 1747   5.327   0.384   6.167  0.4244  0.2307  0.2613
   14SAPS    HA 1748   5.428   0.364   6.210  0.5835  0.9816  0.2682
   14SAPS    HB 1749   5.296   0.491   6.168 -0.2090  0.0519  0.0332
   14SAPS    C2 1750   5.224   0.314   6.258  0.1914  0.3604  0.6265
   14SAPS    HS 1751   5.125   0.338   6.214  0.8042  0.4065 -0.7765
   14SAPS   O21 1752   5.236   0.367   6.391 -0.2052 -0.6140  0.3641
   14SAPS   C21 1753   5.152   0.477   6.407  0.3222  0.2941 -0.5155
   14SAPS   O22 1754   5.097   0.536   6.324 -0.0772  0.6435  0.0867
   14SAPS   C22 1755   5.129   0.510   6.554  0.2281  0.1439  0.5228
   14SAPS   H2R 1756   5.032   0.464   6.580  0.4563  0.3093  1.7324
   14SAPS   H2S 1757   5.207   0.472   6.623  1.4584  1.8755  0.1617
   14SAPS    C3 1758   5.260   0.166   6.270  0.6342 -0.2381  0.0209
   14SAPS    HX 1759   5.363   0.148   6.308  0.0561  2.7056  3.6023
   14SAPS    HY 1760   5.253   0.130   6.165 -1.8344  0.8390 -0.2525
   14SAPS   O31 1761   5.160   0.098   6.352  0.2776 -0.0292 -0.1677
   14SAPS   C31 1762   5.190   0.077   6.472  0.4087 -0.2093 -0.3356
   14SAPS   O32 1763   5.302   0.097   6.525  0.1961 -0.2880  0.8082
   14SAPS   C32 1764   5.068   0.015   6.548  0.1726 -0.0228 -0.3978
   14SAPS   H2X 1765   5.032  -0.071   6.488 -1.7611  2.0995 -2.4870
   14SAPS   H2Y 1766   4.984   0.087   6.559  2.0964  2.1465  1.0073
   14SAPS   C23 1767   5.112   0.662   6.567 -0.1129 -0.4263 -0.0703
   14SAPS   H3R 1768   5.016   0.690   6.518  1.5278  1.2034 -2.5610
   14SAPS   H3S 1769   5.188   0.723   6.515 -0.7549  0.2681 -0.2089
   14SAPS   C24 1770   5.116   0.701   6.717 -0.5168  0.0000 -0.3720
   14SAPS   H4R 1771   5.221   0.722   6.747 -0.6439  0.4925 -0.2637
   14SAPS   H4S 1772   5.076   0.615   6.776 -1.4574  0.6085 -0.0942
   14SAPS   C25 1773   5.025   0.821   6.732  0.9479  0.2691  0.6548
   14SAPS   H5R 1774   5.017   0.893   6.649 -0.6098 -2.9664 -2.2538
   14SAPS   C26 1775   4.947   0.847   6.840 -0.7711  0.0712 -0.1465
   14SAPS   H6R 1776   4.890   0.941   6.842 -0.2612  0.5318 -2.7994
   14SAPS   C27 1777   4.945   0.767   6.971  0.1850  0.1746  0.7473
   14SAPS   H7R 1778   5.020   0.811   7.041 -0.0137  1.1683  0.3589
   14SAPS   H7S 1779   4.980   0.662   6.956  1.0133  0.6495 -0.9294
   14SAPS   C28 1780   4.809   0.755   7.031 -1.0958 -0.1305  0.1156
   14SAPS   H8R 1781   4.757   0.659   7.018 -2.2350  0.7182 -2.0846
   14SAPS   C29 1782   4.749   0.852   7.103 -0.4687  0.5352  0.4948
   14SAPS   H9R 1783   4.646   0.835   7.138 -1.2510 -2.4512 -2.6587
   14SAPS  C210 1784   4.825   0.979   7.132 -0.4361  0.3943 -0.5416
   14SAPS  H10R 1785   4.861   1.028   7.039  3.4108  2.0007  1.5621
   14SAPS  H10S 1786   4.916   0.952   7.191 -2.6741  2.2932  4.3013
   14SAPS  C211 1787   4.736   1.072   7.208  0.1509  0.2912 -0.2849
   14SAPS  H11R 1788   4.670   1.131   7.142 -0.4916  0.8071  0.7827
   14SAPS  C212 1789   4.715   1.070   7.342 -0.0916  0.1457  0.3680
   14SAPS  H12R 1790   4.635   1.126   7.393 -2.2709 -2.4311  0.0339
   14SAPS  C213 1791   4.797   0.979   7.436  0.3753  0.2403  0.3410
   14SAPS  H13R 1792   4.891   0.938   7.392 -0.4721 -0.8870 -0.4635
   14SAPS  H13S 1793   4.732   0.890   7.449  1.6113 -0.7389 -0.0530
   14SAPS  C214 1794   4.830   1.038   7.572 -0.0076 -0.2350  0.8229
   14SAPS  H14R 1795   4.902   1.121   7.577 -1.4051  1.0296  0.6202
   14SAPS  C215 1796   4.780   1.003   7.691 -0.0446 -0.3119  0.5316
   14SAPS  H15R 1797   4.800   1.076   7.770  0.4415  1.3174 -1.0391
   14SAPS  C216 1798   4.679   0.894   7.722  0.4881  0.3357 -0.1778
   14SAPS  H16R 1799   4.688   0.861   7.827 -1.8596 -1.0978 -0.3567
   14SAPS  H16S 1800   4.685   0.811   7.648  0.1963 -0.9257  1.1910
   14SAPS  C217 1801   4.534   0.954   7.717 -0.2809 -0.7348  0.8752
   14SAPS  H17R 1802   4.519   1.004   7.619  1.4912 -0.6762  0.6071
   14SAPS  H17S 1803   4.535   1.034   7.794 -1.2425  1.2163 -1.0510
   14SAPS  C218 1804   4.428   0.852   7.755  0.4622 -0.1310 -0.4376
   14SAPS  H18R 1805   4.477   0.786   7.830  2.5369 -0.2432 -1.7984
   14SAPS  H18S 1806   4.397   0.790   7.668 -1.6928  0.8988 -0.4555
   14SAPS  C219 1807   4.311   0.924   7.824 -0.0549 -0.2590 -0.3208
   14SAPS  H19R 1808   4.294   1.017   7.766  1.5636  0.4410  0.2694
   14SAPS  H19S 1809   4.362   0.952   7.919  0.6466 -1.3017 -0.3765
   14SAPS  C220 1810   4.184   0.841   7.850  0.3489 -0.3839 -0.1175
   14SAPS  H20R 1811   4.156   0.794   7.753 -0.6556  2.0908 -1.0842
   14SAPS  H20S 1812   4.104   0.909   7.886 -0.8997 -1.0760 -1.4342
   14SAPS  H20T 1813   4.198   0.762   7.927  0.3694  0.4797  0.7879
   14SAPS   C33 1814   5.099  -0.041   6.694 -0.1382  0.5114 -0.0858
   14SAPS   H3X 1815   5.194  -0.098   6.681 -0.1799  0.7742 -1.7591
   14SAPS   H3Y 1816   5.025  -0.115   6.731  0.8408 -1.9258 -2.6303
   14SAPS   C34 1817   5.119   0.069   6.802 -0.4367 -0.2197  0.1214
   14SAPS   H4X 1818   5.161   0.156   6.747  0.6720  0.0698  1.3827
   14SAPS   H4Y 1819   5.202   0.051   6.873  1.0961  0.1590 -1.4917
   14SAPS   C35 1820   4.999   0.113   6.888 -0.1513  0.4761  0.0431
   14SAPS   H5X 1821   4.955   0.029   6.945 -0.0407  0.0073 -0.5452
   14SAPS   H5Y 1822   4.927   0.151   6.813 -0.4437 -0.1451 -0.0044
   14SAPS   C36 1823   5.041   0.224   6.975  0.7423 -0.0721 -0.8959
   14SAPS   H6X 1824   5.090   0.299   6.909 -2.7904  2.6518 -0.7152
   14SAPS   H6Y 1825   5.112   0.182   7.050 -1.0767  0.2472  1.0918
   14SAPS   C37 1826   4.929   0.285   7.066  0.0473  0.2726  0.3788
   14SAPS   H7X 1827   4.867   0.207   7.114  0.5047 -1.3644 -1.5826
   14SAPS   H7Y 1828   4.863   0.339   6.995 -3.2068 -2.6891  0.9046
   14SAPS   C38 1829   4.988   0.380   7.169  0.6686  0.3904  0.0926
   14SAPS   H8X 1830   5.071   0.440   7.127  2.6140 -1.3157  1.2803
   14SAPS   H8Y 1831   5.050   0.317   7.235  1.0714 -0.7350 -1.3060
   14SAPS   C39 1832   4.879   0.459   7.241  0.5750  0.7224 -0.8074
   14SAPS   H9X 1833   4.825   0.381   7.298  0.5294  1.0126 -0.4511
   14SAPS   H9Y 1834   4.813   0.510   7.167 -0.0913  0.5516 -0.3353
   14SAPS  C310 1835   4.935   0.563   7.343  0.6078  0.2682 -0.6188
   14SAPS  H10X 1836   4.975   0.649   7.285 -0.8334  0.6566 -1.0879
   14SAPS  H10Y 1837   5.033   0.522   7.376 -1.0015 -1.1008  2.9582
   14SAPS  C311 1838   4.848   0.602   7.473 -0.1103 -0.5209 -0.0407
   14SAPS  H11X 1839   4.754   0.648   7.435  0.9998  2.3868  0.5014
   14SAPS  H11Y 1840   4.912   0.671   7.533 -1.7110  0.6431  0.3937
   14SAPS  C312 1841   4.811   0.481   7.553 -0.3154 -1.3841 -0.7065
   14SAPS  H12X 1842   4.901   0.423   7.585 -1.3264 -1.9194  1.4022
   14SAPS  H12Y 1843   4.768   0.402   7.488 -1.0699 -1.4811 -0.1151
   14SAPS  C313 1844   4.722   0.492   7.679  0.0307  0.0887 -0.1817
   14SAPS  H13X 1845   4.672   0.395   7.699 -2.0188  1.0771 -0.2971
   14SAPS  H13Y 1846   4.651   0.577   7.671 -0.2729  0.2257  2.8308
   14SAPS  C314 1847   4.819   0.536   7.793 -0.1597  0.2394 -0.3076
   14SAPS  H14X 1848   4.851   0.642   7.780 -2.4392  0.8271 -1.5512
   14SAPS  H14Y 1849   4.916   0.482   7.791  0.6450  1.6506 -0.8024
   14SAPS  C315 1850   4.764   0.521   7.932  0.0273  0.7283  0.3253
   14SAPS  H15X 1851   4.848   0.533   8.004 -0.1560 -0.9288  0.8565
   14SAPS  H15Y 1852   4.738   0.414   7.946 -1.3542  1.0481  0.3711
   14SAPS  C316 1853   4.634   0.601   7.956 -0.8308 -0.5847 -0.1209
   14SAPS  H16X 1854   4.559   0.558   7.886 -0.3273 -1.0152 -0.3962
   14SAPS  H16Y 1855   4.644   0.711   7.939  0.3293 -0.7246 -0.3946
   14SAPS  C317 1856   4.580   0.561   8.096  0.1669  0.9718  0.5631
   14SAPS  H17X 1857   4.655   0.577   8.177  0.5927 -2.0705  0.9037
   14SAPS  H17Y 1858   4.561   0.452   8.110  2.6041  0.4167 -0.0216
   14SAPS  C318 1859   4.461   0.657   8.130  0.0202 -0.4527  0.1203
   14SAPS  H18X 1860   4.379   0.638   8.057  0.4391  2.6633 -1.3490
   14SAPS  H18Y 1861   4.486   0.765   8.125  1.1002 -0.6385  1.0619
   14SAPS  H18Z 1862   4.432   0.632   8.234 -1.9811 -1.5788 -0.6569
   15SAPS     N 1863   4.837   4.166   5.683 -0.0962  0.1459 -0.7142
   15SAPS   HN1 1864   4.826   4.111   5.595  1.1954  0.1100 -0.8834
   15SAPS   HN2 1865   4.939   4.190   5.685 -0.3740  1.6154  2.9722
   15SAPS   HN3 1866   4.835   4.122   5.777  2.3362  1.1016 -0.1459
   15SAPS   C12 1867   4.763   4.295   5.690 -0.0599 -0.5677 -0.7627
   15SAPS  H12A 1868   4.799   4.358   5.610 -0.5598  0.4227 -0.2310
   15SAPS   C13 1869   4.611   4.280   5.653 -0.2670  0.6786  0.6103
   15SAPS  O13A 1870   4.561   4.169   5.614 -0.2352  0.0440  0.0420
   15SAPS  O13B 1871   4.535   4.379   5.656 -0.0713 -0.0809  0.1323
   15SAPS   C11 1872   4.788   4.369   5.822 -0.4909  0.0024 -0.0190
   15SAPS  H11A 1873   4.728   4.316   5.899 -1.8300  3.4181  1.4916
   15SAPS  H11B 1874   4.748   4.472   5.814  0.5802  0.4550  0.2561
   15SAPS     P 1875   5.014   4.505   5.859  0.0211 -0.0696  0.1185
   15SAPS   O13 1876   5.155   4.468   5.839 -0.0211  0.3817  0.9406
   15SAPS   O14 1877   4.959   4.603   5.761 -0.2535 -0.9958  0.5456
   15SAPS   O12 1878   4.931   4.372   5.858 -0.3950  0.3856  0.4278
   15SAPS   O11 1879   4.994   4.555   6.003 -0.0335 -0.2700 -0.0250
   15SAPS    C1 1880   4.863   4.575   6.066  0.2842 -0.0151  0.1013
   15SAPS    HA 1881   4.819   4.664   6.017  2.0969  0.7571 -0.2101
   15SAPS    HB 1882   4.790   4.493   6.046 -1.2315  0.9963  1.2126
   15SAPS    C2 1883   4.874   4.590   6.221 -0.0452  0.5157  0.3200
   15SAPS    HS 1884   4.908   4.695   6.232  3.6186 -0.3534 -1.4032
   15SAPS   O21 1885   4.967   4.488   6.267 -0.1345 -0.3593  0.3972
   15SAPS   C21 1886   5.073   4.536   6.329  0.4926  0.2055  0.1382
   15SAPS   O22 1887   5.078   4.652   6.365 -0.2344 -0.7291  0.2972
   15SAPS   C22 1888   5.186   4.441   6.338  0.1591  0.0252 -0.5120
   15SAPS   H2R 1889   5.165   4.355   6.405  2.0252  0.4415  0.7016
   15SAPS   H2S 1890   5.202   4.398   6.237  0.1082  2.2981 -1.5461
   15SAPS    C3 1891   4.745   4.560   6.284  0.1208  0.3768  0.0768
   15SAPS    HX 1892   4.718   4.457   6.251  0.0898 -0.6936  3.1426
   15SAPS    HY 1893   4.662   4.622   6.244  0.8225  2.4642  1.6746
   15SAPS   O31 1894   4.760   4.571   6.427  0.2214  0.1449  0.2557
   15SAPS   C31 1895   4.750   4.696   6.471  0.3473  0.2131 -0.1136
   15SAPS   O32 1896   4.742   4.794   6.403 -0.3341  0.1381  0.4490
   15SAPS   C32 1897   4.770   4.707   6.620  1.0750 -0.3066 -0.8141
   15SAPS   H2X 1898   4.676   4.683   6.675  1.0859  0.7140 -0.3211
   15SAPS   H2Y 1899   4.784   4.815   6.643 -1.1912 -0.4846  1.9558
   15SAPS   C23 1900   5.319   4.520   6.381 -0.4235  0.1163  0.3675
   15SAPS   H3R 1901   5.358   4.595   6.308 -1.3011 -0.2257 -0.4687
   15SAPS   H3S 1902   5.393   4.438   6.379  0.5265  0.9460  0.4795
   15SAPS   C24 1903   5.335   4.572   6.526  0.0449  0.1755  0.1994
   15SAPS   H4R 1904   5.304   4.488   6.592  0.7211 -0.8589 -0.7438
   15SAPS   H4S 1905   5.266   4.658   6.535  0.1946  0.2407  0.7398
   15SAPS   C25 1906   5.480   4.603   6.557  0.1034  0.5986  0.0108
   15SAPS   H5R 1907   5.549   4.528   6.515 -1.4040 -0.3418 -0.8933
   15SAPS   C26 1908   5.535   4.696   6.640 -0.1489  0.5180  0.4962
   15SAPS   H6R 1909   5.645   4.699   6.649 -0.0280  0.8438 -0.7832
   15SAPS   C27 1910   5.453   4.800   6.705 -0.0536  0.0684  0.5340
   15SAPS   H7R 1911   5.356   4.763   6.745  0.9623 -1.7140  1.4800
   15SAPS   H7S 1912   5.417   4.869   6.626 -0.7257  0.9153  1.5608
   15SAPS   C28 1913   5.530   4.890   6.792  0.2475  0.2162 -0.3282
   15SAPS   H8R 1914   5.592   4.968   6.746 -1.6171  2.2659  0.4851
   15SAPS   C29 1915   5.512   4.884   6.929 -0.2408 -0.3695  0.1991
   15SAPS   H9R 1916   5.566   4.962   6.985  0.2446  1.4196 -2.5601
   15SAPS  C210 1917   5.428   4.790   7.010  1.2405 -0.1695  0.2318
   15SAPS  H10R 1918   5.494   4.744   7.086  1.0149 -2.2418 -0.7459
   15SAPS  H10S 1919   5.406   4.697   6.952  2.1270 -1.0804  1.3060
   15SAPS  C211 1920   5.301   4.841   7.071  0.0830  1.4474 -0.7032
   15SAPS  H11R 1921   5.213   4.812   7.011  0.7300  0.0157 -0.9998
   15SAPS  C212 1922   5.281   4.904   7.193 -0.0738 -0.3241  0.4245
   15SAPS  H12R 1923   5.178   4.937   7.215  0.5475  0.2423  2.7380
   15SAPS  C213 1924   5.383   4.939   7.295 -0.3248  0.1656  0.3923
   15SAPS  H13R 1925   5.486   4.919   7.260 -0.5425  1.8367 -1.3573
   15SAPS  H13S 1926   5.363   4.872   7.382  4.1357 -1.8140  0.1672
   15SAPS  C214 1927   5.371   5.083   7.331  0.0372 -0.1544 -0.8111
   15SAPS  H14R 1928   5.385   5.152   7.247 -1.6268  2.6605  1.0813
   15SAPS  C215 1929   5.342   5.130   7.453 -0.4176  0.1024 -0.2660
   15SAPS  H15R 1930   5.333   5.238   7.472  2.3752  0.1367  1.5727
   15SAPS  C216 1931   5.328   5.054   7.578 -0.0315 -0.1704 -0.5754
   15SAPS  H16R 1932   5.334   4.943   7.576  2.0527 -0.1487  0.7685
   15SAPS  H16S 1933   5.228   5.075   7.620  1.3768  0.0461  3.0797
   15SAPS  C217 1934   5.417   5.105   7.687 -0.8717 -0.0751 -0.7555
   15SAPS  H17R 1935   5.394   5.210   7.715 -2.2265 -0.4015 -0.6059
   15SAPS  H17S 1936   5.526   5.102   7.664 -0.6539  1.7556 -0.1021
   15SAPS  C218 1937   5.400   5.028   7.822  0.4071 -0.0645  0.3874
   15SAPS  H18R 1938   5.404   4.923   7.784  0.1106  0.9662 -2.8008
   15SAPS  H18S 1939   5.303   5.043   7.875  0.2071  1.0967 -0.2794
   15SAPS  C219 1940   5.519   5.048   7.916  1.0557  0.5378  0.2448
   15SAPS  H19R 1941   5.489   5.099   8.010  1.8196  0.8331  0.3317
   15SAPS  H19S 1942   5.594   5.119   7.876  0.5387  0.1409 -1.5223
   15SAPS  C220 1943   5.576   4.913   7.965  0.1069 -0.3585  0.0846
   15SAPS  H20R 1944   5.605   4.839   7.887 -0.6623 -1.6733  1.0025
   15SAPS  H20S 1945   5.492   4.864   8.020  0.3627  0.1905  0.9798
   15SAPS  H20T 1946   5.660   4.926   8.036 -1.3718 -0.0065  1.8469
   15SAPS   C33 1947   4.887   4.630   6.678 -0.2344  0.2615  0.0813
   15SAPS   H3X 1948   4.973   4.629   6.608 -1.2180 -1.6516 -1.1936
   15SAPS   H3Y 1949   4.859   4.522   6.686  3.1835 -0.7271  0.2734
   15SAPS   C34 1950   4.935   4.676   6.814 -0.7846 -0.5526 -0.0359
   15SAPS   H4X 1951   4.998   4.764   6.790 -0.1913 -1.3675 -1.5585
   15SAPS   H4Y 1952   5.001   4.603   6.865 -2.2882  1.6752  6.0251
   15SAPS   C35 1953   4.816   4.694   6.910 -0.1146 -0.0296  0.1708
   15SAPS   H5X 1954   4.757   4.600   6.906  2.1861 -1.5768  0.3070
   15SAPS   H5Y 1955   4.754   4.779   6.876  0.4144  0.5853  0.7010
   15SAPS   C36 1956   4.860   4.721   7.055  0.4928 -0.0340 -0.1321
   15SAPS   H6X 1957   4.965   4.757   7.059  1.2802 -2.2909  0.6546
   15SAPS   H6Y 1958   4.847   4.625   7.110 -1.0279  0.2649  0.0941
   15SAPS   C37 1959   4.760   4.812   7.124  0.0908  0.3344 -0.1245
   15SAPS   H7X 1960   4.658   4.773   7.106  0.6182 -1.7365  1.0782
   15SAPS   H7Y 1961   4.764   4.903   7.060 -0.4429  0.4200 -0.0386
   15SAPS   C38 1962   4.780   4.835   7.272  0.3933  0.0310  0.4680
   15SAPS   H8X 1963   4.885   4.867   7.288  1.3698 -1.5259 -2.0867
   15SAPS   H8Y 1964   4.789   4.736   7.322  2.6904 -1.1068 -1.9285
   15SAPS   C39 1965   4.682   4.931   7.327  0.5247  0.3033 -0.8332
   15SAPS   H9X 1966   4.584   4.914   7.277 -0.6848  0.5080  1.3508
   15SAPS   H9Y 1967   4.715   5.036   7.310  0.3612  0.4672 -0.1926
   15SAPS  C310 1968   4.654   4.901   7.475  0.4763  0.6331 -0.2288
   15SAPS  H10X 1969   4.642   4.791   7.489  3.1843  0.3548  0.3844
   15SAPS  H10Y 1970   4.563   4.956   7.508  0.4944  1.3071 -1.2671
   15SAPS  C311 1971   4.772   4.945   7.574  0.1024 -0.1265  0.6773
   15SAPS  H11X 1972   4.803   5.048   7.547 -2.9403  0.4574 -0.9755
   15SAPS  H11Y 1973   4.860   4.878   7.566 -0.1314 -0.6734  2.2612
   15SAPS  C312 1974   4.719   4.940   7.713 -0.0307  0.4921 -0.2107
   15SAPS  H12X 1975   4.688   4.837   7.740  1.2064  0.5749  1.6371
   15SAPS  H12Y 1976   4.626   5.001   7.725  0.3589  1.3144 -1.1732
   15SAPS  C313 1977   4.823   4.992   7.822  0.2163  0.4716  0.2999
   15SAPS  H13X 1978   4.847   5.099   7.803  0.9220  0.1278 -0.8278
   15SAPS  H13Y 1979   4.912   4.931   7.796 -0.5447  0.0020 -1.3034
   15SAPS  C314 1980   4.781   4.973   7.962 -0.0418 -0.7848  0.7170
   15SAPS  H14X 1981   4.728   4.880   7.991 -0.1751 -0.7104  0.7155
   15SAPS  H14Y 1982   4.704   5.051   7.983  0.8042  0.1117  0.5411
   15SAPS  C315 1983   4.906   4.995   8.045 -0.3407  0.2367  0.4363
   15SAPS  H15X 1984   4.967   5.072   7.994  0.4546  0.1989  1.2922
   15SAPS  H15Y 1985   4.969   4.903   8.045  0.3616  0.6605 -1.9378
   15SAPS  C316 1986   4.875   5.043   8.187  0.0133  0.3524 -0.4381
   15SAPS  H16X 1987   4.822   4.957   8.236  3.3594 -1.3624  0.4803
   15SAPS  H16Y 1988   4.804   5.128   8.198  0.4897  0.7848 -0.7084
   15SAPS  C317 1989   5.004   5.056   8.281  0.3327 -0.0319  0.8778
   15SAPS  H17X 1990   5.061   5.144   8.244 -0.8495  0.4458  0.1455
   15SAPS  H17Y 1991   5.055   4.959   8.263 -3.0433 -1.6539 -0.7565
   15SAPS  C318 1992   4.977   5.069   8.429 -0.4689  0.1883 -0.7903
   15SAPS  H18X 1993   5.070   5.103   8.480 -0.3065 -1.8567  0.3834
   15SAPS  H18Y 1994   4.957   4.974   8.482 -0.4847  0.8059  0.3507
   15SAPS  H18Z 1995   4.890   5.135   8.451 -1.0361 -0.3897 -1.2864
   16SAPS     N 1996   0.526   4.783   6.281  1.0805 -0.3764  0.6134
   16SAPS   HN1 1997   0.530   4.778   6.177 -0.5620  2.7336  0.2855
   16SAPS   HN2 1998   0.574   4.873   6.295 -0.8698  0.9204 -0.5040
   16SAPS   HN3 1999   0.578   4.708   6.331 -1.3966 -1.3881  1.8625
   16SAPS   C12 2000   0.384   4.804   6.339 -0.4186  0.4459  0.8292
   16SAPS  H12A 2001   0.350   4.878   6.269 -0.1594 -1.7555 -1.7916
   16SAPS   C13 2002   0.294   4.682   6.327 -0.8314  0.6282 -0.4110
   16SAPS  O13A 2003   0.337   4.575   6.271 -0.1962 -0.2880 -0.2285
   16SAPS  O13B 2004   0.171   4.694   6.360 -0.2333 -0.0846 -0.2112
   16SAPS   C11 2005   0.381   4.853   6.482  0.1256  0.1506 -0.6893
   16SAPS  H11A 2006   0.398   4.762   6.544 -2.0149 -0.6906 -1.2442
   16SAPS  H11B 2007   0.277   4.879   6.510  0.4742 -0.0302  0.8189
   16SAPS     P 2008   0.431   5.102   6.516 -0.0354  0.2330 -0.3668
   16SAPS   O13 2009   0.547   5.188   6.492  0.6989  0.8390  0.0819
   16SAPS   O14 2010   0.318   5.112   6.416 -0.5829  0.1071  0.1874
   16SAPS   O12 2011   0.472   4.954   6.515  0.5109 -0.0632 -0.4880
   16SAPS   O11 2012   0.374   5.111   6.663 -0.3578  0.1727  0.0533
   16SAPS    C1 2013   0.429   5.021   6.764 -0.2506  0.5721  0.5230
   16SAPS    HA 2014   0.407   4.916   6.736  0.5272  0.7246 -0.7309
   16SAPS    HB 2015   0.538   5.035   6.783 -0.1060 -0.3317  0.4052
   16SAPS    C2 2016   0.349   5.055   6.892  0.2533  0.1857  0.3828
   16SAPS    HS 2017   0.385   4.990   6.974 -1.9334 -2.4353 -0.5966
   16SAPS   O21 2018   0.210   5.023   6.881 -0.0615 -0.4213  0.0506
   16SAPS   C21 2019   0.181   4.894   6.882 -0.7923 -0.3733 -0.2186
   16SAPS   O22 2020   0.254   4.803   6.921  0.4376 -0.1392 -0.2047
   16SAPS   C22 2021   0.032   4.882   6.855 -0.0615  0.3693 -0.1797
   16SAPS   H2R 2022   0.002   4.974   6.801  1.9547  0.8977 -0.4675
   16SAPS   H2S 2023   0.011   4.789   6.798  0.1737  0.4953 -0.4729
   16SAPS    C3 2024   0.376   5.202   6.935 -0.7829  0.1593  0.7787
   16SAPS    HX 2025   0.315   5.257   6.861 -1.0218 -0.5230  0.4531
   16SAPS    HY 2026   0.483   5.227   6.920 -0.3340 -1.5971  0.8173
   16SAPS   O31 2027   0.342   5.228   7.074 -0.4250 -0.4150  0.2060
   16SAPS   C31 2028   0.236   5.320   7.086  0.2119  0.0100  0.0288
   16SAPS   O32 2029   0.188   5.378   6.995 -0.0121 -0.1234 -0.1703
   16SAPS   C32 2030   0.196   5.317   7.238 -0.2194  0.0082  0.0145
   16SAPS   H2X 2031   0.296   5.327   7.285  0.3063  1.9257 -1.3819
   16SAPS   H2Y 2032   0.141   5.223   7.259 -0.3011 -0.8405 -3.3544
   16SAPS   C23 2033  -0.044   4.886   6.989 -0.5447 -0.5199  0.5457
   16SAPS   H3R 2034  -0.026   4.789   7.042  2.3003 -1.9859 -2.7158
   16SAPS   H3S 2035  -0.154   4.885   6.973 -0.5472  1.3722  0.3009
   16SAPS   C24 2036  -0.032   5.013   7.085 -0.5596  0.4369  0.0106
   16SAPS   H4R 2037   0.072   5.021   7.121 -0.1352 -0.2336 -1.0215
   16SAPS   H4S 2038  -0.094   5.016   7.178  0.1522  2.4095  0.4754
   16SAPS   C25 2039  -0.040   5.154   7.018  0.6705  0.7626  0.4074
   16SAPS   H5R 2040   0.027   5.178   6.934 -1.9789 -0.1392 -2.1713
   16SAPS   C26 2041  -0.127   5.247   7.051 -0.0209  0.2335  0.3842
   16SAPS   H6R 2042  -0.136   5.343   6.999 -2.3523 -0.0992  0.0660
   16SAPS   C27 2043  -0.227   5.232   7.163  0.2602 -0.8762 -0.0197
   16SAPS   H7R 2044  -0.173   5.219   7.258 -1.2602  1.2972  1.2314
   16SAPS   H7S 2045  -0.282   5.136   7.151  0.6374 -1.0268 -0.6294
   16SAPS   C28 2046  -0.330   5.346   7.182  0.2350 -0.3991 -0.2760
   16SAPS   H8R 2047  -0.401   5.365   7.100  1.7737  0.5269 -1.4241
   16SAPS   C29 2048  -0.345   5.422   7.295  0.3173  0.0112  0.3677
   16SAPS   H9R 2049  -0.424   5.498   7.305  1.4020  1.3116 -0.7162
   16SAPS  C210 2050  -0.266   5.413   7.426 -0.4160 -0.1101  0.1904
   16SAPS  H10R 2051  -0.177   5.349   7.408 -0.2126  0.0663  0.5542
   16SAPS  H10S 2052  -0.325   5.351   7.496  0.6989 -0.5570  0.7543
   16SAPS  C211 2053  -0.228   5.547   7.488 -0.0371  0.1152  0.0558
   16SAPS  H11R 2054  -0.230   5.634   7.420 -1.0073  1.0618  1.2423
   16SAPS  C212 2055  -0.199   5.568   7.619  1.2370  0.1321  0.4522
   16SAPS  H12R 2056  -0.185   5.671   7.656 -0.6969  0.4409  0.4277
   16SAPS  C213 2057  -0.204   5.451   7.711 -0.5271 -0.4187 -1.1338
   16SAPS  H13R 2058  -0.128   5.479   7.787 -1.6087  0.2232 -0.2607
   16SAPS  H13S 2059  -0.166   5.354   7.672  2.5330 -0.7160  2.1223
   16SAPS  C214 2060  -0.341   5.444   7.779  0.0977 -0.3666  0.1299
   16SAPS  H14R 2061  -0.420   5.496   7.723  0.8754 -0.6373 -1.2706
   16SAPS  C215 2062  -0.375   5.365   7.876  0.1409 -0.6262 -0.0923
   16SAPS  H15R 2063  -0.470   5.383   7.927 -0.0334  0.9592 -0.9215
   16SAPS  C216 2064  -0.272   5.281   7.943 -0.8719  0.5665  0.0265
   16SAPS  H16R 2065  -0.202   5.239   7.867 -0.1746  1.1504  0.3323
   16SAPS  H16S 2066  -0.310   5.190   7.994  3.3126  0.5263  3.6555
   16SAPS  C217 2067  -0.167   5.349   8.034 -0.5996  0.0109  0.5523
   16SAPS  H17R 2068  -0.100   5.426   7.990  0.4251  0.4854  2.7663
   16SAPS  H17S 2069  -0.097   5.271   8.072 -0.6005  0.5264  1.6777
   16SAPS  C218 2070  -0.217   5.429   8.157  0.0361  0.8657 -0.8310
   16SAPS  H18R 2071  -0.302   5.495   8.129 -3.4065 -2.4466  0.9809
   16SAPS  H18S 2072  -0.137   5.488   8.207 -0.1413 -0.4233  1.0590
   16SAPS  C219 2073  -0.284   5.335   8.264  0.1684  0.1847 -0.1054
   16SAPS  H19R 2074  -0.207   5.281   8.324 -1.5986 -1.6059  0.6500
   16SAPS  H19S 2075  -0.345   5.265   8.203 -1.1244  2.6405 -1.7865
   16SAPS  C220 2076  -0.363   5.407   8.366  0.3773 -0.3277  0.5323
   16SAPS  H20R 2077  -0.438   5.473   8.319  1.3221  1.7223  1.7409
   16SAPS  H20S 2078  -0.294   5.469   8.427 -0.0937 -0.1039  0.8439
   16SAPS  H20T 2079  -0.405   5.339   8.442  0.2601  0.0213  0.7829
   16SAPS   C33 2080   0.112   5.440   7.288  0.0323 -0.6979  0.1758
   16SAPS   H3X 2081   0.004   5.438   7.262  0.2307  0.3153 -0.8167
   16SAPS   H3Y 2082   0.157   5.527   7.235 -0.4973  0.9168  2.2273
   16SAPS   C34 2083   0.124   5.481   7.439  0.2591  0.6217 -0.3006
   16SAPS   H4X 2084   0.057   5.566   7.461  2.1609  1.9060  0.8404
   16SAPS   H4Y 2085   0.227   5.516   7.460  0.6941 -1.1630  0.7715
   16SAPS   C35 2086   0.114   5.362   7.538 -0.7686  0.2915  0.2653
   16SAPS   H5X 2087   0.189   5.289   7.500 -2.5018  0.1322 -3.2275
   16SAPS   H5Y 2088   0.020   5.303   7.529 -0.7414 -0.3305  3.0622
   16SAPS   C36 2089   0.159   5.395   7.679 -0.2648 -0.1697 -0.3314
   16SAPS   H6X 2090   0.103   5.474   7.733 -0.8128  1.7287 -3.4115
   16SAPS   H6Y 2091   0.259   5.441   7.662  0.5591 -2.3057 -1.6013
   16SAPS   C37 2092   0.174   5.271   7.768 -0.0279  0.1031 -0.4507
   16SAPS   H7X 2093   0.256   5.202   7.741 -0.8661 -0.9885 -0.2399
   16SAPS   H7Y 2094   0.076   5.223   7.754 -0.9116  2.3684 -2.9300
   16SAPS   C38 2095   0.190   5.301   7.916  0.1673 -0.0233  0.6689
   16SAPS   H8X 2096   0.097   5.359   7.939 -0.9446 -1.0132 -1.0920
   16SAPS   H8Y 2097   0.280   5.363   7.936  1.3657 -1.2805 -0.5861
   16SAPS   C39 2098   0.172   5.177   7.998 -0.1180 -0.2200  0.5274
   16SAPS   H9X 2099   0.262   5.114   7.983  1.2658  1.7847  0.0324
   16SAPS   H9Y 2100   0.086   5.116   7.964  0.0035 -0.2026  0.1880
   16SAPS  C310 2101   0.158   5.210   8.146 -0.2000  0.2082  0.2900
   16SAPS  H10X 2102   0.072   5.273   8.178  0.4158  1.1664  0.0873
   16SAPS  H10Y 2103   0.248   5.271   8.167  1.7012 -2.5153  0.6235
   16SAPS  C311 2104   0.168   5.087   8.235 -0.5296  0.2798 -0.7916
   16SAPS  H11X 2105   0.260   5.028   8.215  0.8855  2.1861 -0.1414
   16SAPS  H11Y 2106   0.079   5.023   8.215  0.1669 -0.8758 -0.3023
   16SAPS  C312 2107   0.173   5.121   8.389 -0.0492  0.2740  0.3256
   16SAPS  H12X 2108   0.088   5.190   8.409 -1.4559 -1.3625  0.2660
   16SAPS  H12Y 2109   0.267   5.179   8.396 -0.2611  0.4668  2.2020
   16SAPS  C313 2110   0.176   4.997   8.482 -0.4983 -0.3611  0.1786
   16SAPS  H13X 2111   0.268   4.943   8.451 -0.3897 -0.7755  1.1818
   16SAPS  H13Y 2112   0.093   4.927   8.462  1.1795 -2.0289 -1.3629
   16SAPS  C314 2113   0.207   5.037   8.628 -0.5667  0.0276  0.4045
   16SAPS  H14X 2114   0.118   5.079   8.680  0.3562  1.2883  1.0374
   16SAPS  H14Y 2115   0.283   5.119   8.621 -1.3276  0.7128 -0.0268
   16SAPS  C315 2116   0.265   4.911   8.695 -0.1932  0.1615 -0.5517
   16SAPS  H15X 2117   0.314   4.932   8.792  0.0062 -2.2042 -0.0932
   16SAPS  H15Y 2118   0.344   4.867   8.630 -1.0643 -1.5849 -0.4882
   16SAPS  C316 2119   0.159   4.811   8.728  0.2613  0.5897  0.4148
   16SAPS  H16X 2120   0.135   4.761   8.631  2.4391 -0.0669  0.1613
   16SAPS  H16Y 2121   0.059   4.851   8.757 -0.7482 -0.9669 -0.6975
   16SAPS  C317 2122   0.204   4.701   8.824  0.1564  0.2167  0.4009
   16SAPS  H17X 2123   0.117   4.646   8.866 -0.5590  1.5534  0.7180
   16SAPS  H17Y 2124   0.247   4.755   8.911  0.3344  0.6660  0.0393
   16SAPS  C318 2125   0.310   4.605   8.756 -0.5698 -0.1791 -0.2167
   16SAPS  H18X 2126   0.287   4.578   8.650  2.5829  0.8589 -1.2848
   16SAPS  H18Y 2127   0.347   4.518   8.815  0.3488  0.2637 -0.1338
   16SAPS  H18Z 2128   0.403   4.665   8.753 -1.3141  1.0054 -0.3363
   17SAPC     N 2129   2.251   1.232  10.437  0.4384 -0.2001 -0.3594
   17SAPC   C12 2130   2.368   1.203  10.535 -0.0086  0.6905  0.7276
   17SAPC  H12A 2131   2.357   1.103  10.572  0.9049  0.4431  0.3668
   17SAPC  H12B 2132   2.351   1.272  10.617 -1.3918 -1.1754  2.0750
   17SAPC   C13 2133   2.279   1.367  10.378  0.1027  0.2346 -0.2732
   17SAPC  H13A 2134   2.274   1.445  10.453  0.5583 -0.2761  0.3002
   17SAPC  H13B 2135   2.371   1.364  10.322 -0.8392  1.3566 -1.9839
   17SAPC  H13C 2136   2.210   1.403  10.303  0.5927  2.3932  0.2443
   17SAPC   C14 2137   2.258   1.137  10.324 -0.0543  0.0698 -0.1429
   17SAPC  H14A 2138   2.360   1.143  10.289 -0.0761 -0.0050 -0.2203
   17SAPC  H14B 2139   2.232   1.036  10.354  3.3551 -0.6748  0.7446
   17SAPC  H14C 2140   2.189   1.176  10.251  0.7857  1.2080 -0.3597
   17SAPC   C15 2141   2.113   1.224  10.499 -0.3868  0.0855 -0.4427
   17SAPC  H15A 2142   2.093   1.302  10.570 -0.3494 -1.0781  0.8832
   17SAPC  H15B 2143   2.044   1.236  10.417 -0.2839 -0.3247 -0.5958
   17SAPC  H15C 2144   2.105   1.128  10.549  0.0936 -1.0140 -2.3615
   17SAPC   C11 2145   2.517   1.221  10.479  0.5999  0.4412 -0.2756
   17SAPC  H11A 2146   2.585   1.211  10.566  0.7512 -0.2701 -0.4771
   17SAPC  H11B 2147   2.523   1.321  10.430  2.2557 -0.4893 -2.0766
   17SAPC     P 2148   2.623   1.169  10.250 -0.5687 -0.0006  0.0232
   17SAPC   O13 2149   2.752   1.235  10.282  0.4197 -0.1762  0.0133
   17SAPC   O14 2150   2.631   1.056  10.156 -0.0603 -0.2520 -1.0950
   17SAPC   O12 2151   2.551   1.121  10.383  0.1608 -0.7494  0.2200
   17SAPC   O11 2152   2.514   1.269  10.198 -0.4264  0.0259 -0.0328
   17SAPC    C1 2153   2.513   1.308  10.060 -0.4978 -0.5245  0.2632
   17SAPC    HA 2154   2.556   1.410  10.050  0.2045 -0.8559 -0.1815
   17SAPC    HB 2155   2.571   1.243   9.992 -0.9417 -0.7028  0.0500
   17SAPC    C2 2156   2.372   1.310  10.005 -0.0225  0.3083  0.1691
   17SAPC    HS 2157   2.317   1.290  10.100 -1.1022  1.8931 -0.0952
   17SAPC   O21 2158   2.354   1.193   9.926  0.1762  0.6208 -0.0220
   17SAPC   C21 2159   2.227   1.147   9.924 -0.2639  0.1865 -0.3630
   17SAPC   O22 2160   2.138   1.179  10.001 -0.5591 -0.0500 -0.2476
   17SAPC   C22 2161   2.214   1.041   9.815  0.9252  0.1094 -0.1441
   17SAPC   H2R 2162   2.280   1.073   9.732  2.1759  2.0687  1.5011
   17SAPC   H2S 2163   2.252   0.939   9.839  0.9036 -0.4500 -2.2619
   17SAPC    C3 2164   2.334   1.440   9.938  0.9343 -0.9091 -0.6920
   17SAPC    HX 2165   2.369   1.527   9.998 -0.5745 -1.5188  1.2074
   17SAPC    HY 2166   2.223   1.447   9.932  0.7878 -1.3250  0.9014
   17SAPC   O31 2167   2.404   1.457   9.808 -0.4799  0.2458 -0.6309
   17SAPC   C31 2168   2.334   1.415   9.703  0.4833 -0.5432  0.5084
   17SAPC   O32 2169   2.219   1.374   9.710  0.1003  0.2265  0.5015
   17SAPC   C32 2170   2.423   1.421   9.576 -0.3023 -0.0193 -0.0473
   17SAPC   H2X 2171   2.517   1.366   9.596  0.3265  0.7348 -0.8136
   17SAPC   H2Y 2172   2.449   1.529   9.573 -2.0283  0.4454  0.3423
   17SAPC   C23 2173   2.066   1.034   9.771 -0.2489  0.3996 -0.2907
   17SAPC   H3R 2174   2.028   1.131   9.732 -1.4724  1.1183  2.4729
   17SAPC   H3S 2175   1.996   1.005   9.852 -1.0574  2.1929 -0.2993
   17SAPC   C24 2176   2.038   0.929   9.661  0.1407  0.4682  0.1674
   17SAPC   H4R 2177   1.932   0.896   9.671  0.1157  0.3540 -0.4132
   17SAPC   H4S 2178   2.101   0.838   9.677 -1.1632 -1.2297 -3.3412
   17SAPC   C25 2179   2.054   0.990   9.529  0.3659 -0.3346  0.1104
   17SAPC   H5R 2180   1.979   1.069   9.516  0.4299  0.0865  1.9895
   17SAPC   C26 2181   2.151   0.956   9.439 -0.2036  0.3382  0.2466
   17SAPC   H6R 2182   2.148   0.983   9.332  0.3070 -1.0412 -0.1435
   17SAPC   C27 2183   2.266   0.859   9.459  0.5304 -0.7849 -0.0001
   17SAPC   H7R 2184   2.288   0.849   9.567 -0.6672 -2.3439  0.1450
   17SAPC   H7S 2185   2.359   0.894   9.409  1.7155 -2.2738  1.0805
   17SAPC   C28 2186   2.227   0.727   9.398  0.3155 -0.3697  0.1745
   17SAPC   H8R 2187   2.179   0.659   9.471 -0.9641 -0.9246 -1.1522
   17SAPC   C29 2188   2.232   0.692   9.262  0.0584 -0.2050 -1.3190
   17SAPC   H9R 2189   2.205   0.587   9.243 -0.5497 -0.6962  1.7675
   17SAPC  C210 2190   2.281   0.774   9.151 -0.1640  0.6009  0.3381
   17SAPC  H10R 2191   2.350   0.704   9.100  0.5466 -0.5622  2.7590
   17SAPC  H10S 2192   2.334   0.864   9.188  0.0155  0.7506 -0.2602
   17SAPC  C211 2193   2.165   0.825   9.069 -0.6575  0.3326 -0.7678
   17SAPC  H11R 2194   2.073   0.861   9.118 -0.3999  1.2378 -0.9426
   17SAPC  C212 2195   2.175   0.846   8.940  0.3035  0.3288 -0.1764
   17SAPC  H12R 2196   2.094   0.903   8.892 -1.2727 -0.4475  1.4234
   17SAPC  C213 2197   2.284   0.825   8.848 -0.5399 -0.2406  0.3943
   17SAPC  H13R 2198   2.365   0.764   8.892 -1.6941 -0.5184  2.2263
   17SAPC  H13S 2199   2.323   0.926   8.823 -2.7472  1.1810  2.2035
   17SAPC  C214 2200   2.224   0.749   8.734  0.0715 -0.1532 -0.1813
   17SAPC  H14R 2201   2.115   0.736   8.738  0.2526 -1.8017  0.1099
   17SAPC  C215 2202   2.294   0.695   8.631 -0.0800 -0.3225  0.2751
   17SAPC  H15R 2203   2.231   0.648   8.553  1.0293 -0.8440 -0.3320
   17SAPC  C216 2204   2.443   0.700   8.602 -0.2464  0.4632  0.9681
   17SAPC  H16R 2205   2.482   0.596   8.597  0.8857  0.9363 -2.7221
   17SAPC  H16S 2206   2.510   0.752   8.673  2.0509 -0.3140 -0.5298
   17SAPC  C217 2207   2.474   0.757   8.461 -0.0071 -0.0059  0.0939
   17SAPC  H17R 2208   2.411   0.701   8.388 -0.6645  0.3051  0.4187
   17SAPC  H17S 2209   2.582   0.736   8.445  0.0692 -0.2626  0.9052
   17SAPC  C218 2210   2.447   0.904   8.450 -0.1095 -0.6420  0.0788
   17SAPC  H18R 2211   2.490   0.946   8.543 -1.0462 -1.4657  0.8979
   17SAPC  H18S 2212   2.339   0.925   8.459  0.2621  2.0674 -0.8081
   17SAPC  C219 2213   2.513   0.962   8.327  0.3827 -1.1146 -0.4834
   17SAPC  H19R 2214   2.478   0.922   8.230  0.3049  2.0316 -1.8776
   17SAPC  H19S 2215   2.622   0.940   8.318  0.0683 -2.2171 -1.8104
   17SAPC  C220 2216   2.491   1.116   8.313  0.0100  0.4367 -0.3142
   17SAPC  H20R 2217   2.560   1.159   8.236  0.1492 -0.7260 -0.8548
   17SAPC  H20S 2218   2.499   1.161   8.414  0.8794 -2.1043  0.8169
   17SAPC  H20T 2219   2.385   1.143   8.289  0.1012 -0.0115 -1.2710
   17SAPC   C33 2220   2.342   1.373   9.451 -0.2437 -0.0497 -0.2139
   17SAPC   H3X 2221   2.238   1.413   9.452  0.1277  0.9674 -0.1347
   17SAPC   H3Y 2222   2.336   1.263   9.446 -1.0868  0.0266 -1.1757
   17SAPC   C34 2223   2.419   1.424   9.321  0.4302 -0.0528 -0.6246
   17SAPC   H4X 2224   2.517   1.373   9.325  0.9870  1.0052 -0.5078
   17SAPC   H4Y 2225   2.430   1.534   9.333 -0.7513  0.5450 -3.8480
   17SAPC   C35 2226   2.366   1.401   9.186  0.4245  0.7020  0.5235
   17SAPC   H5X 2227   2.299   1.487   9.161 -1.0125 -0.5312  0.0267
   17SAPC   H5Y 2228   2.314   1.304   9.175  0.6015  0.7762 -1.3496
   17SAPC   C36 2229   2.471   1.412   9.071 -0.2445 -0.6912 -0.7301
   17SAPC   H6X 2230   2.557   1.348   9.100 -0.2406  0.1152  1.1847
   17SAPC   H6Y 2231   2.515   1.514   9.069  2.6338 -1.7470  1.4035
   17SAPC   C37 2232   2.410   1.388   8.934  0.1315 -0.5417  0.8406
   17SAPC   H7X 2233   2.314   1.438   8.911 -0.1932 -0.8255  1.5516
   17SAPC   H7Y 2234   2.400   1.279   8.917 -0.3106 -0.3130 -0.4607
   17SAPC   C38 2235   2.514   1.440   8.843  0.2467 -0.0695  0.3600
   17SAPC   H8X 2236   2.617   1.416   8.877  1.2140  2.9954 -0.0544
   17SAPC   H8Y 2237   2.515   1.551   8.851  1.1405 -0.0128 -0.4467
   17SAPC   C39 2238   2.490   1.421   8.690 -0.5381 -0.0775  0.1112
   17SAPC   H9X 2239   2.492   1.312   8.666  1.3074 -0.7753  2.8895
   17SAPC   H9Y 2240   2.580   1.456   8.636 -0.4543 -1.3359 -0.6124
   17SAPC  C310 2241   2.361   1.482   8.641  0.3095 -0.7404 -0.1739
   17SAPC  H10X 2242   2.380   1.591   8.635  1.3127 -0.9331 -0.9280
   17SAPC  H10Y 2243   2.276   1.460   8.708 -2.8313  0.5426 -3.4516
   17SAPC  C311 2244   2.322   1.423   8.502 -0.4397 -0.3190 -0.4503
   17SAPC  H11X 2245   2.271   1.324   8.506 -1.4958  0.1167 -1.9461
   17SAPC  H11Y 2246   2.425   1.409   8.462 -0.7296 -2.0982 -0.6632
   17SAPC  C312 2247   2.239   1.515   8.409 -0.6522 -0.4035  0.1434
   17SAPC  H12X 2248   2.144   1.544   8.460 -0.7993  1.1123 -0.9166
   17SAPC  H12Y 2249   2.213   1.460   8.316 -0.7380  2.2978 -1.5435
   17SAPC  C313 2250   2.313   1.643   8.367  0.0271 -0.1168 -0.6570
   17SAPC  H13X 2251   2.409   1.634   8.311 -0.0113 -0.4353 -0.6740
   17SAPC  H13Y 2252   2.328   1.708   8.456 -0.6154 -0.4265 -0.3186
   17SAPC  C314 2253   2.223   1.742   8.280  0.4298  0.5038 -0.0867
   17SAPC  H14X 2254   2.216   1.836   8.339  0.8715  1.7139 -1.8817
   17SAPC  H14Y 2255   2.120   1.703   8.266 -0.0567  1.5413  0.4431
   17SAPC  C315 2256   2.290   1.794   8.150  0.1885 -0.3904 -0.3978
   17SAPC  H15X 2257   2.393   1.830   8.171 -0.3021 -0.5516  2.8254
   17SAPC  H15Y 2258   2.241   1.882   8.104 -0.8751 -0.9878 -0.4495
   17SAPC  C316 2259   2.307   1.682   8.048 -0.1604 -0.0121 -0.0605
   17SAPC  H16X 2260   2.214   1.652   7.995  0.3636 -0.8881 -0.5079
   17SAPC  H16Y 2261   2.362   1.593   8.084  1.3051  1.1944  0.8236
   17SAPC  C317 2262   2.389   1.727   7.923  0.1842 -0.1977 -0.7675
   17SAPC  H17X 2263   2.479   1.774   7.969 -0.6553 -0.5697  1.3496
   17SAPC  H17Y 2264   2.323   1.807   7.884 -1.7102 -1.9270 -1.2433
   17SAPC  C318 2265   2.430   1.619   7.832 -0.5563 -0.4496 -0.0221
   17SAPC  H18X 2266   2.345   1.553   7.806  0.1829 -1.4973  0.1523
   17SAPC  H18Y 2267   2.463   1.651   7.730 -0.6811 -1.7756 -0.4904
   17SAPC  H18Z 2268   2.507   1.552   7.876 -1.0032 -0.3948  0.8633
   18SAPC     N 2269   2.835   6.360  10.678  0.5059 -0.3674 -0.3871
   18SAPC   C12 2270   2.789   6.351  10.537  0.1338 -0.1877 -0.1249
   18SAPC  H12A 2271   2.706   6.283  10.533  0.6385 -0.8904  1.0406
   18SAPC  H12B 2272   2.860   6.299  10.474  0.1499 -3.0307  2.0590
   18SAPC   C13 2273   2.714   6.397  10.767 -0.6501 -0.0340  0.9730
   18SAPC  H13A 2274   2.749   6.428  10.864  0.5785  0.1194  0.4960
   18SAPC  H13B 2275   2.656   6.470  10.713 -1.4765 -0.9031  0.6458
   18SAPC  H13C 2276   2.658   6.304  10.767 -0.0019 -0.6380 -3.0645
   18SAPC   C14 2277   2.891   6.228  10.729  0.1548  0.3869  0.0244
   18SAPC  H14A 2278   2.882   6.208  10.835 -0.0613  2.9047  0.5420
   18SAPC  H14B 2279   2.833   6.153  10.677 -1.2361  1.0384  0.5682
   18SAPC  H14C 2280   2.996   6.221  10.705 -0.1382  1.0339 -1.5793
   18SAPC   C15 2281   2.946   6.461  10.685  0.1667 -0.2302 -0.0166
   18SAPC  H15A 2282   3.026   6.434  10.618  0.8259 -1.9546  1.3782
   18SAPC  H15B 2283   2.920   6.558  10.645  0.9854 -0.8793 -2.2879
   18SAPC  H15C 2284   2.996   6.470  10.781  0.5738 -0.2072 -0.2294
   18SAPC   C11 2285   2.745   6.477  10.465  0.4037  0.1278 -0.0414
   18SAPC  H11A 2286   2.669   6.530  10.526 -0.4675 -0.5206 -0.5340
   18SAPC  H11B 2287   2.693   6.450  10.370 -2.4022 -0.4576  1.5423
   18SAPC     P 2288   2.844   6.716  10.424  0.1535 -0.2126  0.0595
   18SAPC   O13 2289   2.814   6.780  10.552 -0.2964 -0.4394 -0.2838
   18SAPC   O14 2290   2.951   6.775  10.341 -0.4596  0.1856  0.2904
   18SAPC   O12 2291   2.862   6.561  10.446  0.6712 -0.0900  0.1193
   18SAPC   O11 2292   2.707   6.732  10.341 -0.0515 -0.3142 -0.1906
   18SAPC    C1 2293   2.692   6.828  10.236 -0.5061 -1.1102 -0.2596
   18SAPC    HA 2294   2.737   6.925  10.265 -0.5209 -1.0451 -0.4573
   18SAPC    HB 2295   2.743   6.779  10.150 -2.1392 -3.8426  0.2002
   18SAPC    C2 2296   2.538   6.832  10.197  0.9389  0.3448  0.4554
   18SAPC    HS 2297   2.480   6.857  10.288 -0.4444 -1.6462  0.1703
   18SAPC   O21 2298   2.499   6.698  10.153 -0.2848 -0.3583  0.6034
   18SAPC   C21 2299   2.373   6.666  10.175 -0.1952  0.7980 -0.5610
   18SAPC   O22 2300   2.288   6.731  10.231  0.3428  0.1748  0.0418
   18SAPC   C22 2301   2.354   6.519  10.135 -0.4960 -0.0242 -0.0977
   18SAPC   H2R 2302   2.444   6.468  10.176  0.3209  0.1111 -1.6140
   18SAPC   H2S 2303   2.265   6.480  10.188 -0.6073 -2.7591 -2.0689
   18SAPC    C3 2304   2.489   6.933  10.094  0.0589 -0.0360  0.1285
   18SAPC    HX 2305   2.507   7.037  10.126 -1.5284  0.9062 -1.8107
   18SAPC    HY 2306   2.378   6.931  10.096  0.0191  1.5042  1.5857
   18SAPC   O31 2307   2.548   6.907   9.966 -0.2094  0.2292 -0.5240
   18SAPC   C31 2308   2.469   6.880   9.867 -0.3957  0.3587 -0.2088
   18SAPC   O32 2309   2.349   6.901   9.856 -0.1958 -0.3940  0.0964
   18SAPC   C32 2310   2.551   6.797   9.775 -0.0103 -0.2197  0.2664
   18SAPC   H2X 2311   2.596   6.715   9.834 -1.0082  0.4766  2.0762
   18SAPC   H2Y 2312   2.624   6.868   9.732  0.5367 -0.7604  0.2901
   18SAPC   C23 2313   2.350   6.481   9.989  0.1984 -0.7536 -0.0727
   18SAPC   H3R 2314   2.447   6.518   9.949 -0.1207  0.2307  0.0363
   18SAPC   H3S 2315   2.262   6.534   9.945  0.3655  1.5929  2.1269
   18SAPC   C24 2316   2.341   6.333   9.969 -0.0113  0.2015  0.1635
   18SAPC   H4R 2317   2.428   6.276  10.007 -0.2058  0.3066  0.7751
   18SAPC   H4S 2318   2.339   6.314   9.859 -1.4033 -2.7130  0.5929
   18SAPC   C25 2319   2.208   6.269  10.015 -0.3141 -0.3104 -0.3494
   18SAPC   H5R 2320   2.203   6.221  10.114 -1.0784  0.8518  0.1828
   18SAPC   C26 2321   2.090   6.265   9.953  0.2413  0.5176  0.4131
   18SAPC   H6R 2322   2.017   6.216  10.019  0.4515  1.1085  1.0963
   18SAPC   C27 2323   2.061   6.314   9.818 -0.1473  0.6475 -0.1158
   18SAPC   H7R 2324   2.149   6.299   9.751 -0.7852 -2.7805 -0.3933
   18SAPC   H7S 2325   2.031   6.420   9.829  0.1931  0.8132 -0.7601
   18SAPC   C28 2326   1.950   6.228   9.758  0.6954  0.1229  0.4873
   18SAPC   H8R 2327   1.976   6.128   9.720 -0.6009 -0.2614  0.5595
   18SAPC   C29 2328   1.827   6.277   9.724 -0.5438  0.5361  0.1876
   18SAPC   H9R 2329   1.756   6.206   9.677 -0.2779 -0.0828  0.7135
   18SAPC  C210 2330   1.771   6.419   9.729  0.6149 -0.8091  0.2453
   18SAPC  H10R 2331   1.863   6.480   9.714  0.3086 -0.4033 -0.0012
   18SAPC  H10S 2332   1.715   6.433   9.824 -0.6246 -0.3530 -0.5415
   18SAPC  C211 2333   1.679   6.451   9.617  0.9974  0.7187  0.8745
   18SAPC  H11R 2334   1.726   6.505   9.534 -1.9735  1.3044 -0.5385
   18SAPC  C212 2335   1.552   6.415   9.608  0.3100 -0.0545  0.1058
   18SAPC  H12R 2336   1.503   6.431   9.511  2.0861  0.1033 -0.8126
   18SAPC  C213 2337   1.474   6.348   9.715  0.3543  0.5141  0.0789
   18SAPC  H13R 2338   1.378   6.404   9.716  0.2682  0.4377 -1.4819
   18SAPC  H13S 2339   1.513   6.357   9.819 -0.8946  1.0190  0.5173
   18SAPC  C214 2340   1.440   6.196   9.684  0.4433 -0.1988  0.0418
   18SAPC  H14R 2341   1.412   6.172   9.580  1.0879  0.2557 -0.2476
   18SAPC  C215 2342   1.440   6.103   9.776  0.2190  0.2759  0.2948
   18SAPC  H15R 2343   1.392   6.011   9.742 -0.4897  0.4876  0.7128
   18SAPC  C216 2344   1.463   6.124   9.923 -0.1607 -0.1612 -0.2532
   18SAPC  H16R 2345   1.417   6.212   9.972  0.0585 -0.3246  0.2544
   18SAPC  H16S 2346   1.572   6.131   9.941 -0.4632  0.2856  1.6216
   18SAPC  C217 2347   1.421   6.003  10.010  0.0941  0.3621  0.5148
   18SAPC  H17R 2348   1.491   5.925   9.975  0.8287  1.8475 -1.5747
   18SAPC  H17S 2349   1.314   5.977   9.991  0.2080  1.5963 -2.3963
   18SAPC  C218 2350   1.452   6.040  10.161  0.1663 -0.6225  0.4475
   18SAPC  H18R 2351   1.388   6.128  10.182  0.9764  0.0539  0.1252
   18SAPC  H18S 2352   1.560   6.062  10.169  0.3275 -1.1263 -0.2169
   18SAPC  C219 2353   1.417   5.914  10.244 -0.3536  0.1962  0.5306
   18SAPC  H19R 2354   1.475   5.825  10.213 -1.5304 -0.5985  0.5653
   18SAPC  H19S 2355   1.309   5.893  10.226 -0.1138 -0.2271 -0.4623
   18SAPC  C220 2356   1.436   5.937  10.387  0.2416 -0.4036  0.2656
   18SAPC  H20R 2357   1.393   5.857  10.452 -0.2346  2.1762  3.4002
   18SAPC  H20S 2358   1.390   6.029  10.427  1.5215 -0.4135  1.8826
   18SAPC  H20T 2359   1.545   5.946  10.411  1.0710 -1.5149 -2.7042
   18SAPC   C33 2360   2.465   6.727   9.672 -0.3973 -0.0984  0.8694
   18SAPC   H3X 2361   2.372   6.696   9.725 -2.2317  0.8959 -1.5274
   18SAPC   H3Y 2362   2.518   6.632   9.653  0.0670  0.2562  0.3740
   18SAPC   C34 2363   2.436   6.804   9.547 -0.9904 -0.1184  0.0467
   18SAPC   H4X 2364   2.401   6.904   9.580  1.7453 -0.0738  3.3800
   18SAPC   H4Y 2365   2.357   6.753   9.487 -2.0361  1.1485  0.2820
   18SAPC   C35 2366   2.562   6.812   9.463 -0.1136 -0.0747 -0.1056
   18SAPC   H5X 2367   2.611   6.713   9.464  0.0984  0.0007  1.8909
   18SAPC   H5Y 2368   2.649   6.873   9.498  0.2017  0.5072 -1.8142
   18SAPC   C36 2369   2.543   6.833   9.313  0.2514  0.4315  0.1230
   18SAPC   H6X 2370   2.646   6.834   9.270  0.0748  0.8668 -0.3013
   18SAPC   H6Y 2371   2.512   6.939   9.306  3.2382  1.5523  1.9853
   18SAPC   C37 2372   2.461   6.728   9.230  0.5159 -1.0186  0.4807
   18SAPC   H7X 2373   2.355   6.743   9.257  0.9047  1.5366  0.8721
   18SAPC   H7Y 2374   2.490   6.627   9.267 -2.4342 -1.6867  1.2072
   18SAPC   C38 2375   2.476   6.756   9.082 -0.9793  0.4171  0.7895
   18SAPC   H8X 2376   2.580   6.730   9.052 -1.5228 -2.8739  1.4333
   18SAPC   H8Y 2377   2.461   6.865   9.063  0.8529  0.8209  1.4939
   18SAPC   C39 2378   2.384   6.674   8.990 -0.2249  0.9334  0.1127
   18SAPC   H9X 2379   2.407   6.698   8.884 -1.2266 -0.4522 -0.4456
   18SAPC   H9Y 2380   2.279   6.696   9.017 -1.1500  0.3392 -2.6375
   18SAPC  C310 2381   2.395   6.516   9.008 -0.3133  0.2639  0.0247
   18SAPC  H10X 2382   2.337   6.501   9.101 -2.1716  2.6259 -0.6515
   18SAPC  H10Y 2383   2.503   6.491   9.015 -0.2438  0.3113 -0.7675
   18SAPC  C311 2384   2.327   6.442   8.894  0.0438 -0.3202 -0.0364
   18SAPC  H11X 2385   2.372   6.458   8.794  0.2020 -1.0323 -0.0811
   18SAPC  H11Y 2386   2.225   6.484   8.878  0.0138  0.3879  1.7551
   18SAPC  C312 2387   2.306   6.293   8.921  0.1471  0.8829 -0.7090
   18SAPC  H12X 2388   2.273   6.276   9.025  2.6151  0.2244  0.0456
   18SAPC  H12Y 2389   2.398   6.236   8.896  0.4053  2.0092 -2.5877
   18SAPC  C313 2390   2.200   6.232   8.827 -0.0053  0.7111  0.2241
   18SAPC  H13X 2391   2.218   6.275   8.726  0.9460  2.0667  0.9403
   18SAPC  H13Y 2392   2.104   6.277   8.860 -0.4721 -0.8926  1.1169
   18SAPC  C314 2393   2.184   6.073   8.827  0.5589 -0.6527  0.0003
   18SAPC  H14X 2394   2.273   6.022   8.785  0.5020  0.8445 -2.0872
   18SAPC  H14Y 2395   2.101   6.044   8.758 -0.4213 -1.8009  1.5751
   18SAPC  C315 2396   2.135   6.028   8.968  0.0041 -1.1688 -0.0578
   18SAPC  H15X 2397   2.044   6.085   8.994  0.5261 -0.4387  0.2142
   18SAPC  H15Y 2398   2.215   6.038   9.045 -0.7681  0.5398  0.5645
   18SAPC  C316 2399   2.094   5.878   8.959 -0.1638 -1.0680 -0.5688
   18SAPC  H16X 2400   2.156   5.836   9.040 -0.8806 -1.6080 -0.2902
   18SAPC  H16Y 2401   2.126   5.833   8.863 -1.1024 -2.4130 -0.2822
   18SAPC  C317 2402   1.945   5.851   8.984  0.2823  0.3820  0.0957
   18SAPC  H17X 2403   1.881   5.869   8.894 -3.3627 -1.1813  2.1431
   18SAPC  H17Y 2404   1.907   5.927   9.056 -1.1274 -0.4637  0.2894
   18SAPC  C318 2405   1.918   5.713   9.047  0.0768 -0.7501 -0.2438
   18SAPC  H18X 2406   1.975   5.718   9.142  0.6861  1.7375 -0.6590
   18SAPC  H18Y 2407   1.952   5.622   8.993 -3.0577 -2.3006  0.1723
   18SAPC  H18Z 2408   1.811   5.689   9.058 -0.0841 -1.3008 -2.5942
   19SAPC     N 2409   3.868   5.393  10.657 -0.4661  0.0324 -0.3534
   19SAPC   C12 2410   3.729   5.464  10.635 -0.3953 -0.1210  0.2165
   19SAPC  H12A 2411   3.668   5.445  10.722 -0.4721 -1.0120 -0.0177
   19SAPC  H12B 2412   3.671   5.409  10.563  1.3391 -0.3227 -1.0927
   19SAPC   C13 2413   3.943   5.397  10.533  1.1776  0.0119  0.6268
   19SAPC  H13A 2414   3.924   5.490  10.482  4.2103  0.0124 -0.7198
   19SAPC  H13B 2415   4.051   5.395  10.542  1.0883  1.5457  2.8515
   19SAPC  H13C 2416   3.921   5.308  10.476 -2.0795  0.2261  1.3824
   19SAPC   C14 2417   3.936   5.459  10.774 -0.4594  0.6456 -0.4136
   19SAPC  H14A 2418   3.876   5.438  10.861 -1.4576  0.2027 -1.1785
   19SAPC  H14B 2419   4.033   5.426  10.808  0.5407  3.0554 -0.7403
   19SAPC  H14C 2420   3.940   5.566  10.760 -2.0688  0.6634 -1.0549
   19SAPC   C15 2421   3.843   5.252  10.688 -0.1314 -0.6254  0.8759
   19SAPC  H15A 2422   3.934   5.200  10.714 -0.5585 -0.1745  3.4996
   19SAPC  H15B 2423   3.785   5.238  10.778 -2.5777 -1.5533 -0.7468
   19SAPC  H15C 2424   3.799   5.197  10.606  0.7850  0.1654 -0.1870
   19SAPC   C11 2425   3.716   5.608  10.594 -0.1699 -0.4451  0.5259
   19SAPC  H11A 2426   3.785   5.657  10.666 -0.3532  1.5079 -0.5525
   19SAPC  H11B 2427   3.614   5.651  10.597  0.1586  0.3278  0.8191
   19SAPC     P 2428   3.688   5.586  10.334  0.4091 -0.2452  0.0322
   19SAPC   O13 2429   3.762   5.606  10.208  0.1099  0.4220 -0.3153
   19SAPC   O14 2430   3.629   5.448  10.357 -0.1615  0.3394  0.2736
   19SAPC   O12 2431   3.769   5.620  10.459 -0.0204 -0.0972 -0.5275
   19SAPC   O11 2432   3.563   5.685  10.338 -0.3769  0.9513  0.1283
   19SAPC    C1 2433   3.569   5.818  10.377 -0.2136  0.2967 -0.2230
   19SAPC    HA 2434   3.507   5.830  10.468  1.5899 -0.4908  1.1779
   19SAPC    HB 2435   3.672   5.841  10.413 -0.6149 -0.4688  1.4935
   19SAPC    C2 2436   3.524   5.917  10.267 -0.8508  0.1922  0.0348
   19SAPC    HS 2437   3.417   5.894  10.249 -0.6090  0.1840 -1.4788
   19SAPC   O21 2438   3.619   5.906  10.157  0.2816 -0.6610 -0.7333
   19SAPC   C21 2439   3.563   5.845  10.058 -0.4600  0.2263 -0.0378
   19SAPC   O22 2440   3.454   5.786  10.056  0.0527 -0.1446 -0.0224
   19SAPC   C22 2441   3.661   5.847   9.943 -0.3806  0.0394 -0.6606
   19SAPC   H2R 2442   3.716   5.944   9.941  1.8897 -1.1767 -0.3772
   19SAPC   H2S 2443   3.732   5.764   9.962  3.2284  3.0511  0.2334
   19SAPC    C3 2444   3.520   6.065  10.316  0.3970  0.3023 -0.3121
   19SAPC    HX 2445   3.610   6.064  10.381 -0.3583 -0.1225  0.7582
   19SAPC    HY 2446   3.431   6.080  10.380  0.4404  0.8004 -0.3614
   19SAPC   O31 2447   3.526   6.165  10.209 -0.0034  0.2000 -0.2117
   19SAPC   C31 2448   3.429   6.166  10.123  0.4897  0.5131  0.3502
   19SAPC   O32 2449   3.338   6.087  10.130 -0.0316 -0.2147  0.7902
   19SAPC   C32 2450   3.441   6.275  10.022 -0.0985 -0.2640  0.9742
   19SAPC   H2X 2451   3.506   6.356  10.062 -0.6774  1.0148 -0.5767
   19SAPC   H2Y 2452   3.344   6.328  10.023 -0.5939 -1.1544  1.8916
   19SAPC   C23 2453   3.585   5.831   9.815 -0.2268 -0.8888 -0.4470
   19SAPC   H3R 2454   3.501   5.903   9.814 -0.3234 -0.9569  0.8744
   19SAPC   H3S 2455   3.542   5.729   9.809 -0.2795 -0.9235  0.4905
   19SAPC   C24 2456   3.666   5.868   9.680  0.4025  0.5126  0.4233
   19SAPC   H4R 2457   3.704   5.971   9.700 -0.9866  0.5573  3.3467
   19SAPC   H4S 2458   3.608   5.877   9.586  2.2144  2.0000 -0.6071
   19SAPC   C25 2459   3.777   5.771   9.646  1.0500  0.4782 -0.2712
   19SAPC   H5R 2460   3.805   5.715   9.736 -1.9935 -0.2387  0.3295
   19SAPC   C26 2461   3.838   5.754   9.532  0.3913  0.2594 -0.0861
   19SAPC   H6R 2462   3.916   5.678   9.519  1.5193  1.5709 -1.4267
   19SAPC   C27 2463   3.826   5.843   9.413  0.1625  0.3215 -0.2846
   19SAPC   H7R 2464   3.789   5.939   9.456  0.0239 -0.4680  1.4268
   19SAPC   H7S 2465   3.746   5.791   9.356 -0.4035 -1.1291  1.7453
   19SAPC   C28 2466   3.951   5.855   9.327  0.3964  0.7888 -0.4899
   19SAPC   H8R 2467   4.040   5.849   9.392 -0.1056 -0.0478  0.1551
   19SAPC   C29 2468   3.960   5.868   9.198  0.3696  0.5250 -0.4123
   19SAPC   H9R 2469   4.062   5.866   9.157 -0.1072 -2.4410 -1.7253
   19SAPC  C210 2470   3.851   5.883   9.098  0.3093 -0.3290  0.4879
   19SAPC  H10R 2471   3.892   5.959   9.029 -1.0223 -1.1759 -1.3123
   19SAPC  H10S 2472   3.761   5.922   9.148 -0.0008 -1.0615  0.5197
   19SAPC  C211 2473   3.821   5.758   9.019 -0.5906  0.5626  0.1690
   19SAPC  H11R 2474   3.808   5.671   9.084  1.3670 -0.0177 -0.1371
   19SAPC  C212 2475   3.841   5.743   8.885 -0.5139 -0.4099  0.7240
   19SAPC  H12R 2476   3.827   5.641   8.845 -2.3249  0.6131 -1.4272
   19SAPC  C213 2477   3.898   5.849   8.796  0.5113 -0.8021 -0.2603
   19SAPC  H13R 2478   3.996   5.885   8.833 -0.2134 -0.5872  1.5289
   19SAPC  H13S 2479   3.829   5.935   8.810  1.3251 -0.3591  1.2099
   19SAPC  C214 2480   3.912   5.806   8.653 -1.1658 -0.5605  0.0865
   19SAPC  H14R 2481   4.018   5.796   8.625 -1.5451 -0.6318 -1.3897
   19SAPC  C215 2482   3.815   5.768   8.576 -0.1728 -0.4693 -0.6679
   19SAPC  H15R 2483   3.834   5.735   8.473 -0.7756  0.6707 -1.1641
   19SAPC  C216 2484   3.667   5.779   8.609 -0.2922  0.0355  0.0846
   19SAPC  H16R 2485   3.651   5.826   8.708 -1.2551  0.4182 -0.2427
   19SAPC  H16S 2486   3.620   5.678   8.616 -1.5092  0.6133  0.5265
   19SAPC  C217 2487   3.583   5.864   8.512  0.0607  0.7003  0.5429
   19SAPC  H17R 2488   3.596   5.818   8.412 -0.9898 -0.9833  1.1335
   19SAPC  H17S 2489   3.617   5.970   8.505 -3.4516  1.8720 -2.4512
   19SAPC  C218 2490   3.427   5.866   8.537 -0.5777  0.2789  0.0524
   19SAPC  H18R 2491   3.404   5.913   8.635  0.2762 -1.4886  1.1503
   19SAPC  H18S 2492   3.395   5.760   8.540 -0.3861  0.1783 -1.0760
   19SAPC  C219 2493   3.352   5.917   8.421  0.3016 -0.4697 -0.7047
   19SAPC  H19R 2494   3.363   5.834   8.348  2.2882  0.7208 -1.8409
   19SAPC  H19S 2495   3.399   6.010   8.385 -0.4655  0.3413  0.3400
   19SAPC  C220 2496   3.198   5.933   8.447 -0.3656 -0.3665 -0.1213
   19SAPC  H20R 2497   3.155   5.987   8.360  0.5345  1.2486  0.3854
   19SAPC  H20S 2498   3.181   6.000   8.534  1.1348  1.5294 -1.2080
   19SAPC  H20T 2499   3.138   5.842   8.468  0.3234 -0.9584 -0.6628
   19SAPC   C33 2500   3.469   6.224   9.875 -0.1486  0.5397  0.3546
   19SAPC   H3X 2501   3.554   6.153   9.886  0.3945  1.0030 -0.6873
   19SAPC   H3Y 2502   3.494   6.311   9.811  0.0535  0.0746 -0.2028
   19SAPC   C34 2503   3.354   6.138   9.808 -0.5864 -0.5216  0.5713
   19SAPC   H4X 2504   3.262   6.201   9.803  0.7915  1.8060  2.6072
   19SAPC   H4Y 2505   3.334   6.047   9.869  2.4119 -1.4055  0.3605
   19SAPC   C35 2506   3.374   6.096   9.657 -0.5975 -0.0270 -0.2249
   19SAPC   H5X 2507   3.296   6.017   9.650  0.1755 -0.9286  0.9059
   19SAPC   H5Y 2508   3.468   6.040   9.638 -0.9411 -0.6682 -0.1003
   19SAPC   C36 2509   3.356   6.207   9.551  0.3088  0.4350 -0.3728
   19SAPC   H6X 2510   3.457   6.251   9.537  0.9480 -0.1706  1.9245
   19SAPC   H6Y 2511   3.283   6.287   9.574 -0.4133  0.4768 -2.5117
   19SAPC   C37 2512   3.318   6.148   9.421 -0.6429  0.1868  0.0153
   19SAPC   H7X 2513   3.330   6.224   9.341 -1.7124  3.0267  2.3594
   19SAPC   H7Y 2514   3.210   6.124   9.413 -0.4189 -1.0247  0.4293
   19SAPC   C38 2515   3.397   6.027   9.371  0.0617 -0.8568  0.3647
   19SAPC   H8X 2516   3.392   5.958   9.458  2.7541 -1.8693 -0.1925
   19SAPC   H8Y 2517   3.505   6.053   9.370  0.2967 -1.7311 -2.0554
   19SAPC   C39 2518   3.346   5.965   9.247 -0.3754 -0.4663 -0.0504
   19SAPC   H9X 2519   3.239   5.941   9.265 -0.1156  0.1969  2.9273
   19SAPC   H9Y 2520   3.399   5.868   9.237 -1.4204 -1.1094  0.3748
   19SAPC  C310 2521   3.347   6.062   9.126 -0.2724  0.7032  0.6805
   19SAPC  H10X 2522   3.449   6.080   9.087 -0.9270  0.1065 -1.4663
   19SAPC  H10Y 2523   3.292   6.158   9.136 -1.5456  0.1706 -0.8099
   19SAPC  C311 2524   3.277   5.994   9.003  0.3500  0.2183  0.1145
   19SAPC  H11X 2525   3.171   5.986   9.034  0.3559  3.1393  1.2841
   19SAPC  H11Y 2526   3.315   5.892   8.981 -0.9590 -0.6252  1.5916
   19SAPC  C312 2527   3.282   6.081   8.880  0.0987 -0.4668  1.1221
   19SAPC  H12X 2528   3.246   6.024   8.791  1.8173  1.6238 -1.0440
   19SAPC  H12Y 2529   3.387   6.096   8.848 -0.4319  4.0302  0.8209
   19SAPC  C313 2530   3.196   6.208   8.883  0.7960 -0.2215 -0.6190
   19SAPC  H13X 2531   3.222   6.284   8.960  0.6114 -2.2229  1.5351
   19SAPC  H13Y 2532   3.104   6.172   8.933  0.8217  0.7179  0.1526
   19SAPC  C314 2533   3.155   6.255   8.745 -0.3177  0.0107 -0.4353
   19SAPC  H14X 2534   3.103   6.352   8.759 -0.8778 -0.3278 -0.0939
   19SAPC  H14Y 2535   3.083   6.181   8.703 -1.1912  0.0240  0.9517
   19SAPC  C315 2536   3.260   6.279   8.644 -0.2604  0.4922 -0.2259
   19SAPC  H15X 2537   3.317   6.188   8.617 -2.6237 -1.0126 -0.4507
   19SAPC  H15Y 2538   3.321   6.364   8.680 -1.6145  2.7587 -2.9063
   19SAPC  C316 2539   3.199   6.327   8.511 -0.6053  0.0101  0.1562
   19SAPC  H16X 2540   3.126   6.407   8.534 -1.4917 -1.1696  1.6301
   19SAPC  H16Y 2541   3.146   6.243   8.461 -1.1760  0.7601 -0.5343
   19SAPC  C317 2542   3.303   6.372   8.412  0.1033 -0.0830  0.6006
   19SAPC  H17X 2543   3.368   6.285   8.388  0.7720 -0.0072  2.0378
   19SAPC  H17Y 2544   3.356   6.463   8.449 -0.3882  0.9856 -1.1956
   19SAPC  C318 2545   3.227   6.427   8.293  0.7334 -0.1224 -0.2655
   19SAPC  H18X 2546   3.145   6.361   8.257  1.4796 -2.5111  2.1149
   19SAPC  H18Y 2547   3.295   6.442   8.206  0.9385 -3.8344 -0.9092
   19SAPC  H18Z 2548   3.190   6.530   8.311 -0.2873 -0.7215  1.1803
   20SAPC     N 2549   4.258   3.031  10.773  0.1716  0.5953  0.6338
   20SAPC   C12 2550   4.343   2.974  10.657  0.6496 -0.4528  0.4874
   20SAPC  H12A 2551   4.274   2.929  10.587 -1.1314  0.6807  1.4404
   20SAPC  H12B 2552   4.394   2.891  10.704 -2.0421 -1.6162  1.5617
   20SAPC   C13 2553   4.337   3.087  10.873 -0.6031 -0.2071 -0.1189
   20SAPC  H13A 2554   4.409   3.026  10.924  2.8876  3.2619 -0.4222
   20SAPC  H13B 2555   4.389   3.174  10.836 -0.9054 -0.8236 -2.1187
   20SAPC  H13C 2556   4.277   3.122  10.956  0.6962  0.9815  0.3577
   20SAPC   C14 2557   4.165   3.142  10.729 -0.2622 -0.4708  0.3725
   20SAPC  H14A 2558   4.110   3.168  10.818  0.2402 -0.2613  0.6284
   20SAPC  H14B 2559   4.223   3.218  10.679 -2.0765 -1.5064 -3.6780
   20SAPC  H14C 2560   4.094   3.107  10.656 -0.8042  0.4676  0.4356
   20SAPC   C15 2561   4.173   2.919  10.829 -0.7063 -0.5721 -1.1537
   20SAPC  H15A 2562   4.118   2.974  10.904 -0.2540 -0.6799 -0.7375
   20SAPC  H15B 2563   4.109   2.874  10.755 -1.2651 -1.3005 -0.2503
   20SAPC  H15C 2564   4.240   2.845  10.871 -2.0430  0.5018  3.4198
   20SAPC   C11 2565   4.443   3.065  10.581  0.6774  0.6388  0.3722
   20SAPC  H11A 2566   4.410   3.171  10.578 -0.2797  0.3927  1.5698
   20SAPC  H11B 2567   4.456   3.026  10.478 -3.3813 -0.9561  0.2849
   20SAPC     P 2568   4.702   2.985  10.594 -0.0323  0.2487 -0.2574
   20SAPC   O13 2569   4.818   3.061  10.651  0.9432 -0.5534  0.1284
   20SAPC   O14 2570   4.687   2.845  10.636  0.1481 -0.3176 -0.6417
   20SAPC   O12 2571   4.569   3.060  10.642  0.2826 -0.1460  0.7354
   20SAPC   O11 2572   4.697   2.996  10.433 -0.3984 -0.2324 -0.3001
   20SAPC    C1 2573   4.793   3.081  10.371 -0.2107  0.0403 -0.1347
   20SAPC    HA 2574   4.774   3.188  10.393  2.4608  0.2123  1.7230
   20SAPC    HB 2575   4.899   3.061  10.397 -0.8548 -3.2955  0.4157
   20SAPC    C2 2576   4.778   3.075  10.218 -0.0461  0.2862 -0.1420
   20SAPC    HS 2577   4.872   3.123  10.183  1.0748 -2.1260 -0.6896
   20SAPC   O21 2578   4.662   3.145  10.176 -0.6030  0.1872 -0.6165
   20SAPC   C21 2579   4.658   3.215  10.057 -0.1376 -0.1263 -0.5998
   20SAPC   O22 2580   4.754   3.226   9.984  0.1067  0.4241 -0.3152
   20SAPC   C22 2581   4.530   3.296  10.043  0.0297  0.4568  0.1600
   20SAPC   H2R 2582   4.447   3.228  10.072 -0.3163  1.2821  1.1317
   20SAPC   H2S 2583   4.524   3.380  10.115  1.0027  1.5547 -1.0134
   20SAPC    C3 2584   4.784   2.931  10.166  0.0590  0.0442  0.4983
   20SAPC    HX 2585   4.695   2.878  10.208 -1.2366  0.8546 -1.1305
   20SAPC    HY 2586   4.872   2.872  10.200 -0.4059 -0.5909  0.6231
   20SAPC   O31 2587   4.788   2.931  10.021  0.2673 -0.0290  0.3964
   20SAPC   C31 2588   4.904   2.968   9.971 -0.5560  0.2196  0.3337
   20SAPC   O32 2589   5.006   2.979  10.037  0.5394  0.0189 -0.2267
   20SAPC   C32 2590   4.883   2.983   9.824 -0.1090  0.4453 -0.1087
   20SAPC   H2X 2591   4.801   3.056   9.802 -0.8762 -0.5372 -0.5748
   20SAPC   H2Y 2592   4.871   2.884   9.775  0.3053 -0.2159  1.0854
   20SAPC   C23 2593   4.501   3.345   9.896  0.8218  0.1641  0.4821
   20SAPC   H3R 2594   4.391   3.358   9.890  0.6484  0.3756  3.0782
   20SAPC   H3S 2595   4.531   3.278   9.813 -0.8811 -0.5450  0.3977
   20SAPC   C24 2596   4.552   3.485   9.865  0.6775  0.2881  0.2349
   20SAPC   H4R 2597   4.662   3.489   9.854  0.6750 -1.7522 -1.0033
   20SAPC   H4S 2598   4.520   3.553   9.947 -3.0816  1.5857 -2.0332
   20SAPC   C25 2599   4.489   3.527   9.735  0.2255  0.5895  0.2072
   20SAPC   H5R 2600   4.395   3.583   9.745  0.1332  0.5273 -0.2563
   20SAPC   C26 2601   4.550   3.528   9.612  0.9104  0.0500 -0.2255
   20SAPC   H6R 2602   4.495   3.558   9.522 -1.4217 -2.1663  0.3566
   20SAPC   C27 2603   4.682   3.486   9.570  0.1534  0.9437  0.3276
   20SAPC   H7R 2604   4.664   3.401   9.501 -2.4862 -0.6985  2.7790
   20SAPC   H7S 2605   4.735   3.430   9.651  2.2336 -1.0155 -2.2264
   20SAPC   C28 2606   4.771   3.590   9.509  0.0971 -0.5681  0.5386
   20SAPC   H8R 2607   4.839   3.641   9.578  0.4677  0.0496 -0.2596
   20SAPC   C29 2608   4.768   3.619   9.380  0.1285  0.3068  0.0223
   20SAPC   H9R 2609   4.836   3.697   9.341  0.7930 -0.2257  0.1062
   20SAPC  C210 2610   4.677   3.551   9.286 -0.0239 -0.0798  0.4779
   20SAPC  H10R 2611   4.574   3.542   9.325  0.3298 -0.7522  1.3046
   20SAPC  H10S 2612   4.703   3.443   9.278 -1.6224 -0.3143 -3.7341
   20SAPC  C211 2613   4.667   3.592   9.142  0.1342 -0.1629 -0.6847
   20SAPC  H11R 2614   4.575   3.642   9.109  2.5301  3.6289 -2.2215
   20SAPC  C212 2615   4.775   3.574   9.059  0.3515 -0.0889 -0.0018
   20SAPC  H12R 2616   4.745   3.590   8.955 -0.6441 -1.0999  0.1102
   20SAPC  C213 2617   4.909   3.514   9.088 -0.1417 -0.1488 -0.2678
   20SAPC  H13R 2618   4.917   3.463   9.186 -0.4965  0.3765  0.0379
   20SAPC  H13S 2619   4.993   3.585   9.104 -3.1464  3.3114  1.5873
   20SAPC  C214 2620   4.937   3.417   8.970  0.7406 -0.8796 -0.1809
   20SAPC  H14R 2621   4.851   3.349   8.963  0.8268 -1.0571  0.4179
   20SAPC  C215 2622   5.047   3.402   8.897 -0.1167 -0.3054  0.0192
   20SAPC  H15R 2623   5.050   3.335   8.810  1.8502  0.5857 -0.6567
   20SAPC  C216 2624   5.170   3.484   8.911  0.0661  0.3799 -0.7135
   20SAPC  H16R 2625   5.197   3.481   9.019  1.9615  3.0291 -1.0128
   20SAPC  H16S 2626   5.138   3.587   8.881 -4.9902 -0.4577  0.8248
   20SAPC  C217 2627   5.282   3.437   8.814 -0.4521 -0.0632  0.1734
   20SAPC  H17R 2628   5.312   3.331   8.832 -0.0801  0.4339  3.0525
   20SAPC  H17S 2629   5.373   3.498   8.834 -0.1622 -0.3753 -0.1802
   20SAPC  C218 2630   5.256   3.481   8.668 -0.6310  0.5544  0.4419
   20SAPC  H18R 2631   5.260   3.590   8.649  1.2392  0.0997 -2.3687
   20SAPC  H18S 2632   5.157   3.445   8.633 -0.2164 -0.6804  0.5050
   20SAPC  C219 2633   5.357   3.424   8.567 -0.2933  0.0069 -0.0546
   20SAPC  H19R 2634   5.332   3.467   8.468  4.0309  1.4797 -0.7569
   20SAPC  H19S 2635   5.345   3.313   8.569 -1.1975  0.1043  0.2503
   20SAPC  C220 2636   5.502   3.439   8.600 -0.0410 -0.4539 -0.1947
   20SAPC  H20R 2637   5.520   3.421   8.708  0.5152 -0.5155 -0.2913
   20SAPC  H20S 2638   5.542   3.543   8.594  1.3188 -0.7779  2.0945
   20SAPC  H20T 2639   5.563   3.361   8.549 -0.4630 -1.5355  0.9029
   20SAPC   C33 2640   5.006   3.053   9.758 -0.5340 -0.8061 -0.4953
   20SAPC   H3X 2641   5.093   2.989   9.783  0.3171  0.5810  0.2289
   20SAPC   H3Y 2642   5.041   3.150   9.801  1.4323 -1.9944  0.7105
   20SAPC   C34 2643   5.000   3.054   9.607  0.1129 -1.0296  0.0762
   20SAPC   H4X 2644   4.935   2.972   9.570  0.5030 -2.2709  2.0009
   20SAPC   H4Y 2645   5.103   3.043   9.566  1.0541 -2.4964  2.6080
   20SAPC   C35 2646   4.959   3.193   9.555  1.3348 -0.6683 -0.1974
   20SAPC   H5X 2647   5.024   3.272   9.599 -0.5869  0.9604 -0.1152
   20SAPC   H5Y 2648   4.858   3.218   9.595  1.9902  0.9016  0.5638
   20SAPC   C36 2649   4.932   3.189   9.399 -0.3823 -0.9525 -0.3841
   20SAPC   H6X 2650   5.038   3.179   9.366  0.6737  1.1634  2.0229
   20SAPC   H6Y 2651   4.899   3.294   9.381 -0.1031 -0.4727  1.6839
   20SAPC   C37 2652   4.861   3.071   9.336 -0.5174  0.1114  0.4927
   20SAPC   H7X 2653   4.750   3.074   9.348 -0.4747 -0.5794  1.1578
   20SAPC   H7Y 2654   4.892   2.971   9.372 -0.8589 -0.2446 -0.1643
   20SAPC   C38 2655   4.885   3.064   9.182  0.5369  0.4160 -0.0561
   20SAPC   H8X 2656   4.874   3.162   9.130  3.8482 -0.1733 -2.1688
   20SAPC   H8Y 2657   4.818   2.990   9.134 -1.6463  0.8848  2.0700
   20SAPC   C39 2658   5.031   3.030   9.152  0.4078 -0.7032  0.0845
   20SAPC   H9X 2659   5.072   2.943   9.206  2.4274 -1.1242 -1.9564
   20SAPC   H9Y 2660   5.092   3.116   9.189 -1.5670  0.8156  0.0165
   20SAPC  C310 2661   5.053   3.006   9.004 -0.0393 -0.5276 -0.4557
   20SAPC  H10X 2662   4.985   3.080   8.955 -2.7718 -1.1854  2.0753
   20SAPC  H10Y 2663   5.022   2.902   8.980 -1.1230 -0.2343 -0.3630
   20SAPC  C311 2664   5.202   3.030   8.960  0.0436 -0.4665  0.2923
   20SAPC  H11X 2665   5.266   2.974   9.031 -1.1718 -1.1609  0.8749
   20SAPC  H11Y 2666   5.223   3.139   8.959 -0.3333 -0.3901 -0.4717
   20SAPC  C312 2667   5.246   2.977   8.820  0.1478 -0.0213  0.0772
   20SAPC  H12X 2668   5.180   3.002   8.734 -0.4528 -0.6923  0.3340
   20SAPC  H12Y 2669   5.242   2.867   8.832  3.1513 -0.0542  1.9058
   20SAPC  C313 2670   5.386   3.028   8.785  0.4186 -0.2265  0.5893
   20SAPC  H13X 2671   5.384   3.139   8.775  0.6652 -0.3224 -0.6247
   20SAPC  H13Y 2672   5.428   2.991   8.689  0.9150 -1.8332  1.3818
   20SAPC  C314 2673   5.501   2.988   8.883  0.4547 -0.1409  0.8939
   20SAPC  H14X 2674   5.500   2.878   8.894 -1.5989 -0.1069  1.4417
   20SAPC  H14Y 2675   5.486   3.043   8.979  2.1092  3.2742 -0.6405
   20SAPC  C315 2676   5.644   3.037   8.834 -0.0346  0.0296  0.2931
   20SAPC  H15X 2677   5.700   3.059   8.927 -0.3364  1.0808  0.2406
   20SAPC  H15Y 2678   5.631   3.141   8.796 -0.9665 -0.6793 -1.4377
   20SAPC  C316 2679   5.703   2.959   8.720 -0.8517 -0.1533 -0.2307
   20SAPC  H16X 2680   5.632   2.951   8.635  1.2243  0.1419 -2.0727
   20SAPC  H16Y 2681   5.716   2.854   8.757  1.9901  0.1793 -0.0383
   20SAPC  C317 2682   5.841   2.991   8.659  0.5586 -0.0548  0.1222
   20SAPC  H17X 2683   5.859   2.910   8.584 -1.4508  1.6694 -2.3979
   20SAPC  H17Y 2684   5.914   2.981   8.741  0.8219 -0.5944 -0.1706
   20SAPC  C318 2685   5.844   3.121   8.577 -0.5450  0.4962 -0.5544
   20SAPC  H18X 2686   5.809   3.211   8.632 -2.3338  0.0899 -0.9758
   20SAPC  H18Y 2687   5.778   3.115   8.488 -0.3412  0.2868 -0.6935
   20SAPC  H18Z 2688   5.948   3.142   8.544 -0.4548 -0.0167 -0.6113
   21SAPC     N 2689   3.084   3.713  10.930 -0.0841  0.0996  0.3445
   21SAPC   C12 2690   3.202   3.767  10.844  0.2553  0.3785 -0.6087
   21SAPC  H12A 2691   3.140   3.815  10.769 -0.1591  1.4185  0.3743
   21SAPC  H12B 2692   3.254   3.681  10.805 -2.1279 -1.1565 -0.6620
   21SAPC   C13 2693   3.131   3.680  11.070  0.5222 -0.0001 -0.2809
   21SAPC  H13A 2694   3.058   3.612  11.109 -1.1221  0.2045 -2.7519
   21SAPC  H13B 2695   3.229   3.635  11.069 -0.0449 -1.2845  0.6691
   21SAPC  H13C 2696   3.140   3.767  11.134 -0.1798 -0.9146  1.1133
   21SAPC   C14 2697   2.968   3.806  10.939  0.5766 -0.2963  0.5030
   21SAPC  H14A 2698   2.924   3.824  10.843  0.2088  2.3393  1.0921
   21SAPC  H14B 2699   2.891   3.753  10.993 -0.6648 -1.7679 -2.5333
   21SAPC  H14C 2700   2.991   3.898  10.991 -1.5452  0.1565  0.7161
   21SAPC   C15 2701   3.039   3.585  10.865  0.4022  0.6411 -0.0371
   21SAPC  H15A 2702   2.971   3.520  10.918 -0.1777 -1.9504 -3.5590
   21SAPC  H15B 2703   2.992   3.610  10.771  2.0927  0.0660 -1.0866
   21SAPC  H15C 2704   3.127   3.528  10.838  0.9277  1.2206  0.4245
   21SAPC   C11 2705   3.287   3.878  10.907  0.7164 -0.4199 -1.0759
   21SAPC  H11A 2706   3.358   3.918  10.832 -1.7030  3.0645 -1.7373
   21SAPC  H11B 2707   3.354   3.838  10.987  3.2833 -0.4807 -3.1202
   21SAPC     P 2708   3.175   4.122  10.903 -0.2199  0.3551 -0.4343
   21SAPC   O13 2709   3.039   4.167  10.934 -0.0817  0.2146 -0.5824
   21SAPC   O14 2710   3.283   4.211  10.941  0.3677  0.4239  0.4345
   21SAPC   O12 2711   3.201   3.983  10.960 -0.6522  0.5670 -0.5194
   21SAPC   O11 2712   3.179   4.101  10.745  0.5548  0.0874  0.4958
   21SAPC    C1 2713   3.295   4.135  10.672 -0.2616  0.0835 -0.1132
   21SAPC    HA 2714   3.382   4.152  10.740 -0.5416  1.6858 -0.1122
   21SAPC    HB 2715   3.319   4.061  10.593  3.3350 -0.0768  0.9380
   21SAPC    C2 2716   3.268   4.269  10.597 -0.1732 -0.0208  0.1132
   21SAPC    HS 2717   3.229   4.340  10.673 -1.3325  0.1774 -0.6482
   21SAPC   O21 2718   3.167   4.229  10.501  0.0814  0.0270  0.5408
   21SAPC   C21 2719   3.040   4.236  10.539 -0.3429  0.3340  0.4038
   21SAPC   O22 2720   2.999   4.305  10.631 -0.5940  0.5248  0.5338
   21SAPC   C22 2721   2.957   4.138  10.442  0.0420 -0.5794  0.5107
   21SAPC   H2R 2722   3.028   4.072  10.388 -0.9074  0.0842 -1.6648
   21SAPC   H2S 2723   2.892   4.075  10.506  0.6617 -0.5544  1.1769
   21SAPC    C3 2724   3.383   4.322  10.517  0.4790  0.2779  0.0543
   21SAPC    HX 2725   3.467   4.345  10.585  0.3679  1.3207 -0.1404
   21SAPC    HY 2726   3.342   4.419  10.481 -2.4497 -0.3521  1.4010
   21SAPC   O31 2727   3.432   4.227  10.411  0.9691 -0.3261  0.1725
   21SAPC   C31 2728   3.401   4.260  10.291  0.5688  0.5842 -0.2144
   21SAPC   O32 2729   3.403   4.374  10.251  0.2795 -0.5836  0.5418
   21SAPC   C32 2730   3.378   4.134  10.198  0.2591 -0.3645  0.3179
   21SAPC   H2X 2731   3.338   4.054  10.264 -0.2655  1.2669  2.1036
   21SAPC   H2Y 2732   3.484   4.116  10.172 -0.1785 -1.3376 -0.8645
   21SAPC   C23 2733   2.874   4.235  10.350 -0.0305  0.2157 -0.4808
   21SAPC   H3R 2734   2.940   4.319  10.321  1.3040 -0.2312  1.0979
   21SAPC   H3S 2735   2.795   4.278  10.416  1.2082  0.4193  0.9279
   21SAPC   C24 2736   2.810   4.161  10.233 -0.1256 -0.0386  0.7785
   21SAPC   H4R 2737   2.784   4.055  10.257 -0.1579 -1.4353 -4.3641
   21SAPC   H4S 2738   2.885   4.145  10.152 -0.4202  2.5886 -0.0989
   21SAPC   C25 2739   2.693   4.233  10.175  0.1567 -0.4704 -0.0330
   21SAPC   H5R 2740   2.630   4.263  10.261  0.5395 -2.2910  0.9211
   21SAPC   C26 2741   2.662   4.252  10.051  0.1272  0.4575 -0.1403
   21SAPC   H6R 2742   2.571   4.309  10.026 -1.1276 -1.5069 -0.2568
   21SAPC   C27 2743   2.727   4.214   9.921  0.1790 -0.6202 -0.4078
   21SAPC   H7R 2744   2.659   4.143   9.868 -1.0982  0.5836 -0.4474
   21SAPC   H7S 2745   2.826   4.170   9.943  0.2289  1.1065  3.6619
   21SAPC   C28 2746   2.756   4.336   9.843 -0.7140 -0.4550  0.6343
   21SAPC   H8R 2747   2.828   4.405   9.891 -1.5352  1.4458 -0.7249
   21SAPC   C29 2748   2.701   4.382   9.724  0.1761  0.1493 -0.1020
   21SAPC   H9R 2749   2.741   4.475   9.681 -0.5538  0.3963 -0.2748
   21SAPC  C210 2750   2.592   4.306   9.646  0.4985 -0.4916  0.4087
   21SAPC  H10R 2751   2.562   4.214   9.701  1.0945 -0.5920  0.5682
   21SAPC  H10S 2752   2.645   4.261   9.559  1.0780  0.8957  0.0098
   21SAPC  C211 2753   2.467   4.383   9.611  0.0205  0.2957 -0.2363
   21SAPC  H11R 2754   2.430   4.446   9.693  0.4894  0.6856 -0.3159
   21SAPC  C212 2755   2.393   4.389   9.496  0.7313  0.2076  0.1068
   21SAPC  H12R 2756   2.314   4.465   9.492 -0.3699 -0.9671 -2.2133
   21SAPC  C213 2757   2.411   4.318   9.366 -0.2775  0.6878  0.7273
   21SAPC  H13R 2758   2.314   4.326   9.312 -0.5296  1.8542  1.3073
   21SAPC  H13S 2759   2.437   4.212   9.384  1.5567  0.8129 -0.8798
   21SAPC  C214 2760   2.526   4.375   9.284 -0.7951 -0.0100 -0.1057
   21SAPC  H14R 2761   2.607   4.421   9.343  0.1432 -1.8567  0.1163
   21SAPC  C215 2762   2.538   4.361   9.152  0.1736  0.9221  0.5301
   21SAPC  H15R 2763   2.630   4.398   9.104  1.1306 -0.2316  1.4047
   21SAPC  C216 2764   2.431   4.297   9.059  0.0137  0.1381 -0.0148
   21SAPC  H16R 2765   2.329   4.290   9.104  0.6526 -0.4434  1.4185
   21SAPC  H16S 2766   2.472   4.196   9.036  1.5087  0.4943  0.9325
   21SAPC  C217 2767   2.422   4.381   8.922  0.8176  0.9912 -0.5915
   21SAPC  H17R 2768   2.524   4.411   8.890  0.5893 -0.3819 -2.8297
   21SAPC  H17S 2769   2.366   4.473   8.948  0.4274 -0.0763  2.9197
   21SAPC  C218 2770   2.330   4.306   8.824  0.2410  0.4700 -0.1518
   21SAPC  H18R 2771   2.241   4.258   8.870  1.6093 -2.2793 -0.1479
   21SAPC  H18S 2772   2.387   4.228   8.770 -0.7784  0.3830 -1.1215
   21SAPC  C219 2773   2.279   4.407   8.718 -0.3524  0.1845  0.0955
   21SAPC  H19R 2774   2.224   4.484   8.775  2.1996  2.6747 -0.5775
   21SAPC  H19S 2775   2.206   4.346   8.659  0.3366 -0.6234  0.0466
   21SAPC  C220 2776   2.386   4.476   8.634  0.2646  0.2264  0.2431
   21SAPC  H20R 2777   2.435   4.400   8.570  1.8203  1.7183 -0.4016
   21SAPC  H20S 2778   2.458   4.530   8.699  0.2205  1.6984 -0.8976
   21SAPC  H20T 2779   2.340   4.550   8.565 -1.0865 -0.3085  0.5326
   21SAPC   C33 2780   3.286   4.174  10.081  0.1176 -0.1606  0.8891
   21SAPC   H3X 2781   3.199   4.231  10.121 -0.9677 -1.8447  1.0099
   21SAPC   H3Y 2782   3.248   4.076  10.045 -1.1405  0.7103 -0.2695
   21SAPC   C34 2783   3.347   4.230   9.953 -0.0985 -0.7096  0.3668
   21SAPC   H4X 2784   3.427   4.158   9.922  0.6880 -0.3257  1.4264
   21SAPC   H4Y 2785   3.390   4.329   9.979  1.1580 -1.8180  2.7660
   21SAPC   C35 2786   3.246   4.252   9.834 -0.4559 -0.3702  0.7221
   21SAPC   H5X 2787   3.152   4.303   9.867 -0.6895  0.1745 -0.7115
   21SAPC   H5Y 2788   3.226   4.152   9.790 -0.0836 -0.4423  0.7144
   21SAPC   C36 2789   3.306   4.341   9.725 -0.3898  0.6922  0.4250
   21SAPC   H6X 2790   3.402   4.296   9.692 -1.0983 -1.1602  0.7568
   21SAPC   H6Y 2791   3.329   4.442   9.766 -0.1552  1.5717 -1.7696
   21SAPC   C37 2792   3.216   4.356   9.598  0.1792 -0.4539  0.0504
   21SAPC   H7X 2793   3.120   4.402   9.630  0.4859 -0.0767  0.4366
   21SAPC   H7Y 2794   3.189   4.256   9.559 -1.1324 -0.8672  1.8872
   21SAPC   C38 2795   3.284   4.437   9.490  0.4778  0.0033 -0.2707
   21SAPC   H8X 2796   3.383   4.387   9.482  0.0472 -0.8553 -0.4074
   21SAPC   H8Y 2797   3.307   4.542   9.519 -1.0086  0.4844 -0.7160
   21SAPC   C39 2798   3.198   4.438   9.360 -0.7869 -0.0768  0.3648
   21SAPC   H9X 2799   3.236   4.521   9.296 -1.2624 -0.1636 -0.0352
   21SAPC   H9Y 2800   3.092   4.461   9.382 -0.9778 -1.0569  0.4900
   21SAPC  C310 2801   3.207   4.314   9.268 -0.3466 -0.2558  0.3264
   21SAPC  H10X 2802   3.223   4.223   9.329  1.5520  0.3155  0.7493
   21SAPC  H10Y 2803   3.299   4.324   9.205 -0.2995 -0.5632  0.3471
   21SAPC  C311 2804   3.083   4.281   9.189 -0.4834  0.3999  0.1833
   21SAPC  H11X 2805   3.039   4.375   9.150 -4.5763 -1.2482  0.3655
   21SAPC  H11Y 2806   3.002   4.237   9.251 -1.9398  0.7503 -1.4071
   21SAPC  C312 2807   3.113   4.188   9.070  0.1256  0.5376  0.0426
   21SAPC  H12X 2808   3.128   4.085   9.107 -0.6699 -0.2256 -1.6619
   21SAPC  H12Y 2809   3.198   4.226   9.009  0.7504 -0.0113  0.5607
   21SAPC  C313 2810   2.988   4.174   8.987 -0.5312 -0.3839  0.3012
   21SAPC  H13X 2811   2.894   4.155   9.043  0.1378 -2.8571  0.7253
   21SAPC  H13Y 2812   2.999   4.079   8.930  0.0372 -0.2282  0.1449
   21SAPC  C314 2813   2.976   4.285   8.887 -0.5332  0.5854 -0.8498
   21SAPC  H14X 2814   2.987   4.382   8.940 -0.3840  0.0659  0.0876
   21SAPC  H14Y 2815   2.875   4.302   8.846  0.5967  1.4817 -3.5261
   21SAPC  C315 2816   3.085   4.267   8.774  1.0906 -0.3787  0.4948
   21SAPC  H15X 2817   3.159   4.192   8.810  0.5168 -0.9776  0.4454
   21SAPC  H15Y 2818   3.132   4.367   8.760 -0.4103  0.3770  0.5946
   21SAPC  C316 2819   3.032   4.225   8.642  0.0456 -0.2341  0.5782
   21SAPC  H16X 2820   2.949   4.284   8.599  0.1200 -1.2740 -1.0682
   21SAPC  H16Y 2821   2.981   4.128   8.663 -0.9588  0.2398  0.3716
   21SAPC  C317 2822   3.134   4.212   8.530 -0.5113 -0.3086  0.1051
   21SAPC  H17X 2823   3.167   4.312   8.496  2.4078 -1.5333 -1.0258
   21SAPC  H17Y 2824   3.087   4.162   8.443  1.3242 -0.7784 -0.6587
   21SAPC  C318 2825   3.253   4.126   8.562  0.4373  0.2674  0.4931
   21SAPC  H18X 2826   3.210   4.024   8.571 -1.2593  0.7339 -1.6232
   21SAPC  H18Y 2827   3.305   4.140   8.659  1.1976  0.1859  0.1076
   21SAPC  H18Z 2828   3.330   4.134   8.482 -1.1364  0.5837 -1.0404
   22SAPC     N 2829   5.243   0.916  10.642 -0.6721  0.3186  0.1997
   22SAPC   C12 2830   5.110   0.861  10.587 -0.2481  0.8918 -0.6509
   22SAPC  H12A 2831   5.063   0.820  10.675  0.4908 -0.3536 -0.8055
   22SAPC  H12B 2832   5.130   0.780  10.518 -2.9454 -1.0723  0.7128
   22SAPC   C13 2833   5.314   0.794  10.707 -0.3554  0.0058 -0.3085
   22SAPC  H13A 2834   5.421   0.808  10.720  0.1925 -1.8397 -2.3385
   22SAPC  H13B 2835   5.258   0.755  10.790 -0.2350  1.6101  0.5662
   22SAPC  H13C 2836   5.314   0.718  10.631  1.8469 -0.3902  0.0132
   22SAPC   C14 2837   5.332   0.958  10.531  0.2119 -0.6290 -0.1135
   22SAPC  H14A 2838   5.279   1.038  10.481  0.4172 -0.0322  0.5970
   22SAPC  H14B 2839   5.433   0.992  10.549  0.8407 -2.2671 -0.4237
   22SAPC  H14C 2840   5.343   0.880  10.457 -0.3527 -0.4765 -0.3605
   22SAPC   C15 2841   5.212   1.008  10.755 -0.6693 -0.8888 -0.9237
   22SAPC  H15A 2842   5.299   1.058  10.794 -2.3221  0.5238  1.2011
   22SAPC  H15B 2843   5.123   1.064  10.731 -0.6074 -0.1887  0.3887
   22SAPC  H15C 2844   5.171   0.951  10.838 -0.1357  0.0335  0.0003
   22SAPC   C11 2845   5.006   0.963  10.528  0.4922 -0.9967  1.0016
   22SAPC  H11A 2846   4.919   0.898  10.505 -0.8662 -0.5821  4.4346
   22SAPC  H11B 2847   5.058   1.001  10.438 -1.5954 -0.4460 -0.0373
   22SAPC     P 2848   4.826   1.097  10.653 -0.1980 -0.4192 -0.1648
   22SAPC   O13 2849   4.774   0.972  10.708 -0.0154 -0.4084 -0.4962
   22SAPC   O14 2850   4.821   1.215  10.744  0.0247 -0.6717  0.1678
   22SAPC   O12 2851   4.970   1.068  10.618 -0.1679  0.7194  0.5739
   22SAPC   O11 2852   4.765   1.125  10.506  0.0127  0.4414 -0.4480
   22SAPC    C1 2853   4.733   1.258  10.475 -0.4395 -0.2063 -0.1605
   22SAPC    HA 2854   4.630   1.281  10.509 -0.9188  0.4650 -1.9515
   22SAPC    HB 2855   4.814   1.321  10.516 -0.6999 -0.3003  0.5148
   22SAPC    C2 2856   4.741   1.310  10.330  0.2156  0.0474 -0.0216
   22SAPC    HS 2857   4.727   1.420  10.337 -1.7072 -0.1094 -0.7668
   22SAPC   O21 2858   4.628   1.254  10.257  0.3179  0.1116 -0.4108
   22SAPC   C21 2859   4.577   1.325  10.158  0.6258  0.1269 -0.2983
   22SAPC   O22 2860   4.609   1.437  10.125 -0.0456 -0.0993  0.3204
   22SAPC   C22 2861   4.462   1.251  10.101 -0.2927  0.2676  0.4147
   22SAPC   H2R 2862   4.487   1.148  10.067  1.5938  0.7333  0.2764
   22SAPC   H2S 2863   4.388   1.240  10.183 -0.0345 -1.2994  0.4742
   22SAPC    C3 2864   4.884   1.279  10.271  0.1765  0.3234  0.5488
   22SAPC    HX 2865   4.905   1.171  10.282 -0.0441  0.2629  0.3857
   22SAPC    HY 2866   4.960   1.336  10.328  0.0459 -0.3911  1.4653
   22SAPC   O31 2867   4.892   1.318  10.126  0.1654 -0.0279 -0.2740
   22SAPC   C31 2868   4.920   1.445  10.108 -0.8951 -0.5389 -0.1174
   22SAPC   O32 2869   4.938   1.531  10.198  0.3692  0.1489  0.5625
   22SAPC   C32 2870   4.911   1.480   9.960  0.1334 -0.2001  0.4186
   22SAPC   H2X 2871   4.805   1.460   9.935 -0.2195  0.6454  1.1674
   22SAPC   H2Y 2872   4.982   1.409   9.912  0.2500  0.4077 -0.3184
   22SAPC   C23 2873   4.403   1.324   9.978 -0.1517 -0.2005  0.1431
   22SAPC   H3R 2874   4.379   1.431   9.994  1.6131  0.3023 -0.3974
   22SAPC   H3S 2875   4.299   1.284   9.971 -2.5135  4.8702  1.8119
   22SAPC   C24 2876   4.469   1.300   9.841  0.4047 -0.2168 -0.4550
   22SAPC   H4R 2877   4.383   1.294   9.771  0.1493 -0.2302 -0.1445
   22SAPC   H4S 2878   4.513   1.198   9.839  1.3739  0.1914 -0.3855
   22SAPC   C25 2879   4.563   1.411   9.804  0.5984  0.0450 -0.6520
   22SAPC   H5R 2880   4.616   1.468   9.882 -0.4578 -1.5848  1.3553
   22SAPC   C26 2881   4.564   1.476   9.685  0.3033  0.2452 -0.4881
   22SAPC   H6R 2882   4.636   1.557   9.668  0.4900  0.2673  0.3518
   22SAPC   C27 2883   4.477   1.455   9.566  1.1489  0.3418 -0.7515
   22SAPC   H7R 2884   4.386   1.399   9.597 -0.7457  3.0162 -1.0425
   22SAPC   H7S 2885   4.525   1.398   9.484  0.5165 -1.1225 -0.1422
   22SAPC   C28 2886   4.418   1.589   9.518  0.4258  0.2902  0.3028
   22SAPC   H8R 2887   4.336   1.636   9.573  0.0847  0.3933 -0.2853
   22SAPC   C29 2888   4.456   1.646   9.406  0.6316 -0.9182 -0.6651
   22SAPC   H9R 2889   4.404   1.742   9.386 -1.5209 -0.7149  4.4576
   22SAPC  C210 2890   4.565   1.607   9.312 -0.8392 -0.2354  0.1112
   22SAPC  H10R 2891   4.649   1.568   9.373  0.1357  0.4918 -0.7477
   22SAPC  H10S 2892   4.608   1.698   9.266  0.4218 -1.4013 -1.1233
   22SAPC  C211 2893   4.518   1.509   9.207 -0.1846 -0.0215 -0.1303
   22SAPC  H11R 2894   4.469   1.426   9.260 -0.7502 -1.0956 -2.1947
   22SAPC  C212 2895   4.528   1.498   9.070 -0.4495 -0.5429 -0.2558
   22SAPC  H12R 2896   4.465   1.422   9.021 -0.4735 -2.1046  2.0337
   22SAPC  C213 2897   4.611   1.589   8.975  0.3331  0.4981  0.1581
   22SAPC  H13R 2898   4.710   1.543   8.953  0.8663  1.6640  0.0352
   22SAPC  H13S 2899   4.639   1.685   9.024  1.0898  0.0030  0.7185
   22SAPC  C214 2900   4.536   1.616   8.841  0.1046  0.5869 -0.3461
   22SAPC  H14R 2901   4.439   1.664   8.859 -0.2585 -0.9397  2.3863
   22SAPC  C215 2902   4.563   1.588   8.714 -0.6205  0.7521 -0.3149
   22SAPC  H15R 2903   4.481   1.606   8.643 -1.1668  1.2465  0.4226
   22SAPC  C216 2904   4.689   1.533   8.649 -0.0573  0.4859 -0.1290
   22SAPC  H16R 2905   4.665   1.433   8.607 -2.3124  0.9329 -0.0415
   22SAPC  H16S 2906   4.765   1.514   8.728 -0.0498  0.1795 -0.2088
   22SAPC  C217 2907   4.765   1.611   8.539 -0.4451 -0.1703  0.2795
   22SAPC  H17R 2908   4.864   1.649   8.570 -1.2744  3.2377 -0.8621
   22SAPC  H17S 2909   4.713   1.706   8.514 -1.4227 -1.2456 -2.1267
   22SAPC  C218 2910   4.778   1.535   8.401  0.7978 -0.5170  0.0121
   22SAPC  H18R 2911   4.685   1.527   8.341  0.0735 -0.1727  1.0581
   22SAPC  H18S 2912   4.818   1.434   8.423  2.5122  0.0779 -0.2385
   22SAPC  C219 2913   4.879   1.609   8.310 -0.0426 -0.1892 -0.2861
   22SAPC  H19R 2914   4.905   1.530   8.236 -3.2522 -0.0904 -1.6841
   22SAPC  H19S 2915   4.963   1.635   8.378 -0.2504  1.3196 -0.5712
   22SAPC  C220 2916   4.829   1.741   8.246  0.0736  0.3090  0.0634
   22SAPC  H20R 2917   4.741   1.734   8.179  1.5747  3.4276 -2.5413
   22SAPC  H20S 2918   4.905   1.800   8.190 -0.0355 -0.1272 -0.5506
   22SAPC  H20T 2919   4.803   1.814   8.325  0.6212  0.0213  0.5161
   22SAPC   C33 2920   4.955   1.620   9.929 -0.8440  0.4560  0.2644
   22SAPC   H3X 2921   5.066   1.625   9.934 -0.7280 -1.6161  0.9164
   22SAPC   H3Y 2922   4.919   1.696  10.001  1.3901  0.9405  0.9586
   22SAPC   C34 2923   4.916   1.664   9.789 -0.0145 -0.0603  0.3948
   22SAPC   H4X 2924   4.972   1.755   9.760  1.4303 -1.1805 -0.4542
   22SAPC   H4Y 2925   4.806   1.680   9.795 -0.2113 -1.7232  2.3155
   22SAPC   C35 2926   4.940   1.562   9.677 -0.2389  0.2350  0.4811
   22SAPC   H5X 2927   4.873   1.474   9.687  1.9349 -1.6022 -0.1316
   22SAPC   H5Y 2928   5.040   1.514   9.687 -0.4580 -0.8853 -2.0375
   22SAPC   C36 2929   4.934   1.619   9.532  0.7179 -0.4344 -0.3041
   22SAPC   H6X 2930   5.027   1.678   9.515  0.5567  0.0487  0.4596
   22SAPC   H6Y 2931   4.853   1.693   9.514  0.3636  0.3219  3.5578
   22SAPC   C37 2932   4.938   1.518   9.415 -0.0755 -0.1088 -0.1232
   22SAPC   H7X 2933   4.845   1.459   9.426 -0.9061  0.8697 -1.5074
   22SAPC   H7Y 2934   5.027   1.455   9.435 -0.8611 -1.1024  0.3348
   22SAPC   C38 2935   4.939   1.576   9.275  0.2795 -0.5240  0.0250
   22SAPC   H8X 2936   5.027   1.643   9.267  0.3771 -0.6552 -0.0015
   22SAPC   H8Y 2937   4.852   1.641   9.253  1.2331  0.5989 -0.5289
   22SAPC   C39 2938   4.963   1.468   9.172  0.1621  0.7641  0.5862
   22SAPC   H9X 2939   4.871   1.409   9.156  0.0461  0.7847  1.1532
   22SAPC   H9Y 2940   5.032   1.394   9.218 -2.3834 -0.5671  2.5174
   22SAPC  C310 2941   5.021   1.518   9.048 -0.4959  0.0115  0.3321
   22SAPC  H10X 2942   5.129   1.536   9.067 -0.2530 -2.2211  1.4336
   22SAPC  H10Y 2943   4.974   1.617   9.028  0.2528  0.7586  2.0120
   22SAPC  C311 2944   5.018   1.434   8.919 -0.3238 -0.1658 -0.3285
   22SAPC  H11X 2945   4.914   1.415   8.885  0.1545 -0.4887 -1.6626
   22SAPC  H11Y 2946   5.073   1.342   8.948 -0.4106 -0.0583  0.1931
   22SAPC  C312 2947   5.086   1.509   8.801  0.2870 -0.3776  0.0092
   22SAPC  H12X 2948   5.195   1.515   8.822  0.3700 -0.4270 -0.3858
   22SAPC  H12Y 2949   5.054   1.616   8.796  1.4442  0.1385  2.2495
   22SAPC  C313 2950   5.070   1.434   8.665 -0.2705 -0.1969 -0.5868
   22SAPC  H13X 2951   5.122   1.496   8.588 -1.7155 -0.2327 -1.6477
   22SAPC  H13Y 2952   4.969   1.437   8.619 -0.4574 -4.4660 -0.7665
   22SAPC  C314 2953   5.109   1.289   8.661  0.4091 -0.1982  0.3858
   22SAPC  H14X 2954   5.046   1.221   8.722 -1.0284 -0.5475 -1.3885
   22SAPC  H14Y 2955   5.209   1.289   8.708  0.7257  1.1379 -0.2313
   22SAPC  C315 2956   5.135   1.228   8.521  0.4834  0.4528  0.0396
   22SAPC  H15X 2957   5.201   1.300   8.467 -0.2370  1.5241  0.5416
   22SAPC  H15Y 2958   5.032   1.222   8.481  0.1668 -1.6696  1.0446
   22SAPC  C316 2959   5.195   1.087   8.530  1.0111  0.2391  0.1611
   22SAPC  H16X 2960   5.148   1.034   8.615  0.2676  0.7193  0.0586
   22SAPC  H16Y 2961   5.303   1.087   8.559  1.2293 -0.4119 -0.5963
   22SAPC  C317 2962   5.181   1.000   8.404 -0.4986 -0.3610 -0.1970
   22SAPC  H17X 2963   5.077   1.008   8.365 -1.0163 -1.7786  0.7977
   22SAPC  H17Y 2964   5.191   0.895   8.439  1.7588 -0.3165 -0.5480
   22SAPC  C318 2965   5.278   1.032   8.291  0.0770  0.4587 -0.2074
   22SAPC  H18X 2966   5.277   0.936   8.235 -1.3846  0.9946 -1.1688
   22SAPC  H18Y 2967   5.381   1.053   8.324  0.8790 -2.2428 -0.7344
   22SAPC  H18Z 2968   5.246   1.118   8.228  0.9272 -0.2502 -1.6494
   23SAPC     N 2969   6.503   1.706  10.794  0.3983  0.2080  0.1276
   23SAPC   C12 2970   6.585   1.737  10.672 -0.3128  0.2355 -0.1803
   23SAPC  H12A 2971   6.526   1.725  10.583  0.9285  4.2929 -1.7978
   23SAPC  H12B 2972   6.671   1.673  10.661 -0.8920 -0.2371 -2.4473
   23SAPC   C13 2973   6.481   1.559  10.810  0.7690  0.1810  0.0548
   23SAPC  H13A 2974   6.580   1.521  10.828  0.6591 -0.1009  0.0648
   23SAPC  H13B 2975   6.423   1.540  10.900  0.5690  1.8268  0.3098
   23SAPC  H13C 2976   6.434   1.508  10.728  1.9985 -0.9125 -0.0032
   23SAPC   C14 2977   6.563   1.757  10.920  0.3872 -0.3116  0.3858
   23SAPC  H14A 2978   6.643   1.693  10.957  0.0945 -1.7939 -1.4199
   23SAPC  H14B 2979   6.590   1.861  10.917 -1.5323  0.2973  2.2395
   23SAPC  H14C 2980   6.491   1.747  11.000  1.4402  1.4272  1.6206
   23SAPC   C15 2981   6.378   1.779  10.775  0.1282  0.2176 -0.4307
   23SAPC  H15A 2982   6.312   1.741  10.698 -0.8376 -1.7537  1.2655
   23SAPC  H15B 2983   6.316   1.767  10.863  2.3801 -0.8136  1.1063
   23SAPC  H15C 2984   6.394   1.885  10.761 -1.9153  0.7984  1.0706
   23SAPC   C11 2985   6.640   1.887  10.671 -0.3114  0.4593  0.4038
   23SAPC  H11A 2986   6.549   1.948  10.687  0.7906  2.4121 -0.4374
   23SAPC  H11B 2987   6.671   1.918  10.569 -1.8644 -0.1241 -0.2773
   23SAPC     P 2988   6.891   1.863  10.757 -0.0441  0.6156  0.1058
   23SAPC   O13 2989   6.971   1.928  10.864  0.9309 -0.0401 -0.4642
   23SAPC   O14 2990   6.897   1.714  10.746 -0.5248 -0.2697  0.3413
   23SAPC   O12 2991   6.738   1.912  10.778 -0.3018 -0.2225 -0.6433
   23SAPC   O11 2992   6.934   1.923  10.617  0.1303  0.0747 -0.2563
   23SAPC    C1 2993   6.927   2.066  10.607  0.5946 -0.4525  0.6449
   23SAPC    HA 2994   6.821   2.094  10.591  1.1234  1.2599 -0.0600
   23SAPC    HB 2995   6.964   2.118  10.698 -2.2154  1.7664  0.6486
   23SAPC    C2 2996   7.015   2.133  10.498  0.3492 -0.4570  0.7754
   23SAPC    HS 2997   7.015   2.242  10.519 -2.5788 -0.4098  0.9168
   23SAPC   O21 2998   6.946   2.103  10.377  0.4145  0.4047 -0.0990
   23SAPC   C21 2999   6.977   2.165  10.264  0.3785  0.5451  0.2979
   23SAPC   O22 3000   7.045   2.270  10.258  0.7204 -0.2394 -0.4143
   23SAPC   C22 3001   6.903   2.097  10.148  0.2495 -0.6233  0.6271
   23SAPC   H2R 3002   6.901   1.986  10.150 -0.8509 -0.6439 -0.4612
   23SAPC   H2S 3003   6.803   2.144  10.151  0.2245 -0.4817 -1.3694
   23SAPC    C3 3004   7.165   2.082  10.516  0.2670  0.3725  0.2645
   23SAPC    HX 3005   7.196   2.112  10.618 -0.8453  2.2665  0.0900
   23SAPC    HY 3006   7.226   2.148  10.452 -2.8090  1.1139 -2.1755
   23SAPC   O31 3007   7.197   1.944  10.485  0.4146 -0.7281 -0.0483
   23SAPC   C31 3008   7.259   1.911  10.375  0.3952 -0.5541  1.2337
   23SAPC   O32 3009   7.282   1.984  10.279  0.9075 -0.4202 -0.4774
   23SAPC   C32 3010   7.284   1.761  10.394 -0.2262  0.0765  0.4489
   23SAPC   H2X 3011   7.190   1.712  10.426  1.0048 -1.7771  1.3538
   23SAPC   H2Y 3012   7.362   1.745  10.471  0.4498 -3.3456 -0.7867
   23SAPC   C23 3013   6.973   2.133  10.007  0.0098  1.4600  0.4993
   23SAPC   H3R 3014   7.059   2.064   9.993 -1.1776  0.4257 -2.2066
   23SAPC   H3S 3015   7.018   2.235  10.012  2.5118  0.4203  1.2363
   23SAPC   C24 3016   6.870   2.126   9.891 -0.1873 -0.4942 -0.0228
   23SAPC   H4R 3017   6.894   2.178   9.797  0.1350 -2.3456 -1.0144
   23SAPC   H4S 3018   6.776   2.177   9.920 -0.3701  0.0707 -1.5457
   23SAPC   C25 3019   6.837   1.983   9.876 -0.0772  0.4334  0.6378
   23SAPC   H5R 3020   6.811   1.923   9.964 -0.3032  1.3917  1.2463
   23SAPC   C26 3021   6.822   1.923   9.755 -0.3544  0.3248  0.1545
   23SAPC   H6R 3022   6.788   1.819   9.747 -0.8638  0.5716 -1.0530
   23SAPC   C27 3023   6.832   1.979   9.624 -0.0844 -0.3302 -0.2223
   23SAPC   H7R 3024   6.804   2.086   9.614  4.3326  0.9258 -1.0648
   23SAPC   H7S 3025   6.761   1.923   9.560  0.2204 -2.2132  1.0284
   23SAPC   C28 3026   6.973   1.968   9.571  0.4970 -0.0555  0.2402
   23SAPC   H8R 3027   7.053   2.001   9.639 -0.2748  2.0828  0.1845
   23SAPC   C29 3028   7.005   1.919   9.454 -0.0925  0.5956  0.3636
   23SAPC   H9R 3029   7.114   1.910   9.438  0.6881  2.9675  3.4406
   23SAPC  C210 3030   6.912   1.848   9.351 -0.0333  0.0545  0.3143
   23SAPC  H10R 3031   6.822   1.913   9.346 -1.8167 -2.3722 -3.2177
   23SAPC  H10S 3032   6.879   1.747   9.383  1.1531 -0.2303  0.6958
   23SAPC  C211 3033   6.976   1.828   9.217  0.8066  0.2990  0.6198
   23SAPC  H11R 3034   7.085   1.846   9.215  0.9569 -0.3596 -1.9775
   23SAPC  C212 3035   6.910   1.793   9.101 -0.1754 -0.1238 -0.8575
   23SAPC  H12R 3036   6.974   1.786   9.012 -1.2022  0.4054 -1.6452
   23SAPC  C213 3037   6.759   1.767   9.075 -0.2191  0.3969  0.3842
   23SAPC  H13R 3038   6.720   1.848   9.010 -1.8975 -1.6004 -1.1999
   23SAPC  H13S 3039   6.698   1.771   9.168  0.1741  1.0109  0.6249
   23SAPC  C214 3040   6.754   1.625   9.023 -0.2311  0.1718  0.0751
   23SAPC  H14R 3041   6.808   1.548   9.080 -0.1252 -0.7895 -1.2886
   23SAPC  C215 3042   6.702   1.590   8.902 -0.0554  0.2273  0.6190
   23SAPC  H15R 3043   6.702   1.490   8.857  0.9296  1.7086 -2.9991
   23SAPC  C216 3044   6.624   1.682   8.815 -0.2166 -0.3666 -0.2337
   23SAPC  H16R 3045   6.606   1.778   8.869 -0.3981 -0.4625 -0.1257
   23SAPC  H16S 3046   6.531   1.635   8.777 -1.0315  2.0796 -1.5052
   23SAPC  C217 3047   6.719   1.720   8.697  0.0871  0.7497 -0.6506
   23SAPC  H17R 3048   6.767   1.631   8.652 -1.3207 -0.3168 -0.1186
   23SAPC  H17S 3049   6.800   1.789   8.730  1.6490 -0.8942 -0.9130
   23SAPC  C218 3050   6.636   1.789   8.594  0.1604  0.1853  0.0403
   23SAPC  H18R 3051   6.562   1.855   8.643  0.3838 -0.3949  1.1822
   23SAPC  H18S 3052   6.572   1.711   8.548 -0.5333  0.4440  0.5570
   23SAPC  C219 3053   6.718   1.866   8.490  0.2945 -0.1570 -0.2344
   23SAPC  H19R 3054   6.796   1.807   8.436  1.3253  0.1860  0.8355
   23SAPC  H19S 3055   6.766   1.951   8.544  0.4602 -1.6825  2.1669
   23SAPC  C220 3056   6.627   1.916   8.372 -0.6255  0.0739 -0.0068
   23SAPC  H20R 3057   6.557   1.989   8.418 -2.1239 -1.9102  0.9689
   23SAPC  H20S 3058   6.568   1.834   8.327 -0.9819  0.8555 -1.0045
   23SAPC  H20T 3059   6.694   1.959   8.294  1.2269 -0.5095  1.1900
   23SAPC   C33 3060   7.330   1.702  10.257  0.3545 -0.1492 -0.0839
   23SAPC   H3X 3061   7.380   1.603  10.271  0.3180 -0.4535 -1.8319
   23SAPC   H3Y 3062   7.408   1.761  10.204  1.1460 -1.3832 -0.3519
   23SAPC   C34 3063   7.210   1.689  10.153  0.5958 -0.1296  0.1934
   23SAPC   H4X 3064   7.172   1.791  10.132  1.7061 -0.3319 -3.3104
   23SAPC   H4Y 3065   7.129   1.618  10.183  1.4531 -0.1791  2.6930
   23SAPC   C35 3066   7.261   1.634  10.025 -0.1987 -1.1102 -0.1699
   23SAPC   H5X 3067   7.366   1.669  10.013 -0.3180 -0.2354  1.1161
   23SAPC   H5Y 3068   7.203   1.669   9.937  1.3501 -1.4220 -1.3637
   23SAPC   C36 3069   7.267   1.480  10.023 -0.2457  0.1629  0.3066
   23SAPC   H6X 3070   7.167   1.433  10.038 -0.1881  0.7660  2.9351
   23SAPC   H6Y 3071   7.333   1.446  10.106  3.8127  2.5444 -1.6544
   23SAPC   C37 3072   7.321   1.418   9.896 -0.3721 -0.2977  0.5747
   23SAPC   H7X 3073   7.278   1.315   9.885  0.8713 -0.7043 -0.7956
   23SAPC   H7Y 3074   7.431   1.412   9.905 -0.2790 -1.4815 -0.8148
   23SAPC   C38 3075   7.278   1.487   9.768 -0.5504  0.0999  0.0242
   23SAPC   H8X 3076   7.332   1.584   9.759  2.2841 -1.3688  0.1747
   23SAPC   H8Y 3077   7.172   1.508   9.794 -0.0022  0.2360  2.2818
   23SAPC   C39 3078   7.298   1.413   9.634 -0.4236  0.1843  0.0280
   23SAPC   H9X 3079   7.266   1.308   9.649  0.4812 -0.3895 -1.7696
   23SAPC   H9Y 3080   7.409   1.408   9.637 -0.3862  0.3540 -0.8419
   23SAPC  C310 3081   7.264   1.493   9.503 -0.3652  0.0092 -0.0634
   23SAPC  H10X 3082   7.301   1.597   9.516  0.7843 -0.2666 -0.9238
   23SAPC  H10Y 3083   7.153   1.500   9.503 -0.3597  0.7218 -2.0496
   23SAPC  C311 3084   7.309   1.426   9.375 -0.1771 -0.5843 -0.1761
   23SAPC  H11X 3085   7.241   1.340   9.358 -1.5544 -0.2044  2.7669
   23SAPC  H11Y 3086   7.415   1.395   9.379  0.0067 -0.3966 -2.3667
   23SAPC  C312 3087   7.283   1.513   9.252  0.4027  0.0143 -0.3397
   23SAPC  H12X 3088   7.350   1.602   9.248  0.4581 -0.0549 -1.9165
   23SAPC  H12Y 3089   7.181   1.557   9.255  0.8916  1.2047 -0.4005
   23SAPC  C313 3090   7.305   1.432   9.125 -0.7260  0.5920  0.2244
   23SAPC  H13X 3091   7.260   1.331   9.133 -0.2035  0.4155  0.9257
   23SAPC  H13Y 3092   7.414   1.415   9.113 -0.6513  1.5619 -0.6628
   23SAPC  C314 3093   7.247   1.494   8.997  0.3149 -0.4381 -0.0974
   23SAPC  H14X 3094   7.140   1.463   8.994  0.2463 -0.7724  2.7718
   23SAPC  H14Y 3095   7.295   1.453   8.906 -1.2647 -1.0117 -0.7126
   23SAPC  C315 3096   7.252   1.651   8.993  0.4380  0.9451 -0.5416
   23SAPC  H15X 3097   7.351   1.692   9.024 -0.3962  0.3498  3.5002
   23SAPC  H15Y 3098   7.178   1.688   9.066 -0.3620 -0.7766 -0.4249
   23SAPC  C316 3099   7.206   1.706   8.856 -0.6253 -0.2883  0.4921
   23SAPC  H16X 3100   7.102   1.676   8.833 -0.6551 -1.3285  1.8796
   23SAPC  H16Y 3101   7.272   1.650   8.785  1.8442 -0.9500  3.1176
   23SAPC  C317 3102   7.216   1.859   8.857  0.2429  0.4677  0.5048
   23SAPC  H17X 3103   7.322   1.891   8.864  1.1163 -1.8792 -0.6692
   23SAPC  H17Y 3104   7.183   1.904   8.953  0.4902  1.5557  0.0874
   23SAPC  C318 3105   7.148   1.914   8.730  0.4465  0.2934  0.2145
   23SAPC  H18X 3106   7.047   1.873   8.709  0.0952  0.9400  0.6189
   23SAPC  H18Y 3107   7.211   1.882   8.644  0.9386 -1.8210  1.2939
   23SAPC  H18Z 3108   7.133   2.023   8.739 -1.6418  0.3691 -2.6227
   24SAPC     N 3109   2.071   3.696  11.271  0.1264  0.1642 -0.3349
   24SAPC   C12 3110   2.159   3.800  11.196  0.1969  0.3409 -0.4670
   24SAPC  H12A 3111   2.264   3.777  11.198  0.8040  2.8646  1.2414
   24SAPC  H12B 3112   2.161   3.895  11.248  0.2518  0.7374 -1.1667
   24SAPC   C13 3113   1.928   3.738  11.299 -0.3183  0.0439  0.1149
   24SAPC  H13A 3114   1.876   3.664  11.359 -3.0188 -0.2614 -2.3909
   24SAPC  H13B 3115   1.926   3.836  11.345 -2.0502  0.0588  0.0820
   24SAPC  H13C 3116   1.876   3.745  11.205  2.0276 -1.0262 -1.3638
   24SAPC   C14 3117   2.062   3.567  11.190  0.7354 -0.4205 -0.4541
   24SAPC  H14A 3118   2.015   3.581  11.094 -1.7236 -1.1212  0.5431
   24SAPC  H14B 3119   2.159   3.521  11.177  0.6964 -1.1338  1.3825
   24SAPC  H14C 3120   1.990   3.497  11.232 -1.0549  1.9309  0.6041
   24SAPC   C15 3121   2.146   3.668  11.397  0.5118  0.8166  0.5353
   24SAPC  H15A 3122   2.080   3.604  11.453  3.8221 -2.4323  1.0960
   24SAPC  H15B 3123   2.232   3.606  11.376  0.5788  0.4210  1.9070
   24SAPC  H15C 3124   2.188   3.753  11.449 -0.4767  0.5108  1.8751
   24SAPC   C11 3125   2.112   3.826  11.054 -0.6043 -0.6384  0.2133
   24SAPC  H11A 3126   2.175   3.915  11.030 -3.2991  1.0040 -1.2239
   24SAPC  H11B 3127   2.006   3.859  11.048  0.4188  2.8441 -1.3948
   24SAPC     P 3128   2.075   3.727  10.818  0.3221  0.2805  0.3237
   24SAPC   O13 3129   2.144   3.630  10.733 -0.9126 -0.1505 -0.3886
   24SAPC   O14 3130   1.929   3.706  10.835  0.4784 -0.0485 -0.2793
   24SAPC   O12 3131   2.148   3.730  10.958  0.4163 -0.3626 -0.3841
   24SAPC   O11 3132   2.091   3.874  10.761 -0.1578  0.9667 -0.2143
   24SAPC    C1 3133   2.197   3.959  10.785 -0.0445 -0.0777  0.3336
   24SAPC    HA 3134   2.166   4.030  10.864 -0.8951  1.1578 -1.0608
   24SAPC    HB 3135   2.289   3.902  10.810  0.3446 -0.1602 -1.1555
   24SAPC    C2 3136   2.223   4.031  10.647  0.1567 -0.2917  0.2323
   24SAPC    HS 3137   2.126   4.080  10.623  1.7744  3.1287  0.1276
   24SAPC   O21 3138   2.257   3.938  10.546 -0.4101  0.0927  0.4308
   24SAPC   C21 3139   2.361   3.859  10.561 -0.6574  0.8672  0.0118
   24SAPC   O22 3140   2.448   3.863  10.646 -0.2484  0.1651  0.3888
   24SAPC   C22 3141   2.354   3.759  10.444 -1.3956 -0.5121  0.4887
   24SAPC   H2R 3142   2.388   3.660  10.483  1.9126 -0.2802 -1.4089
   24SAPC   H2S 3143   2.248   3.756  10.414 -1.4371  3.5869 -0.3566
   24SAPC    C3 3144   2.320   4.148  10.658  0.8387  0.9694 -0.1529
   24SAPC    HX 3145   2.426   4.119  10.676  1.4559  3.1101 -0.1426
   24SAPC    HY 3146   2.285   4.207  10.745 -1.9913 -0.3389 -0.2791
   24SAPC   O31 3147   2.305   4.247  10.556 -0.4588 -0.0846 -0.0996
   24SAPC   C31 3148   2.409   4.259  10.470  0.3426  0.4702 -0.5643
   24SAPC   O32 3149   2.504   4.188  10.466 -0.8872  0.4490  0.4624
   24SAPC   C32 3150   2.377   4.360  10.365  0.4468 -0.9582 -0.1769
   24SAPC   H2X 3151   2.470   4.420  10.352  0.4965 -0.5076  1.8561
   24SAPC   H2Y 3152   2.297   4.426  10.407 -1.2994 -1.8626 -1.9311
   24SAPC   C23 3153   2.461   3.812  10.341  0.9222  0.4691 -0.3551
   24SAPC   H3R 3154   2.494   3.732  10.271 -1.6374 -0.8332 -0.1768
   24SAPC   H3S 3155   2.553   3.845  10.394  1.2364 -0.8034 -0.0741
   24SAPC   C24 3156   2.430   3.934  10.256  0.2248 -0.3926 -0.1404
   24SAPC   H4R 3157   2.514   3.978  10.198 -0.5863  1.4681  0.0459
   24SAPC   H4S 3158   2.408   4.022  10.320  2.9698  0.4054 -0.1693
   24SAPC   C25 3159   2.305   3.910  10.171 -0.1292 -0.0083 -0.1577
   24SAPC   H5R 3160   2.211   3.901  10.228 -0.0805 -0.9219 -0.2125
   24SAPC   C26 3161   2.307   3.882  10.041 -0.3842  0.0299  0.0397
   24SAPC   H6R 3162   2.215   3.854   9.988 -0.7005 -3.1620  1.9981
   24SAPC   C27 3163   2.430   3.885   9.944  1.1790 -0.5905 -0.5768
   24SAPC   H7R 3164   2.450   3.790   9.890  2.4948 -0.8532  0.3274
   24SAPC   H7S 3165   2.523   3.903  10.002 -1.2196  1.2081  3.0945
   24SAPC   C28 3166   2.398   4.005   9.853  0.1574 -0.1335  0.2440
   24SAPC   H8R 3167   2.413   4.106   9.894  0.5367 -0.3208  0.5738
   24SAPC   C29 3168   2.366   3.994   9.718 -0.4690 -0.0589  0.1694
   24SAPC   H9R 3169   2.331   4.089   9.676  0.9808  1.0808  1.4079
   24SAPC  C210 3170   2.356   3.874   9.629  0.4325  0.7542  0.2418
   24SAPC  H10R 3171   2.391   3.786   9.687  0.2372  0.8963  0.5804
   24SAPC  H10S 3172   2.431   3.881   9.547 -0.4244 -1.1597 -0.7803
   24SAPC  C211 3173   2.224   3.850   9.569  0.0969 -0.1805  0.8353
   24SAPC  H11R 3174   2.180   3.757   9.609 -2.1324 -0.1728 -1.3971
   24SAPC  C212 3175   2.169   3.914   9.459 -0.0456  0.4239 -0.1989
   24SAPC  H12R 3176   2.070   3.886   9.421 -0.8799  3.6486 -0.6610
   24SAPC  C213 3177   2.232   4.020   9.382 -0.2623  0.3015  0.9249
   24SAPC  H13R 3178   2.280   3.962   9.301 -1.4285  0.2145  0.2668
   24SAPC  H13S 3179   2.319   4.064   9.435  1.4710 -1.1681 -0.5683
   24SAPC  C214 3180   2.138   4.123   9.341  0.6985  0.2358  0.2998
   24SAPC  H14R 3181   2.108   4.196   9.417  1.7159 -0.1454  1.0906
   24SAPC  C215 3182   2.086   4.137   9.215  0.0575  0.4393  0.1414
   24SAPC  H15R 3183   2.012   4.217   9.202  1.0204  1.1870 -0.9114
   24SAPC  C216 3184   2.111   4.052   9.098 -0.1364  0.1981 -0.9644
   24SAPC  H16R 3185   2.155   3.953   9.124  0.0370  0.4976 -0.0916
   24SAPC  H16S 3186   2.181   4.095   9.022  0.6447  0.1882 -0.2688
   24SAPC  C217 3187   1.984   4.027   9.021  0.3772 -0.1770  0.5404
   24SAPC  H17R 3188   1.953   4.119   8.968 -1.8370 -1.9527 -1.4733
   24SAPC  H17S 3189   1.898   3.988   9.078 -0.7149  0.9990 -0.2395
   24SAPC  C218 3190   2.002   3.925   8.911  0.0258 -0.3161  0.8011
   24SAPC  H18R 3191   2.003   3.826   8.962 -0.3757 -0.8681 -0.2353
   24SAPC  H18S 3192   2.099   3.952   8.863 -0.8523 -0.2687 -1.0349
   24SAPC  C219 3193   1.906   3.920   8.784 -0.5647  0.3378 -0.5150
   24SAPC  H19R 3194   1.876   4.025   8.766  0.9657  1.5590  3.2073
   24SAPC  H19S 3195   1.818   3.865   8.824 -0.0662  0.1387  0.3156
   24SAPC  C220 3196   1.960   3.873   8.650 -0.3962  0.6573 -0.1602
   24SAPC  H20R 3197   2.029   3.951   8.612  0.5571 -0.4457 -0.7862
   24SAPC  H20S 3198   1.884   3.855   8.571  2.2015 -0.6631 -2.5633
   24SAPC  H20T 3199   2.018   3.779   8.666 -1.4592 -0.1765 -1.0403
   24SAPC   C33 3200   2.314   4.282  10.240  0.4835 -0.2569 -0.9399
   24SAPC   H3X 3201   2.225   4.238  10.291  0.8459  1.0565  0.9352
   24SAPC   H3Y 3202   2.379   4.200  10.203  1.0674 -1.6357  2.6733
   24SAPC   C34 3203   2.257   4.372  10.141  0.1791  0.2897 -0.4988
   24SAPC   H4X 3204   2.322   4.409  10.058  1.2771  1.1114  0.6821
   24SAPC   H4Y 3205   2.207   4.456  10.193 -2.7170 -1.7779  0.3224
   24SAPC   C35 3206   2.158   4.307  10.042  0.0419  0.7170  0.1480
   24SAPC   H5X 3207   2.078   4.265  10.107  0.4726 -1.0937 -0.4185
   24SAPC   H5Y 3208   2.207   4.220   9.992  0.9958  0.2986  1.7488
   24SAPC   C36 3209   2.097   4.403   9.934 -0.4119 -0.0338  0.3098
   24SAPC   H6X 3210   2.188   4.460   9.904 -0.5631 -0.3558 -0.8049
   24SAPC   H6Y 3211   2.024   4.480   9.967 -2.8273 -1.2246 -1.9067
   24SAPC   C37 3212   2.053   4.346   9.802 -0.0592 -0.2934 -0.0824
   24SAPC   H7X 3213   1.982   4.261   9.803 -0.1219 -0.2473 -0.4011
   24SAPC   H7Y 3214   2.140   4.296   9.753 -1.3139 -1.9538 -0.7167
   24SAPC   C38 3215   1.997   4.450   9.706 -0.3389 -0.0253 -0.0033
   24SAPC   H8X 3216   2.077   4.526   9.720 -1.3402  0.9020  0.8034
   24SAPC   H8Y 3217   1.903   4.501   9.733 -1.1077  0.1600 -2.7211
   24SAPC   C39 3218   1.998   4.401   9.560  0.6785 -0.2664  0.6649
   24SAPC   H9X 3219   1.929   4.315   9.577  2.0194 -1.7149 -0.8208
   24SAPC   H9Y 3220   2.089   4.346   9.528 -0.2043 -2.0138  0.9975
   24SAPC  C310 3221   1.937   4.501   9.468  0.0605  0.4113 -0.4352
   24SAPC  H10X 3222   1.995   4.595   9.482  0.3728  0.4731 -1.9445
   24SAPC  H10Y 3223   1.833   4.525   9.497 -0.4623 -0.5536 -1.4541
   24SAPC  C311 3224   1.928   4.450   9.323 -0.1525 -0.3355 -0.0322
   24SAPC  H11X 3225   1.854   4.367   9.323 -0.2287 -0.2681  0.0794
   24SAPC  H11Y 3226   2.033   4.420   9.301  0.0474 -0.8089  1.3857
   24SAPC  C312 3227   1.904   4.564   9.229  0.3183 -0.1986 -0.1511
   24SAPC  H12X 3228   1.972   4.649   9.255 -0.5193  0.5935 -0.4961
   24SAPC  H12Y 3229   1.797   4.594   9.235 -0.8404 -3.6169 -1.3447
   24SAPC  C313 3230   1.928   4.527   9.083 -0.8589  0.4130  0.3188
   24SAPC  H13X 3231   1.881   4.429   9.058  1.3864 -0.4427 -0.9012
   24SAPC  H13Y 3232   2.034   4.516   9.052 -0.2121  0.7977  2.2279
   24SAPC  C314 3233   1.862   4.624   8.985  0.6389  0.2303  0.0832
   24SAPC  H14X 3234   1.888   4.729   9.011 -0.1923  0.0467  1.7937
   24SAPC  H14Y 3235   1.752   4.613   8.992  0.8571 -0.7767  4.7918
   24SAPC  C315 3236   1.909   4.590   8.835  0.3973 -0.0942  0.2248
   24SAPC  H15X 3237   1.894   4.480   8.824 -1.2590  0.1721 -0.5464
   24SAPC  H15Y 3238   2.018   4.605   8.819  0.0165  2.6581 -0.2708
   24SAPC  C316 3239   1.826   4.648   8.725  0.8599 -0.0126 -0.0377
   24SAPC  H16X 3240   1.855   4.754   8.709 -1.0772  0.8192  1.5203
   24SAPC  H16Y 3241   1.718   4.658   8.749  0.8736  3.1481 -0.9130
   24SAPC  C317 3242   1.835   4.569   8.600 -0.0953  0.2980 -0.1060
   24SAPC  H17X 3243   1.767   4.622   8.530  0.5584 -0.1838 -1.1472
   24SAPC  H17Y 3244   1.804   4.463   8.615 -0.5472  0.0801 -2.2475
   24SAPC  C318 3245   1.979   4.567   8.538 -0.1835  0.6879  0.0376
   24SAPC  H18X 3246   2.056   4.544   8.615 -1.1290  1.9729  1.4168
   24SAPC  H18Y 3247   1.996   4.660   8.481  0.7837  1.0023  0.8245
   24SAPC  H18Z 3248   1.976   4.485   8.462  0.1644  0.9155 -0.2190
   25SAPC     N 3249   4.069   4.707   6.066 -0.1059  0.6202 -0.4793
   25SAPC   C12 3250   3.936   4.745   6.015  0.7777  0.0704  1.1693
   25SAPC  H12A 3251   3.856   4.693   6.066  0.3560  2.0316  2.5921
   25SAPC  H12B 3252   3.911   4.713   5.915 -1.0967 -0.3981  1.7557
   25SAPC   C13 3253   4.175   4.731   5.963 -0.0715 -0.3777  0.4614
   25SAPC  H13A 3254   4.151   4.684   5.869  0.1917 -0.9508  0.6760
   25SAPC  H13B 3255   4.192   4.837   5.959 -0.5309 -0.3268 -0.2033
   25SAPC  H13C 3256   4.271   4.695   5.997  0.0967  0.6568  1.1227
   25SAPC   C14 3257   4.103   4.787   6.190 -0.1800 -0.6030 -0.1590
   25SAPC  H14A 3258   4.131   4.888   6.163  1.2072 -1.2087 -1.0961
   25SAPC  H14B 3259   4.012   4.803   6.245  0.8135  0.9613  1.1036
   25SAPC  H14C 3260   4.189   4.742   6.237 -0.1314 -0.3005  0.0433
   25SAPC   C15 3261   4.074   4.562   6.097 -0.6359 -0.3846  0.3355
   25SAPC  H15A 3262   4.167   4.555   6.151  0.7429  1.8498 -1.5617
   25SAPC  H15B 3263   3.992   4.522   6.155 -1.5963 -0.3393 -0.9336
   25SAPC  H15C 3264   4.084   4.516   6.000  1.7940 -1.3073  0.9416
   25SAPC   C11 3265   3.906   4.894   6.013  0.1047  0.0163 -0.0669
   25SAPC  H11A 3266   3.965   4.927   5.924  1.2363 -2.5293 -0.3525
   25SAPC  H11B 3267   3.939   4.949   6.104  2.6733  0.3451 -1.0938
   25SAPC     P 3268   3.683   5.030   6.056  0.1387 -0.0647  0.2646
   25SAPC   O13 3269   3.754   5.153   6.014 -0.0402 -0.2712 -0.1956
   25SAPC   O14 3270   3.546   5.020   6.007 -0.3504 -0.7140  0.2626
   25SAPC   O12 3271   3.769   4.915   5.995 -0.4856  0.1772 -0.3302
   25SAPC   O11 3272   3.689   5.008   6.206 -0.1616  0.0140 -0.4583
   25SAPC    C1 3273   3.626   4.906   6.277 -0.3689  0.0881 -0.2124
   25SAPC    HA 3274   3.563   4.842   6.212 -0.2993 -1.2608  0.9877
   25SAPC    HB 3275   3.708   4.841   6.316  0.7097  1.8460  0.6127
   25SAPC    C2 3276   3.543   4.949   6.399  0.8920  0.2103 -0.5349
   25SAPC    HS 3277   3.438   4.973   6.372  0.5320  0.0837  0.7014
   25SAPC   O21 3278   3.598   5.063   6.470 -0.1777 -0.1729 -0.0337
   25SAPC   C21 3279   3.553   5.177   6.422  0.5064  0.5105  0.3784
   25SAPC   O22 3280   3.447   5.193   6.363 -0.1445 -0.2684 -0.6084
   25SAPC   C22 3281   3.637   5.295   6.457 -0.1629  0.3055 -0.3028
   25SAPC   H2R 3282   3.731   5.292   6.398  2.3848 -2.5685  3.4410
   25SAPC   H2S 3283   3.578   5.388   6.442  0.1631  0.4713 -0.5588
   25SAPC    C3 3284   3.538   4.838   6.509 -0.1049 -0.0106  0.1389
   25SAPC    HX 3285   3.631   4.824   6.567 -0.9228 -2.1525  1.0325
   25SAPC    HY 3286   3.529   4.741   6.457 -1.6777  0.5130 -0.6306
   25SAPC   O31 3287   3.426   4.858   6.602 -0.3234 -0.2356 -0.0841
   25SAPC   C31 3288   3.387   4.752   6.668  0.8929 -0.6365  0.1660
   25SAPC   O32 3289   3.440   4.640   6.658  0.1266 -0.4275  0.1899
   25SAPC   C32 3290   3.264   4.781   6.748 -0.1497  0.2592 -0.4828
   25SAPC   H2X 3291   3.180   4.814   6.683 -1.2952  0.9983  1.3016
   25SAPC   H2Y 3292   3.284   4.868   6.815 -1.8619 -1.1263  1.9923
   25SAPC   C23 3293   3.690   5.291   6.608 -0.0593 -0.4980  0.5932
   25SAPC   H3R 3294   3.759   5.377   6.623  0.0163 -0.3726 -0.4117
   25SAPC   H3S 3295   3.751   5.199   6.620 -0.4353 -0.9896 -1.1212
   25SAPC   C24 3296   3.577   5.315   6.714  0.4949 -0.3624  0.8502
   25SAPC   H4R 3297   3.502   5.234   6.696  1.3638 -1.1179  0.5147
   25SAPC   H4S 3298   3.519   5.405   6.686 -2.6586 -2.5365 -0.1819
   25SAPC   C25 3299   3.638   5.311   6.852  0.0085  0.0461 -0.4853
   25SAPC   H5R 3300   3.720   5.383   6.866  1.4439 -1.8657  1.7395
   25SAPC   C26 3301   3.627   5.212   6.950 -0.0087  0.0225  0.3518
   25SAPC   H6R 3302   3.666   5.234   7.051 -0.7930  0.0331  0.6610
   25SAPC   C27 3303   3.533   5.096   6.944  0.7799  0.5335 -0.2868
   25SAPC   H7R 3304   3.535   5.063   6.838  0.6565 -0.7233  0.0768
   25SAPC   H7S 3305   3.429   5.129   6.965  0.4471 -1.4780  1.6921
   25SAPC   C28 3306   3.565   4.981   7.032  0.1175 -0.9188 -0.2878
   25SAPC   H8R 3307   3.633   4.904   6.992  0.7612 -0.0869 -0.8411
   25SAPC   C29 3308   3.506   4.959   7.151 -0.7822  0.0690  0.3586
   25SAPC   H9R 3309   3.536   4.871   7.209  2.3310  0.8401  0.0922
   25SAPC  C210 3310   3.406   5.055   7.205  0.3515  0.1866 -0.7898
   25SAPC  H10R 3311   3.300   5.030   7.181 -0.0515  1.3180 -0.2754
   25SAPC  H10S 3312   3.424   5.157   7.165  2.8129 -0.1949 -0.7982
   25SAPC  C211 3313   3.419   5.064   7.352 -0.3681 -0.7594 -0.0523
   25SAPC  H11R 3314   3.504   5.128   7.380 -0.1967  0.1494 -2.4043
   25SAPC  C212 3315   3.351   5.010   7.457  0.0623 -0.2928 -0.1004
   25SAPC  H12R 3316   3.358   5.054   7.557 -0.9091  1.8425 -0.9222
   25SAPC  C213 3317   3.231   4.913   7.448  0.2437 -0.6989 -0.0074
   25SAPC  H13R 3318   3.264   4.833   7.518  0.1597 -1.4563 -0.8136
   25SAPC  H13S 3319   3.220   4.867   7.348 -1.1479 -1.0536  0.2841
   25SAPC  C214 3320   3.107   4.984   7.486  0.7227 -0.0164 -0.0580
   25SAPC  H14R 3321   3.052   5.020   7.397 -0.0253 -2.4626 -0.6839
   25SAPC  C215 3322   3.058   5.014   7.611 -0.0129  0.1922  0.6929
   25SAPC  H15R 3323   2.958   5.058   7.620 -0.7102 -0.8689 -1.3789
   25SAPC  C216 3324   3.126   4.975   7.736  0.9867 -0.4939  0.4740
   25SAPC  H16R 3325   3.233   5.003   7.731  1.4827 -2.4291 -3.7844
   25SAPC  H16S 3326   3.110   4.865   7.730 -0.1983 -0.5156  2.6658
   25SAPC  C217 3327   3.063   5.040   7.866 -0.1189  0.0698 -0.1253
   25SAPC  H17R 3328   3.043   5.148   7.848  1.0621  0.5777  1.3536
   25SAPC  H17S 3329   3.141   5.034   7.945  0.5146 -0.3111 -0.7706
   25SAPC  C218 3330   2.937   4.968   7.907 -0.4555  0.0292 -0.1409
   25SAPC  H18R 3331   2.951   4.859   7.888 -0.4362 -0.0993  0.5708
   25SAPC  H18S 3332   2.864   4.985   7.826  0.4621 -0.3632 -1.0724
   25SAPC  C219 3333   2.874   5.001   8.044  0.9113  0.6765 -0.1443
   25SAPC  H19R 3334   2.938   4.972   8.130 -0.5554  0.9700  1.0716
   25SAPC  H19S 3335   2.776   4.955   8.067  1.3416 -1.3099 -1.9640
   25SAPC  C220 3336   2.857   5.153   8.059  0.2153  0.0281 -0.3469
   25SAPC  H20R 3337   2.796   5.190   7.974  0.3440 -0.4059 -0.6337
   25SAPC  H20S 3338   2.952   5.208   8.069 -0.1754  0.4852  1.1558
   25SAPC  H20T 3339   2.798   5.171   8.152 -1.3123 -1.9004 -0.8612
   25SAPC   C33 3340   3.206   4.663   6.833 -0.0078  0.1615 -0.6542
   25SAPC   H3X 3341   3.163   4.579   6.774  0.3852 -0.2122 -0.4209
   25SAPC   H3Y 3342   3.120   4.705   6.888  1.8745  3.5106 -0.0189
   25SAPC   C34 3343   3.296   4.601   6.945  0.3536 -0.7640 -0.2155
   25SAPC   H4X 3344   3.397   4.580   6.906 -0.5442 -4.3011 -1.0219
   25SAPC   H4Y 3345   3.254   4.504   6.981  0.0341  0.2830  2.5279
   25SAPC   C35 3346   3.305   4.695   7.076  0.1581  0.6911 -0.0472
   25SAPC   H5X 3347   3.200   4.717   7.106  0.5054  1.0083  0.9567
   25SAPC   H5Y 3348   3.347   4.792   7.044  0.3678  0.8568  0.7170
   25SAPC   C36 3349   3.386   4.633   7.191  1.1004  0.9390  0.2555
   25SAPC   H6X 3350   3.403   4.709   7.270 -1.3136  0.3360  1.4278
   25SAPC   H6Y 3351   3.485   4.591   7.161  1.1350  0.6606  0.7538
   25SAPC   C37 3352   3.311   4.523   7.270 -0.3344 -0.2460 -0.2388
   25SAPC   H7X 3353   3.270   4.457   7.190  0.6291  0.0943 -1.0404
   25SAPC   H7Y 3354   3.228   4.572   7.326 -0.4438 -0.2903 -0.3609
   25SAPC   C38 3355   3.398   4.446   7.359  0.2503  0.3032 -0.0388
   25SAPC   H8X 3356   3.493   4.421   7.306 -0.2138 -0.9934 -0.2918
   25SAPC   H8Y 3357   3.342   4.350   7.363 -0.8021  0.8879 -0.2922
   25SAPC   C39 3358   3.422   4.503   7.498  0.2377 -0.1022  0.3590
   25SAPC   H9X 3359   3.469   4.603   7.488  1.1133 -0.2212  2.6904
   25SAPC   H9Y 3360   3.505   4.449   7.548  0.4170  1.7691  2.2078
   25SAPC  C310 3361   3.297   4.506   7.587  0.3556  0.1143 -0.1120
   25SAPC  H10X 3362   3.278   4.397   7.604 -2.3024  0.7435  1.5025
   25SAPC  H10Y 3363   3.213   4.552   7.531 -1.0096 -1.8518  0.1961
   25SAPC  C311 3364   3.327   4.561   7.727  0.1627 -0.4607 -1.0555
   25SAPC  H11X 3365   3.344   4.670   7.722 -0.3480 -0.1865  1.6942
   25SAPC  H11Y 3366   3.425   4.517   7.754  1.4356  1.6737 -1.9475
   25SAPC  C312 3367   3.213   4.535   7.823  0.1713 -0.2021 -0.2168
   25SAPC  H12X 3368   3.205   4.425   7.835  2.9759 -0.2702  1.8027
   25SAPC  H12Y 3369   3.115   4.563   7.779 -1.5888  0.5224  3.7417
   25SAPC  C313 3370   3.251   4.603   7.950 -0.9226 -0.4958 -0.3422
   25SAPC  H13X 3371   3.279   4.709   7.936 -0.1719 -0.9397 -2.6491
   25SAPC  H13Y 3372   3.333   4.540   7.991  1.9576  1.7622 -2.2428
   25SAPC  C314 3373   3.139   4.599   8.049  0.0649  0.0751  0.7374
   25SAPC  H14X 3374   3.161   4.506   8.107  0.4456 -1.1308 -1.2272
   25SAPC  H14Y 3375   3.040   4.579   8.002  0.1265 -0.9348  1.0049
   25SAPC  C315 3376   3.128   4.720   8.139 -0.1599 -0.5127 -0.6769
   25SAPC  H15X 3377   3.101   4.805   8.073  0.7560 -1.5107 -2.4259
   25SAPC  H15Y 3378   3.227   4.746   8.182 -1.3434  2.4310  0.5341
   25SAPC  C316 3379   3.028   4.711   8.266 -0.3335 -0.6929  0.4866
   25SAPC  H16X 3380   2.930   4.692   8.216  0.0011  3.3743 -2.2217
   25SAPC  H16Y 3381   3.016   4.809   8.317  0.5560 -0.6801  0.6921
   25SAPC  C317 3382   3.067   4.604   8.362  0.6467  0.3564 -0.1150
   25SAPC  H17X 3383   3.173   4.631   8.381  1.4243 -2.6459  0.3315
   25SAPC  H17Y 3384   3.066   4.498   8.329  0.1222 -0.0037  1.0209
   25SAPC  C318 3385   2.992   4.610   8.499 -0.0780  0.2419  0.8517
   25SAPC  H18X 3386   2.991   4.717   8.530  1.0041  1.4056 -2.6367
   25SAPC  H18Y 3387   3.037   4.533   8.565 -2.4166 -0.6492  1.5182
   25SAPC  H18Z 3388   2.883   4.587   8.495 -0.5852  2.2999  1.5513
   26SAPC     N 3389   2.133   5.763   6.138 -1.0226 -0.9829 -0.1249
   26SAPC   C12 3390   2.216   5.664   6.210 -0.2648 -0.0417 -0.8833
   26SAPC  H12A 3391   2.264   5.602   6.136 -1.2062 -3.1385  0.9035
   26SAPC  H12B 3392   2.154   5.589   6.258  2.6637 -2.5073 -0.6039
   26SAPC   C13 3393   2.091   5.877   6.217  0.2806  0.4646  0.1121
   26SAPC  H13A 3394   2.046   5.955   6.157 -0.3412  1.4610  1.7931
   26SAPC  H13B 3395   2.027   5.847   6.299  2.5419  0.1478  1.8724
   26SAPC  H13C 3396   2.177   5.924   6.263 -0.2220  1.3437  0.1953
   26SAPC   C14 3397   2.206   5.820   6.016 -0.2458 -0.8686 -0.2467
   26SAPC  H14A 3398   2.234   5.744   5.944  2.1413  0.3693 -0.7339
   26SAPC  H14B 3399   2.148   5.888   5.956 -2.3625 -0.8581  1.6901
   26SAPC  H14C 3400   2.289   5.876   6.057  0.6037 -4.0647  2.9362
   26SAPC   C15 3401   2.003   5.694   6.101 -0.7947  0.1244  0.6971
   26SAPC  H15A 3402   1.961   5.644   6.186 -0.1804 -1.0613  0.3243
   26SAPC  H15B 3403   1.925   5.762   6.070 -0.8331  0.2528  1.0689
   26SAPC  H15C 3404   2.010   5.627   6.017 -0.6115  1.5911 -0.5073
   26SAPC   C11 3405   2.316   5.707   6.319 -0.2424 -0.2679  0.7449
   26SAPC  H11A 3406   2.356   5.610   6.354  0.1580 -0.7398 -0.9088
   26SAPC  H11B 3407   2.272   5.762   6.404  1.8450 -1.2910  2.5917
   26SAPC     P 3408   2.548   5.848   6.313  0.5300  0.2140 -0.0894
   26SAPC   O13 3409   2.657   5.748   6.312  1.1838 -0.1778  0.1186
   26SAPC   O14 3410   2.579   5.979   6.245 -0.0295 -0.2771  0.0197
   26SAPC   O12 3411   2.418   5.779   6.254 -0.2371  0.0602  0.1959
   26SAPC   O11 3412   2.506   5.878   6.465 -0.1336 -0.3209 -0.4075
   26SAPC    C1 3413   2.500   6.015   6.508 -0.1293 -0.1482 -0.2073
   26SAPC    HA 3414   2.596   6.060   6.475 -0.3530 -0.5433 -1.4173
   26SAPC    HB 3415   2.417   6.073   6.461  0.2656  0.3507 -0.2981
   26SAPC    C2 3416   2.465   6.020   6.666 -0.4986  0.0626  0.1950
   26SAPC    HS 3417   2.436   6.125   6.686 -2.9609 -0.4524 -0.4097
   26SAPC   O21 3418   2.580   5.983   6.748 -0.1874  0.3613 -0.0906
   26SAPC   C21 3419   2.679   6.067   6.745  0.1407  0.4044  0.4824
   26SAPC   O22 3420   2.683   6.173   6.685 -1.5921  0.3477 -0.5057
   26SAPC   C22 3421   2.796   6.005   6.807  0.7632  0.0682  0.6783
   26SAPC   H2R 3422   2.773   5.945   6.899 -1.6496  3.0482  2.2244
   26SAPC   H2S 3423   2.837   5.934   6.733  0.7134  0.3200  0.4109
   26SAPC    C3 3424   2.342   5.927   6.701 -0.8527 -0.2687  0.0931
   26SAPC    HX 3425   2.375   5.823   6.677  1.0755  0.1165  0.8343
   26SAPC    HY 3426   2.256   5.939   6.632 -1.0297 -1.8073 -0.0064
   26SAPC   O31 3427   2.299   5.953   6.842 -0.2699 -0.5108 -0.8346
   26SAPC   C31 3428   2.327   5.857   6.927  0.0673  0.4267 -1.0981
   26SAPC   O32 3429   2.379   5.750   6.904 -0.2851 -0.6442 -0.0156
   26SAPC   C32 3430   2.293   5.896   7.074  0.3772 -0.4389 -0.2756
   26SAPC   H2X 3431   2.290   5.797   7.126  0.9382  0.3936  1.3909
   26SAPC   H2Y 3432   2.199   5.955   7.077  1.7302  1.9462 -1.8788
   26SAPC   C23 3433   2.896   6.118   6.844  0.1519  0.0284  0.3997
   26SAPC   H3R 3434   2.923   6.175   6.752 -1.5491  1.2824  0.6328
   26SAPC   H3S 3435   2.988   6.068   6.882  0.0150 -0.3706  0.2110
   26SAPC   C24 3436   2.849   6.216   6.952  0.1184 -0.9129 -0.3311
   26SAPC   H4R 3437   2.830   6.150   7.039 -1.4731  0.7099  0.6152
   26SAPC   H4S 3438   2.754   6.259   6.913  0.9586 -0.1307 -1.5905
   26SAPC   C25 3439   2.946   6.322   6.995 -0.2929 -1.0925 -0.4020
   26SAPC   H5R 3440   2.989   6.368   6.905 -1.3787 -1.5196 -1.1524
   26SAPC   C26 3441   2.975   6.386   7.114 -0.3052  0.5313  0.5282
   26SAPC   H6R 3442   3.043   6.473   7.112  0.6209 -0.1640  0.8830
   26SAPC   C27 3443   2.911   6.348   7.246 -0.1944  0.1953 -0.2771
   26SAPC   H7R 3444   2.876   6.243   7.252 -1.0799  0.5005  0.2093
   26SAPC   H7S 3445   2.822   6.410   7.271  0.2036  0.1539  1.4034
   26SAPC   C28 3446   3.006   6.370   7.360  0.1004 -0.6944 -0.6232
   26SAPC   H8R 3447   3.102   6.317   7.361  1.3978  1.4785  1.1967
   26SAPC   C29 3448   2.991   6.459   7.459  0.0158  0.2250  0.8780
   26SAPC   H9R 3449   3.048   6.454   7.553 -0.0435 -2.2102  0.8482
   26SAPC  C210 3450   2.882   6.563   7.464  0.2314 -0.0591 -0.3723
   26SAPC  H10R 3451   2.801   6.523   7.529  0.9502 -0.8357  0.0778
   26SAPC  H10S 3452   2.826   6.580   7.370 -0.3301 -0.6603 -0.1545
   26SAPC  C211 3453   2.930   6.700   7.510 -0.5856 -0.8394 -0.2079
   26SAPC  H11R 3454   2.939   6.777   7.432  0.2640  2.8322  3.1873
   26SAPC  C212 3455   2.959   6.751   7.635  0.4127 -0.0575 -0.2758
   26SAPC  H12R 3456   3.002   6.852   7.646 -0.8292  0.4592 -0.0224
   26SAPC  C213 3457   2.934   6.677   7.763  0.8811  0.2852 -0.1154
   26SAPC  H13R 3458   2.851   6.608   7.739  1.9506 -0.8101 -0.7639
   26SAPC  H13S 3459   2.888   6.755   7.827  1.3508 -0.5877  1.3093
   26SAPC  C214 3460   3.051   6.614   7.832  0.4941 -0.0059  0.0703
   26SAPC  H14R 3461   3.154   6.650   7.819  1.2102 -1.7773  0.6035
   26SAPC  C215 3462   3.042   6.521   7.931 -0.0631 -0.4152  0.9103
   26SAPC  H15R 3463   3.137   6.481   7.967  1.0995 -0.1444 -1.6586
   26SAPC  C216 3464   2.914   6.457   7.979  0.1731 -0.1519 -0.3005
   26SAPC  H16R 3465   2.921   6.347   7.985  0.3202 -0.2481 -1.8887
   26SAPC  H16S 3466   2.835   6.482   7.905  0.1421  1.2629  0.1742
   26SAPC  C217 3467   2.870   6.524   8.112 -0.2510  0.7999 -0.1463
   26SAPC  H17R 3468   2.844   6.630   8.092  0.6437  0.9326 -0.6503
   26SAPC  H17S 3469   2.962   6.537   8.174 -0.0011 -0.0988 -0.3175
   26SAPC  C218 3470   2.748   6.456   8.174 -0.3158  0.1027 -0.5736
   26SAPC  H18R 3471   2.766   6.346   8.179 -2.4362 -0.2686  0.0058
   26SAPC  H18S 3472   2.659   6.477   8.110 -0.4362 -0.3889 -0.5784
   26SAPC  C219 3473   2.714   6.512   8.318  0.1418  0.0727 -0.0643
   26SAPC  H19R 3474   2.630   6.457   8.364  0.2190  0.8795  1.0962
   26SAPC  H19S 3475   2.672   6.614   8.306  1.4576  0.9057  1.8887
   26SAPC  C220 3476   2.837   6.516   8.415  0.0993  0.8610 -0.0249
   26SAPC  H20R 3477   2.816   6.499   8.523  2.3229 -1.2723  0.1927
   26SAPC  H20S 3478   2.884   6.615   8.400  1.1627  0.3425 -0.2861
   26SAPC  H20T 3479   2.906   6.435   8.381  0.0840  0.4163  0.9474
   26SAPC   C33 3480   2.408   5.970   7.137 -0.0984  0.4597 -0.1274
   26SAPC   H3X 3481   2.506   5.931   7.103 -0.8237 -2.4963  0.8883
   26SAPC   H3Y 3482   2.409   5.940   7.244  1.9611 -0.9429 -0.4744
   26SAPC   C34 3483   2.403   6.118   7.123  0.1698 -0.6526 -0.3842
   26SAPC   H4X 3484   2.304   6.166   7.133  1.5187  2.1744  0.4497
   26SAPC   H4Y 3485   2.425   6.140   7.016  1.4779 -2.0016 -0.4204
   26SAPC   C35 3486   2.490   6.202   7.223  0.4838  0.6858  0.3244
   26SAPC   H5X 3487   2.498   6.306   7.184  1.3685  0.6224  0.3247
   26SAPC   H5Y 3488   2.593   6.160   7.223  0.4353  0.5606 -0.2929
   26SAPC   C36 3489   2.429   6.213   7.361 -0.5188 -0.0461 -0.2734
   26SAPC   H6X 3490   2.413   6.116   7.413  0.2676  1.2757  2.6269
   26SAPC   H6Y 3491   2.329   6.260   7.354 -0.1044  0.9473  0.3198
   26SAPC   C37 3492   2.511   6.311   7.454 -0.3545  0.7423  0.5120
   26SAPC   H7X 3493   2.534   6.408   7.406  2.6326 -0.7097 -1.2509
   26SAPC   H7Y 3494   2.612   6.273   7.477  0.0346  1.2334 -0.3434
   26SAPC   C38 3495   2.444   6.339   7.591  0.2827 -0.5676 -0.0529
   26SAPC   H8X 3496   2.440   6.252   7.659 -1.7496 -0.8186 -0.4316
   26SAPC   H8Y 3497   2.339   6.367   7.569 -0.0021 -1.0104  0.7222
   26SAPC   C39 3498   2.521   6.458   7.668  0.7718 -0.1621 -0.3661
   26SAPC   H9X 3499   2.501   6.548   7.607  1.1679 -0.7277 -1.3543
   26SAPC   H9Y 3500   2.629   6.434   7.675  0.5670 -0.9955  0.1169
   26SAPC  C310 3501   2.460   6.484   7.813 -0.4144 -0.4290 -0.3930
   26SAPC  H10X 3502   2.492   6.411   7.890 -0.2619  1.0813  1.0230
   26SAPC  H10Y 3503   2.349   6.492   7.809 -0.3968  0.9894  0.9532
   26SAPC  C311 3504   2.504   6.622   7.864 -0.4180 -0.0267 -0.0563
   26SAPC  H11X 3505   2.467   6.703   7.797 -0.5377 -0.2034 -0.2040
   26SAPC  H11Y 3506   2.615   6.623   7.869 -0.3904  0.3892 -0.6515
   26SAPC  C312 3507   2.443   6.657   8.003 -0.3966 -0.4463 -0.9157
   26SAPC  H12X 3508   2.488   6.580   8.069  0.6880 -0.4290 -1.6082
   26SAPC  H12Y 3509   2.332   6.655   8.000 -0.4554 -2.3551  0.6059
   26SAPC  C313 3510   2.490   6.791   8.074 -0.4348  0.2246 -0.2578
   26SAPC  H13X 3511   2.460   6.876   8.008 -1.3353 -0.3751 -0.6448
   26SAPC  H13Y 3512   2.599   6.793   8.093 -0.2798  1.4305 -1.1329
   26SAPC  C314 3513   2.417   6.821   8.207  0.3029 -0.0383 -0.2764
   26SAPC  H14X 3514   2.424   6.734   8.274 -1.0405 -0.1221 -0.2088
   26SAPC  H14Y 3515   2.307   6.826   8.188  0.7130  1.2246 -2.7996
   26SAPC  C315 3516   2.478   6.938   8.278  0.1998 -0.0898  0.9668
   26SAPC  H15X 3517   2.497   7.024   8.210 -3.4979  0.0936 -0.0406
   26SAPC  H15Y 3518   2.577   6.913   8.321  1.3838  0.9917 -1.0041
   26SAPC  C316 3519   2.390   6.980   8.395  0.3579 -0.2873 -0.0111
   26SAPC  H16X 3520   2.347   6.896   8.452  0.5898 -0.3043  0.1376
   26SAPC  H16Y 3521   2.308   7.048   8.361  1.7185  0.4235 -2.0921
   26SAPC  C317 3522   2.470   7.046   8.506  0.0332  0.5283 -0.6762
   26SAPC  H17X 3523   2.519   7.131   8.455 -1.2389  0.8485 -1.4173
   26SAPC  H17Y 3524   2.548   6.975   8.542 -2.2789 -2.0964 -0.4767
   26SAPC  C318 3525   2.390   7.085   8.625  0.3804  0.8569  0.2300
   26SAPC  H18X 3526   2.438   7.164   8.686 -0.2305  0.3207  1.4369
   26SAPC  H18Y 3527   2.360   6.999   8.689  1.5370 -0.6287 -1.1506
   26SAPC  H18Z 3528   2.292   7.128   8.592 -0.4616 -0.2440  1.2071
   27SAPC     N 3529   1.336   3.995   6.448  0.1960 -0.0582 -0.2456
   27SAPC   C12 3530   1.299   4.069   6.322 -0.7446  0.5460 -0.1221
   27SAPC  H12A 3531   1.239   4.002   6.262 -1.3108  0.6351  0.3430
   27SAPC  H12B 3532   1.390   4.088   6.267 -0.8955 -0.6491 -0.8217
   27SAPC   C13 3533   1.226   3.985   6.546  0.5539  0.4649  0.2005
   27SAPC  H13A 3534   1.190   4.083   6.571 -2.5729  0.0772 -2.1534
   27SAPC  H13B 3535   1.142   3.927   6.509 -0.4786  1.7456  0.4484
   27SAPC  H13C 3536   1.270   3.932   6.629  1.7336  0.8452 -0.1628
   27SAPC   C14 3537   1.376   3.856   6.414  0.1534  0.2050 -0.2340
   27SAPC  H14A 3538   1.461   3.858   6.348  2.0882  1.4600  2.1479
   27SAPC  H14B 3539   1.401   3.801   6.504  1.1191 -1.0145 -1.2171
   27SAPC  H14C 3540   1.296   3.797   6.371  1.5143 -0.3573 -2.1240
   27SAPC   C15 3541   1.453   4.052   6.518 -0.3035 -0.0055 -0.5478
   27SAPC  H15A 3542   1.542   4.056   6.457  0.9535  0.0023  1.1971
   27SAPC  H15B 3543   1.435   4.153   6.552  2.2079 -0.0441  1.1656
   27SAPC  H15C 3544   1.482   3.992   6.603  3.1280  2.5362  0.3016
   27SAPC   C11 3545   1.222   4.201   6.354  0.3231  0.2165  0.4015
   27SAPC  H11A 3546   1.132   4.174   6.414  0.1152 -1.0843 -0.4581
   27SAPC  H11B 3547   1.197   4.237   6.253 -1.1462 -0.7118  0.4078
   27SAPC     P 3548   1.261   4.435   6.451 -0.6037 -0.0978 -0.1185
   27SAPC   O13 3549   1.178   4.483   6.338  0.1767  0.1450  0.1497
   27SAPC   O14 3550   1.199   4.438   6.585  0.2941  0.6840 -0.1488
   27SAPC   O12 3551   1.311   4.283   6.422 -0.1261  0.1079 -0.0174
   27SAPC   O11 3552   1.386   4.524   6.461  0.3809  0.4375  0.4830
   27SAPC    C1 3553   1.512   4.464   6.498  0.1486  0.1960  1.0335
   27SAPC    HA 3554   1.521   4.354   6.514 -0.7943  0.2183  1.7878
   27SAPC    HB 3555   1.593   4.476   6.423 -1.9566  0.8911 -1.2429
   27SAPC    C2 3556   1.574   4.543   6.618 -0.3623  0.0852 -0.3127
   27SAPC    HS 3557   1.667   4.487   6.643  1.0377  2.1142 -0.7335
   27SAPC   O21 3558   1.492   4.553   6.732 -0.7020  0.4457  0.1418
   27SAPC   C21 3559   1.453   4.438   6.785 -0.3389  0.5814  0.0603
   27SAPC   O22 3560   1.478   4.326   6.742 -0.2265  0.4522  0.0825
   27SAPC   C22 3561   1.358   4.461   6.905  0.0729 -0.4353 -0.0159
   27SAPC   H2R 3562   1.366   4.567   6.936 -0.0748 -0.0455 -1.2502
   27SAPC   H2S 3563   1.259   4.440   6.860 -0.4898  0.6499  0.6983
   27SAPC    C3 3564   1.628   4.680   6.576 -0.8449 -0.2233 -0.5606
   27SAPC    HX 3565   1.538   4.740   6.549 -2.6255 -1.9446  1.1387
   27SAPC    HY 3566   1.701   4.672   6.493  0.0577  2.1954 -0.0841
   27SAPC   O31 3567   1.690   4.733   6.697  0.3493 -0.0175  0.3542
   27SAPC   C31 3568   1.824   4.723   6.695 -0.2101 -0.3541 -1.2505
   27SAPC   O32 3569   1.888   4.653   6.623 -0.4482  0.3203 -0.1391
   27SAPC   C32 3570   1.882   4.803   6.812  0.0449 -0.1579 -0.3751
   27SAPC   H2X 3571   1.792   4.812   6.876 -0.6456 -0.4826 -1.2722
   27SAPC   H2Y 3572   1.912   4.900   6.767 -2.5297 -0.0234 -1.9670
   27SAPC   C23 3573   1.374   4.360   7.021 -0.2214  0.2381  0.0289
   27SAPC   H3R 3574   1.476   4.370   7.063  0.2771 -3.0308 -0.1662
   27SAPC   H3S 3575   1.363   4.255   6.987 -2.0090  0.2656  0.4170
   27SAPC   C24 3576   1.277   4.377   7.143 -0.6628 -0.0857  0.3234
   27SAPC   H4R 3577   1.171   4.378   7.110 -0.8442  3.3295  0.6426
   27SAPC   H4S 3578   1.274   4.483   7.175 -2.6172  0.0854 -0.2584
   27SAPC   C25 3579   1.318   4.286   7.259  0.3803 -0.4016  0.5222
   27SAPC   H5R 3580   1.323   4.180   7.230  0.9230 -0.4600  0.8152
   27SAPC   C26 3581   1.338   4.323   7.387  0.3580  0.6942  0.1059
   27SAPC   H6R 3582   1.350   4.250   7.469  1.9740  2.0042  1.1194
   27SAPC   C27 3583   1.343   4.458   7.448 -0.4441 -0.5798 -0.0667
   27SAPC   H7R 3584   1.379   4.528   7.370  0.2375 -0.5676  0.2537
   27SAPC   H7S 3585   1.427   4.457   7.521 -1.4426  2.1285  1.2649
   27SAPC   C28 3586   1.225   4.512   7.523 -0.6098 -0.1741 -0.2289
   27SAPC   H8R 3587   1.130   4.483   7.475 -0.7549 -2.8088  1.4653
   27SAPC   C29 3588   1.218   4.583   7.640 -0.0482 -0.0496  0.1214
   27SAPC   H9R 3589   1.121   4.623   7.671  0.1915  0.6737 -0.0367
   27SAPC  C210 3590   1.335   4.636   7.727 -0.0571 -0.0093  0.3086
   27SAPC  H10R 3591   1.416   4.686   7.669 -2.0033  1.1588 -1.5491
   27SAPC  H10S 3592   1.380   4.559   7.793 -1.2922  0.3994  1.6855
   27SAPC  C211 3593   1.281   4.739   7.828 -0.6596 -0.2845  0.4087
   27SAPC  H11R 3594   1.283   4.845   7.798 -1.7099 -0.2078  0.5757
   27SAPC  C212 3595   1.210   4.718   7.939  0.0813 -0.1170 -0.4652
   27SAPC  H12R 3596   1.187   4.811   7.992  0.6282 -0.1856 -0.1005
   27SAPC  C213 3597   1.165   4.586   8.001  1.1262 -0.1674 -0.0760
   27SAPC  H13R 3598   1.227   4.502   7.962  1.5203  0.7958 -1.6170
   27SAPC  H13S 3599   1.062   4.576   7.962  0.4065  1.6316  1.2538
   27SAPC  C214 3600   1.166   4.565   8.153 -0.1132  0.7533 -0.5971
   27SAPC  H14R 3601   1.268   4.543   8.187 -0.5034  1.9948  1.5198
   27SAPC  C215 3602   1.059   4.554   8.235  0.0666  0.0862  0.0817
   27SAPC  H15R 3603   1.082   4.547   8.342  1.8452  0.6299 -0.2254
   27SAPC  C216 3604   0.912   4.577   8.203  0.0998 -0.5207 -1.2034
   27SAPC  H16R 3605   0.892   4.622   8.104  1.7082 -2.4051 -2.4506
   27SAPC  H16S 3606   0.874   4.646   8.282 -1.7367 -1.4717 -1.2033
   27SAPC  C217 3607   0.841   4.447   8.219  0.6332  0.4535  0.0531
   27SAPC  H17R 3608   0.851   4.394   8.316 -1.1300  0.2907  0.1838
   27SAPC  H17S 3609   0.875   4.379   8.139  0.1550  1.9299 -1.4577
   27SAPC  C218 3610   0.688   4.469   8.197  1.1239 -0.1127 -1.1081
   27SAPC  H18R 3611   0.676   4.538   8.111 -0.7233 -0.4893 -1.1942
   27SAPC  H18S 3612   0.659   4.518   8.293 -0.6963 -1.0399 -1.1294
   27SAPC  C219 3613   0.595   4.348   8.172  0.5525  0.1506 -0.2770
   27SAPC  H19R 3614   0.492   4.367   8.209  0.0171 -1.2694 -0.9784
   27SAPC  H19S 3615   0.642   4.269   8.235  0.7581  0.6859  0.2597
   27SAPC  C220 3616   0.561   4.314   8.032 -0.6895  0.1553  0.2581
   27SAPC  H20R 3617   0.481   4.237   8.023 -0.5451 -0.1831  1.6078
   27SAPC  H20S 3618   0.646   4.265   7.979 -0.6694  0.4483  0.0203
   27SAPC  H20T 3619   0.539   4.404   7.972  0.7397  0.7271  0.5533
   27SAPC   C33 3620   2.003   4.737   6.879 -0.6881 -0.4026  0.2224
   27SAPC   H3X 3621   2.042   4.825   6.935  0.7110 -1.2911  0.6948
   27SAPC   H3Y 3622   2.080   4.689   6.814 -2.3336 -1.6873 -0.8661
   27SAPC   C34 3623   1.960   4.637   6.986  0.3757 -0.7364 -0.4588
   27SAPC   H4X 3624   2.054   4.599   7.032  0.7796  3.7704  3.1982
   27SAPC   H4Y 3625   1.912   4.557   6.926  1.4911 -1.5765 -0.2615
   27SAPC   C35 3626   1.866   4.690   7.098 -0.5703 -0.3525 -0.4359
   27SAPC   H5X 3627   1.815   4.601   7.139  2.7146 -1.3036  1.9652
   27SAPC   H5Y 3628   1.782   4.760   7.075 -0.1684  0.0776 -0.6233
   27SAPC   C36 3629   1.950   4.751   7.216  0.1653  0.4887 -0.4515
   27SAPC   H6X 3630   2.020   4.835   7.193  0.7356 -0.1046 -0.9140
   27SAPC   H6Y 3631   2.005   4.671   7.269 -0.6066  0.2319 -0.0299
   27SAPC   C37 3632   1.856   4.808   7.318 -0.3835  0.2452 -0.3340
   27SAPC   H7X 3633   1.761   4.751   7.312  0.2997 -1.0891  1.0200
   27SAPC   H7Y 3634   1.831   4.915   7.299 -0.1410  0.7589  1.9816
   27SAPC   C38 3635   1.910   4.791   7.461  0.0989  0.3861  0.0710
   27SAPC   H8X 3636   2.014   4.828   7.471  0.4049  0.1284 -1.7476
   27SAPC   H8Y 3637   1.927   4.682   7.471 -1.1074 -0.3256 -3.7663
   27SAPC   C39 3638   1.829   4.845   7.576 -0.3983  0.0124  0.0623
   27SAPC   H9X 3639   1.731   4.793   7.581  0.8180 -2.5591 -0.9929
   27SAPC   H9Y 3640   1.822   4.955   7.557  2.9973  0.2633 -0.3562
   27SAPC  C310 3641   1.894   4.821   7.709 -0.5747 -0.3099 -0.2083
   27SAPC  H10X 3642   1.986   4.878   7.732  0.4921 -0.5738 -3.3716
   27SAPC  H10Y 3643   1.935   4.718   7.705  0.7927  0.0693  2.1995
   27SAPC  C311 3644   1.797   4.833   7.825  0.1451  0.1341 -0.1872
   27SAPC  H11X 3645   1.855   4.802   7.915 -1.2728 -0.0527  0.6962
   27SAPC  H11Y 3646   1.715   4.760   7.816  0.0088  0.2036  0.4283
   27SAPC  C312 3647   1.739   4.973   7.849  0.3407 -0.2476  0.5435
   27SAPC  H12X 3648   1.681   5.014   7.763  0.1502  2.2545  1.7877
   27SAPC  H12Y 3649   1.820   5.045   7.871  0.2417  1.0837 -2.8040
   27SAPC  C313 3650   1.638   4.970   7.965 -0.0041 -0.3321 -0.2453
   27SAPC  H13X 3651   1.560   4.891   7.960 -0.3769 -0.0287  0.6429
   27SAPC  H13Y 3652   1.588   5.070   7.960  1.2806  0.3057 -0.8881
   27SAPC  C314 3653   1.699   4.944   8.101 -0.0411 -0.8662  0.3632
   27SAPC  H14X 3654   1.739   4.841   8.113  0.4474 -0.8562 -1.0152
   27SAPC  H14Y 3655   1.619   4.934   8.178 -1.9405 -0.5605 -1.4787
   27SAPC  C315 3656   1.795   5.055   8.151 -0.5515 -0.1322 -0.1852
   27SAPC  H15X 3657   1.727   5.128   8.199  0.0870  0.5061 -0.2364
   27SAPC  H15Y 3658   1.840   5.111   8.067 -0.4979 -0.7283 -0.5567
   27SAPC  C316 3659   1.912   5.017   8.254  0.5646  0.4615  0.4516
   27SAPC  H16X 3660   1.931   5.101   8.324 -2.2461 -0.6627  2.7686
   27SAPC  H16Y 3661   1.999   5.002   8.188 -0.5483 -0.3476 -0.8931
   27SAPC  C317 3662   1.889   4.892   8.329  0.4173  0.4079 -0.1846
   27SAPC  H17X 3663   1.987   4.859   8.368  1.7455  0.0664 -3.4542
   27SAPC  H17Y 3664   1.857   4.808   8.264  0.9510 -1.9515  2.4225
   27SAPC  C318 3665   1.780   4.924   8.431 -0.3850 -0.1905 -0.3098
   27SAPC  H18X 3666   1.760   4.838   8.498  1.5014 -0.3683  0.0616
   27SAPC  H18Y 3667   1.684   4.959   8.386 -0.0886  0.2240 -0.6233
   27SAPC  H18Z 3668   1.817   5.006   8.496  0.6575 -1.0454  0.2069
   28SAPC     N 3669   5.979   4.409   6.379  0.4532  0.0341 -0.6892
   28SAPC   C12 3670   6.098   4.337   6.434 -0.2499  1.0563 -0.2326
   28SAPC  H12A 3671   6.059   4.249   6.483 -2.5787  1.3540 -1.4284
   28SAPC  H12B 3672   6.146   4.406   6.502  2.8162  0.8479 -1.9772
   28SAPC   C13 3673   5.897   4.446   6.495  0.8057 -0.2819 -0.0988
   28SAPC  H13A 3674   5.855   4.357   6.541  1.7936 -0.6176  0.1799
   28SAPC  H13B 3675   5.955   4.482   6.578  1.0397 -0.6310 -0.1072
   28SAPC  H13C 3676   5.815   4.510   6.464 -0.0628 -1.9656 -1.4673
   28SAPC   C14 3677   6.012   4.521   6.293  0.1305  0.3675  0.7357
   28SAPC  H14A 3678   6.077   4.492   6.211 -2.4057 -1.2450 -0.8643
   28SAPC  H14B 3679   5.924   4.564   6.249  0.5467 -0.1969 -0.7202
   28SAPC  H14C 3680   6.067   4.601   6.340 -0.9233  1.8969 -0.5369
   28SAPC   C15 3681   5.890   4.308   6.305  1.0135 -0.7605  0.6491
   28SAPC  H15A 3682   5.852   4.228   6.367  0.2687 -1.0967 -0.2055
   28SAPC  H15B 3683   5.800   4.352   6.265  0.4094 -3.4410 -1.2355
   28SAPC  H15C 3684   5.950   4.269   6.223  1.7689  0.1460  0.7532
   28SAPC   C11 3685   6.213   4.289   6.334  0.1034  0.7436  0.3486
   28SAPC  H11A 3686   6.313   4.270   6.377  0.8844 -1.5124 -2.1947
   28SAPC  H11B 3687   6.235   4.380   6.274 -0.8165  0.6999 -0.0767
   28SAPC     P 3688   6.172   4.036   6.319 -0.1331  0.2981  0.0203
   28SAPC   O13 3689   6.074   3.969   6.231  0.5276  0.4539 -0.4144
   28SAPC   O14 3690   6.309   3.980   6.324  0.5904  0.0381  0.3424
   28SAPC   O12 3691   6.168   4.180   6.259  0.5668  0.1550  0.4713
   28SAPC   O11 3692   6.114   4.049   6.461  0.3749 -0.5240  0.2995
   28SAPC    C1 3693   6.192   4.036   6.576  0.2543 -0.0969 -0.8025
   28SAPC    HA 3694   6.300   4.064   6.569  0.1054  1.4697  1.9786
   28SAPC    HB 3695   6.164   4.107   6.656  0.5216 -0.1081 -0.6974
   28SAPC    C2 3696   6.185   3.882   6.621  0.5067 -0.2526 -0.1285
   28SAPC    HS 3697   6.231   3.828   6.536 -0.2028  1.4252 -1.6492
   28SAPC   O21 3698   6.048   3.842   6.630  0.0869  0.0971 -0.2202
   28SAPC   C21 3699   6.027   3.707   6.617  0.0771 -0.0799  0.0555
   28SAPC   O22 3700   6.109   3.617   6.605  0.6668  0.4333  0.5048
   28SAPC   C22 3701   5.874   3.681   6.618  0.0250 -0.5359  0.2833
   28SAPC   H2R 3702   5.830   3.688   6.516  0.6091  1.4289  0.1240
   28SAPC   H2S 3703   5.870   3.573   6.641  2.4277 -1.5637 -3.2584
   28SAPC    C3 3704   6.250   3.852   6.757 -0.4743 -0.5539 -0.3298
   28SAPC    HX 3705   6.354   3.887   6.740 -0.2344  0.1428  2.2105
   28SAPC    HY 3706   6.227   3.747   6.786 -0.9145 -0.3997 -0.1055
   28SAPC   O31 3707   6.191   3.939   6.858  0.6268 -0.8042  0.5221
   28SAPC   C31 3708   6.249   3.916   6.979  0.3798  0.7701 -0.1311
   28SAPC   O32 3709   6.328   3.824   6.994  0.2742  0.0729  0.2284
   28SAPC   C32 3710   6.167   3.993   7.084 -0.0100  0.3733 -0.1382
   28SAPC   H2X 3711   6.090   3.927   7.129 -0.0055  1.1847  1.1519
   28SAPC   H2Y 3712   6.120   4.076   7.027  2.1499  1.7799  0.0083
   28SAPC   C23 3713   5.796   3.775   6.719 -0.5148  0.2509  0.2448
   28SAPC   H3R 3714   5.686   3.770   6.706 -0.6097  0.7250  0.8300
   28SAPC   H3S 3715   5.828   3.875   6.682 -0.5528 -0.3136 -1.3777
   28SAPC   C24 3716   5.822   3.752   6.872  0.3694 -0.0052  0.9077
   28SAPC   H4R 3717   5.929   3.727   6.888 -0.0447 -2.2270  0.6452
   28SAPC   H4S 3718   5.804   3.846   6.928  0.4040  0.8569 -0.4879
   28SAPC   C25 3719   5.739   3.636   6.923  0.0018 -0.2729  0.0362
   28SAPC   H5R 3720   5.687   3.581   6.844  1.2785 -2.6682  0.7751
   28SAPC   C26 3721   5.700   3.606   7.049 -0.4337 -0.3567  0.0270
   28SAPC   H6R 3722   5.636   3.518   7.066 -0.0662 -0.6247  0.0367
   28SAPC   C27 3723   5.755   3.667   7.180 -0.4629  0.2396  0.2576
   28SAPC   H7R 3724   5.722   3.600   7.262  1.2263 -1.9932 -0.8139
   28SAPC   H7S 3725   5.701   3.764   7.192 -1.2086 -0.1637  0.2422
   28SAPC   C28 3726   5.906   3.682   7.193  0.0932  0.0416  0.5205
   28SAPC   H8R 3727   5.970   3.653   7.108  0.0531  1.6645 -0.1119
   28SAPC   C29 3728   5.967   3.703   7.311  0.3395 -0.3286  0.1842
   28SAPC   H9R 3729   6.077   3.709   7.310  0.3282  0.8227  1.8081
   28SAPC  C210 3730   5.906   3.731   7.443 -0.2168  0.1241 -0.0407
   28SAPC  H10R 3731   5.814   3.675   7.470  0.2807  0.1800  1.9253
   28SAPC  H10S 3732   5.861   3.830   7.425  1.1660  1.2246  2.0754
   28SAPC  C211 3733   5.987   3.737   7.574 -0.1840 -0.2796  0.1716
   28SAPC  H11R 3734   6.087   3.783   7.578 -1.0432  1.5724  2.2196
   28SAPC  C212 3735   5.962   3.677   7.690 -0.3297  0.9977  0.6159
   28SAPC  H12R 3736   6.031   3.693   7.774 -1.5864  0.9643  1.6887
   28SAPC  C213 3737   5.840   3.596   7.719  0.1714  0.7246 -0.4507
   28SAPC  H13R 3738   5.872   3.532   7.804 -2.4422  1.6808  1.3907
   28SAPC  H13S 3739   5.816   3.517   7.644  1.7603  0.7692 -1.0442
   28SAPC  C214 3740   5.712   3.678   7.749 -0.0983 -0.0515 -0.5031
   28SAPC  H14R 3741   5.645   3.702   7.666 -2.8913 -0.7442  1.4143
   28SAPC  C215 3742   5.666   3.711   7.878  0.8176  0.2832 -0.5335
   28SAPC  H15R 3743   5.576   3.772   7.890  0.6745 -0.3742  2.4955
   28SAPC  C216 3744   5.729   3.677   8.007 -0.6519 -0.3018  0.0830
   28SAPC  H16R 3745   5.839   3.665   7.997 -0.3901  0.8894  1.2341
   28SAPC  H16S 3746   5.686   3.581   8.044 -0.7656 -0.6718 -0.9612
   28SAPC  C217 3747   5.706   3.792   8.112  0.4075  0.3551  0.5596
   28SAPC  H17R 3748   5.732   3.886   8.059 -0.8038  0.5778  0.3265
   28SAPC  H17S 3749   5.766   3.769   8.202 -1.1878 -0.8039  1.3861
   28SAPC  C218 3750   5.559   3.810   8.157 -0.2921 -0.2826 -0.4253
   28SAPC  H18R 3751   5.512   3.711   8.178 -3.5043  1.1060 -0.4734
   28SAPC  H18S 3752   5.494   3.835   8.070 -1.8897 -0.2303  0.7321
   28SAPC  C219 3753   5.528   3.904   8.276 -0.2412  0.2958 -0.0603
   28SAPC  H19R 3754   5.615   3.894   8.345  1.5478  2.6216 -1.8431
   28SAPC  H19S 3755   5.438   3.865   8.329  1.9030  0.1010  3.8091
   28SAPC  C220 3756   5.494   4.050   8.236 -0.0482 -0.5899  0.1541
   28SAPC  H20R 3757   5.440   4.041   8.140  1.0801 -4.1229 -0.2910
   28SAPC  H20S 3758   5.585   4.113   8.224 -0.4537 -0.2206 -1.1255
   28SAPC  H20T 3759   5.428   4.107   8.305 -0.3826 -2.9323  1.9056
   28SAPC   C33 3760   6.254   4.053   7.201 -0.4667  0.4008  0.0376
   28SAPC   H3X 3761   6.278   4.154   7.162  2.4029 -0.5928 -1.0217
   28SAPC   H3Y 3762   6.352   4.000   7.201 -0.5586  0.2292  0.1882
   28SAPC   C34 3763   6.177   4.054   7.336 -0.4046 -0.0771  0.3276
   28SAPC   H4X 3764   6.159   3.949   7.366 -1.3624  0.7205  2.7811
   28SAPC   H4Y 3765   6.079   4.105   7.333 -0.9475 -1.0990  0.2304
   28SAPC   C35 3766   6.266   4.104   7.455 -0.2793  0.2848  0.2162
   28SAPC   H5X 3767   6.316   4.196   7.419  1.6181 -1.3120 -1.4877
   28SAPC   H5Y 3768   6.337   4.019   7.465 -0.8192 -0.4223 -1.4702
   28SAPC   C36 3769   6.179   4.115   7.583 -0.3944 -0.7004  0.0006
   28SAPC   H6X 3770   6.110   4.029   7.592 -1.4421  0.1486  0.1773
   28SAPC   H6Y 3771   6.125   4.211   7.579 -0.9421 -1.0484 -1.3334
   28SAPC   C37 3772   6.275   4.114   7.709  0.1481  0.2850  0.7075
   28SAPC   H7X 3773   6.360   4.184   7.700  1.7465 -1.2328  2.7952
   28SAPC   H7Y 3774   6.306   4.008   7.722  0.9642  0.4680  0.3101
   28SAPC   C38 3775   6.207   4.139   7.840 -0.0700  0.2896 -0.1678
   28SAPC   H8X 3776   6.148   4.232   7.824  2.6583  1.9863 -1.1137
   28SAPC   H8Y 3777   6.287   4.157   7.916 -0.2322 -1.5489  0.4858
   28SAPC   C39 3778   6.119   4.022   7.900  0.6412 -0.7055 -0.5076
   28SAPC   H9X 3779   6.196   3.944   7.920  0.0875 -0.3050  4.1114
   28SAPC   H9Y 3780   6.059   3.975   7.818  1.4569 -0.9955 -0.9512
   28SAPC  C310 3781   6.045   4.048   8.037  0.2132  0.7874  1.0209
   28SAPC  H10X 3782   6.018   3.947   8.075 -0.9828  0.6630 -0.0850
   28SAPC  H10Y 3783   5.948   4.097   8.013  0.4388  1.1563  0.8549
   28SAPC  C311 3784   6.121   4.126   8.152  0.1607  0.0819 -0.1896
   28SAPC  H11X 3785   6.149   4.219   8.097 -0.5238 -1.2810 -3.0650
   28SAPC  H11Y 3786   6.210   4.071   8.187  0.8950  0.8199 -0.8572
   28SAPC  C312 3787   6.041   4.167   8.277 -0.0863 -0.5622  0.1300
   28SAPC  H12X 3788   5.954   4.223   8.238  0.8125 -0.5934 -2.0451
   28SAPC  H12Y 3789   6.102   4.231   8.344  1.1335  0.4211 -1.8435
   28SAPC  C313 3790   6.004   4.039   8.361 -0.0131  0.2760  0.1044
   28SAPC  H13X 3791   6.105   3.993   8.367 -0.7311 -1.4788 -0.8492
   28SAPC  H13Y 3792   5.945   3.974   8.294  0.6033 -0.8517  0.6168
   28SAPC  C314 3793   5.954   4.058   8.501 -0.2714 -0.4908  0.6019
   28SAPC  H14X 3794   6.022   4.120   8.564 -0.9808  0.3071  0.6043
   28SAPC  H14Y 3795   5.943   3.966   8.562 -1.6899  0.7847  2.3880
   28SAPC  C315 3796   5.816   4.132   8.524  0.4702  0.0168  0.3011
   28SAPC  H15X 3797   5.726   4.074   8.494 -0.9970  1.4904  1.6614
   28SAPC  H15Y 3798   5.825   4.222   8.460 -5.3010  1.7743  1.3367
   28SAPC  C316 3799   5.788   4.164   8.669 -0.2528  0.1878  0.9493
   28SAPC  H16X 3800   5.884   4.188   8.720 -0.4574  1.2117  0.8701
   28SAPC  H16Y 3801   5.742   4.070   8.705  0.8033 -1.3966 -1.6085
   28SAPC  C317 3802   5.696   4.295   8.694 -0.3798 -0.5828  0.6394
   28SAPC  H17X 3803   5.598   4.276   8.646 -0.5235 -0.9551  1.0694
   28SAPC  H17Y 3804   5.733   4.381   8.634 -2.6853  0.0093 -0.0163
   28SAPC  C318 3805   5.678   4.314   8.851 -0.6392  0.4498  0.6001
   28SAPC  H18X 3806   5.781   4.341   8.882  0.8316 -2.0420 -1.7273
   28SAPC  H18Y 3807   5.633   4.227   8.902  0.2532  0.2235  1.0171
   28SAPC  H18Z 3808   5.605   4.396   8.870  0.8078  1.7134  0.8647
   29SAPC     N 3809   3.024   0.319   6.104  0.6524 -0.4226 -0.3323
   29SAPC   C12 3810   3.084   0.216   6.015 -0.0942 -0.1428 -0.0235
   29SAPC  H12A 3811   3.185   0.248   5.998 -0.3757  0.7611 -0.0739
   29SAPC  H12B 3812   3.043   0.211   5.915 -1.3741  0.1277  0.4667
   29SAPC   C13 3813   3.012   0.441   6.033 -0.2665  0.0762  0.5540
   29SAPC  H13A 3814   3.111   0.451   5.992 -0.1110  0.2979  0.9834
   29SAPC  H13B 3815   2.941   0.423   5.953  0.8776 -0.8095 -0.3036
   29SAPC  H13C 3816   2.999   0.527   6.097  0.6985  0.7897 -0.1766
   29SAPC   C14 3817   2.895   0.276   6.157 -0.1564 -0.1958  0.0378
   29SAPC  H14A 3818   2.834   0.218   6.089 -0.3285 -0.0941  0.1040
   29SAPC  H14B 3819   2.919   0.215   6.243  2.7275 -1.6955 -1.6851
   29SAPC  H14C 3820   2.828   0.348   6.202 -0.9140  0.4661 -2.0602
   29SAPC   C15 3821   3.117   0.342   6.218 -0.1713  0.0195 -0.1271
   29SAPC  H15A 3822   3.089   0.420   6.288 -1.9153 -0.7153  0.0578
   29SAPC  H15B 3823   3.128   0.255   6.281 -3.0713  0.0944  0.6392
   29SAPC  H15C 3824   3.211   0.374   6.176 -0.0972 -0.8375 -0.6232
   29SAPC   C11 3825   3.083   0.073   6.070 -0.0214 -0.1917  0.0324
   29SAPC  H11A 3826   2.985   0.035   6.105  1.5518 -2.8601  2.0045
   29SAPC  H11B 3827   3.152   0.080   6.158 -0.4033  0.4040  0.2842
   29SAPC     P 3828   3.275  -0.076   5.962 -0.2656 -0.1550 -0.6484
   29SAPC   O13 3829   3.275  -0.157   5.837  0.0684  0.6174  0.1144
   29SAPC   O14 3830   3.377   0.028   5.976  0.0604  0.1205  0.7479
   29SAPC   O12 3831   3.123  -0.009   5.958  0.3724 -0.6024  0.6039
   29SAPC   O11 3832   3.283  -0.178   6.087  1.0460 -0.7856  0.2069
   29SAPC    C1 3833   3.177  -0.273   6.115  0.4115  0.6333  0.7547
   29SAPC    HA 3834   3.111  -0.291   6.028 -0.1243  1.2540  1.0255
   29SAPC    HB 3835   3.220  -0.373   6.136 -0.0302  0.4692  0.8928
   29SAPC    C2 3836   3.087  -0.238   6.235  0.6641 -0.8561 -1.0290
   29SAPC    HS 3837   3.029  -0.148   6.206  0.3767 -0.9658 -0.7991
   29SAPC   O21 3838   3.171  -0.213   6.352  0.0180  0.1753  0.0114
   29SAPC   C21 3839   3.140  -0.100   6.427  0.4264 -1.0025  0.5039
   29SAPC   O22 3840   3.066  -0.011   6.394 -0.0029  0.0775  0.3054
   29SAPC   C22 3841   3.227  -0.100   6.548  0.5221 -0.5331 -0.0274
   29SAPC   H2R 3842   3.231  -0.198   6.600  1.3125 -0.4241  0.1316
   29SAPC   H2S 3843   3.328  -0.076   6.510 -0.3709  3.3014 -0.4035
   29SAPC    C3 3844   2.981  -0.344   6.277  0.0718  0.9590 -1.1299
   29SAPC    HX 3845   3.040  -0.435   6.304  0.0696  0.2918 -3.1989
   29SAPC    HY 3846   2.926  -0.371   6.185 -2.2500  0.5780  0.2851
   29SAPC   O31 3847   2.904  -0.306   6.391  0.4363  0.2587  0.6033
   29SAPC   C31 3848   2.777  -0.277   6.371  0.2734  0.2738 -0.1030
   29SAPC   O32 3849   2.725  -0.258   6.264 -0.0561 -0.5162 -0.8944
   29SAPC   C32 3850   2.715  -0.260   6.509 -0.2758  0.0590 -0.5699
   29SAPC   H2X 3851   2.607  -0.286   6.499  0.4853 -3.1760 -1.4440
   29SAPC   H2Y 3852   2.721  -0.151   6.532 -1.1702  0.4299 -1.9483
   29SAPC   C23 3853   3.174   0.004   6.648  0.3089 -0.1794 -0.0225
   29SAPC   H3R 3854   3.145   0.098   6.596  0.9913 -0.4100 -0.8467
   29SAPC   H3S 3855   3.252   0.025   6.724 -0.7411  0.4264  0.9360
   29SAPC   C24 3856   3.053  -0.053   6.725  0.2074  0.6559  0.2314
   29SAPC   H4R 3857   2.964  -0.077   6.662  0.5635 -1.0116  0.3287
   29SAPC   H4S 3858   3.003   0.028   6.783 -1.9128  0.3675 -1.0510
   29SAPC   C25 3859   3.083  -0.172   6.813 -0.1933 -0.4041 -0.5998
   29SAPC   H5R 3860   3.065  -0.271   6.769  1.5292 -0.6293 -0.8775
   29SAPC   C26 3861   3.145  -0.161   6.933 -0.0203 -0.3181  0.2906
   29SAPC   H6R 3862   3.167  -0.254   6.988  1.3952  1.0178  2.1402
   29SAPC   C27 3863   3.193  -0.039   7.011  0.3796 -0.5690  0.3889
   29SAPC   H7R 3864   3.109  -0.022   7.081 -0.9151  0.4851 -1.3716
   29SAPC   H7S 3865   3.190   0.054   6.950 -0.2915 -0.1212  1.0819
   29SAPC   C28 3866   3.332  -0.072   7.064  0.3474 -0.5436  0.2918
   29SAPC   H8R 3867   3.410  -0.080   6.987 -2.3630  0.0548 -2.7384
   29SAPC   C29 3868   3.364  -0.093   7.194  0.3267  0.5546  0.4563
   29SAPC   H9R 3869   3.470  -0.108   7.219  0.7644  1.6708 -0.6412
   29SAPC  C210 3870   3.271  -0.080   7.310  0.2228  0.2722 -0.7915
   29SAPC  H10R 3871   3.163  -0.076   7.285 -0.7796  1.0487  3.0065
   29SAPC  H10S 3872   3.291   0.019   7.356 -2.8778  0.1539  1.1510
   29SAPC  C211 3873   3.290  -0.192   7.411 -0.3891  0.4332  0.4331
   29SAPC  H11R 3874   3.262  -0.293   7.378  0.0323  0.7612 -0.9981
   29SAPC  C212 3875   3.340  -0.187   7.532  0.0773  0.0495  0.1614
   29SAPC  H12R 3876   3.342  -0.276   7.596  1.0767 -2.2908 -2.9150
   29SAPC  C213 3877   3.395  -0.065   7.595 -0.4185 -0.3850 -0.0539
   29SAPC  H13R 3878   3.352  -0.053   7.697  1.5722 -0.7217  0.8633
   29SAPC  H13S 3879   3.375   0.030   7.541  0.9708 -0.4142 -0.6496
   29SAPC  C214 3880   3.545  -0.072   7.603  0.0680  0.0011  0.3935
   29SAPC  H14R 3881   3.598  -0.152   7.550 -0.4920  0.1201 -0.3482
   29SAPC  C215 3882   3.619   0.001   7.685 -0.6640  0.8581  0.2106
   29SAPC  H15R 3883   3.728  -0.010   7.672 -0.9563 -0.0838 -1.7935
   29SAPC  C216 3884   3.568   0.100   7.788  0.2073  0.0321  0.0562
   29SAPC  H16R 3885   3.457   0.104   7.793  0.2099  0.9457 -0.4136
   29SAPC  H16S 3886   3.602   0.201   7.758 -0.1480 -0.3176 -1.6296
   29SAPC  C217 3887   3.612   0.078   7.928 -0.1131  0.2299  0.3587
   29SAPC  H17R 3888   3.576   0.154   8.000  0.6037  0.5774  0.3541
   29SAPC  H17S 3889   3.722   0.079   7.938  0.0268 -1.6005 -0.4561
   29SAPC  C218 3890   3.562  -0.047   7.994  0.8681 -0.8164 -0.0222
   29SAPC  H18R 3891   3.611  -0.062   8.092  0.4992 -2.2602 -0.0328
   29SAPC  H18S 3892   3.569  -0.137   7.929  0.6755 -0.7423 -0.1472
   29SAPC  C219 3893   3.405  -0.037   8.029 -0.5439  0.3469  0.3679
   29SAPC  H19R 3894   3.343  -0.043   7.937 -0.5896  0.9491  0.3539
   29SAPC  H19S 3895   3.384   0.067   8.062 -0.3469  1.3771 -2.4751
   29SAPC  C220 3896   3.351  -0.135   8.125  0.1397 -0.2755 -0.4318
   29SAPC  H20R 3897   3.240  -0.145   8.114 -0.1935  1.2633  1.0387
   29SAPC  H20S 3898   3.375  -0.117   8.232 -0.8822 -2.6850  0.2677
   29SAPC  H20T 3899   3.379  -0.239   8.100 -1.1159 -0.9161  0.6814
   29SAPC   C33 3900   2.772  -0.342   6.630  0.2061 -0.4017  0.3044
   29SAPC   H3X 3901   2.883  -0.336   6.623  0.1781  0.8873  0.7369
   29SAPC   H3Y 3902   2.753  -0.448   6.603 -1.7602  0.0889 -0.4693
   29SAPC   C34 3903   2.712  -0.315   6.768  0.3878  0.3590 -0.1186
   29SAPC   H4X 3904   2.731  -0.207   6.789 -1.4426  0.4858  1.0855
   29SAPC   H4Y 3905   2.767  -0.382   6.837  1.5835  1.1249 -0.2984
   29SAPC   C35 3906   2.564  -0.353   6.790 -0.3532  0.3861  0.0493
   29SAPC   H5X 3907   2.554  -0.454   6.745  0.7508  0.3910 -0.2258
   29SAPC   H5Y 3908   2.496  -0.290   6.728 -0.5502 -1.2512 -1.4757
   29SAPC   C36 3909   2.522  -0.348   6.936  0.1288  0.3453  0.0686
   29SAPC   H6X 3910   2.562  -0.436   6.990  1.0298  2.2727  2.7629
   29SAPC   H6Y 3911   2.412  -0.333   6.939  0.2884  2.5165 -1.7526
   29SAPC   C37 3912   2.591  -0.227   7.008  0.2570  0.2597  0.2366
   29SAPC   H7X 3913   2.560  -0.143   6.942 -0.4142 -0.5120 -0.4718
   29SAPC   H7Y 3914   2.701  -0.232   7.015  0.4621  2.7178 -0.3591
   29SAPC   C38 3915   2.535  -0.216   7.145  0.1319 -0.7009 -0.9114
   29SAPC   H8X 3916   2.567  -0.300   7.211 -2.6025  0.4991  2.2513
   29SAPC   H8Y 3917   2.424  -0.207   7.141  0.0306 -2.0026 -1.3017
   29SAPC   C39 3918   2.595  -0.094   7.212  1.0549 -0.1721 -0.2805
   29SAPC   H9X 3919   2.554  -0.005   7.157  0.6964  0.2385  0.6350
   29SAPC   H9Y 3920   2.704  -0.081   7.202  1.0894 -0.3136 -0.0822
   29SAPC  C310 3921   2.547  -0.074   7.357  0.1395 -0.2073 -0.2998
   29SAPC  H10X 3922   2.582  -0.161   7.417  0.1262 -0.0244 -0.0228
   29SAPC  H10Y 3923   2.437  -0.068   7.368  0.2016  0.3634  0.0551
   29SAPC  C311 3924   2.603   0.061   7.422  0.5546 -0.4243 -0.3284
   29SAPC  H11X 3925   2.579   0.144   7.352  1.4149 -0.0167 -0.1477
   29SAPC  H11Y 3926   2.712   0.052   7.441  0.7988  0.8035 -1.0281
   29SAPC  C312 3927   2.530   0.089   7.558 -0.6316 -0.9499  0.7592
   29SAPC  H12X 3928   2.539   0.003   7.629 -0.9227  1.8721  4.5349
   29SAPC  H12Y 3929   2.423   0.101   7.529 -0.0072  0.0774 -1.2761
   29SAPC  C313 3930   2.593   0.212   7.622  0.1638 -0.5250  0.0971
   29SAPC  H13X 3931   2.568   0.304   7.565 -0.3723  0.1992  1.4688
   29SAPC  H13Y 3932   2.701   0.192   7.638 -0.0734 -0.8957  1.3399
   29SAPC  C314 3933   2.535   0.229   7.761  0.1689 -0.6797 -0.8084
   29SAPC  H14X 3934   2.565   0.144   7.826  2.3445  1.4212  1.1051
   29SAPC  H14Y 3935   2.424   0.223   7.749 -0.1568 -1.8527  2.0729
   29SAPC  C315 3936   2.574   0.363   7.823  0.1577 -0.5434 -0.3445
   29SAPC  H15X 3937   2.548   0.446   7.753 -0.4584  1.0534  1.6844
   29SAPC  H15Y 3938   2.685   0.359   7.829  0.2846  0.4090 -1.5944
   29SAPC  C316 3939   2.497   0.391   7.955 -0.2775 -0.6439 -0.1662
   29SAPC  H16X 3940   2.502   0.304   8.024 -1.3446  1.9720  3.4980
   29SAPC  H16Y 3941   2.392   0.414   7.924 -0.3818  0.4630  0.9405
   29SAPC  C317 3942   2.563   0.503   8.036 -0.2916 -0.6995  0.2998
   29SAPC  H17X 3943   2.566   0.598   7.979  0.8719  0.4281  2.1449
   29SAPC  H17Y 3944   2.665   0.477   8.069  0.0737  0.4568  0.1255
   29SAPC  C318 3945   2.489   0.535   8.167 -0.0644 -0.0384  0.2085
   29SAPC  H18X 3946   2.547   0.606   8.230  0.4154 -1.7807  1.8337
   29SAPC  H18Y 3947   2.484   0.442   8.228  0.1661 -0.0359  0.2314
   29SAPC  H18Z 3948   2.386   0.573   8.148  0.6672  1.1298 -1.7252
   30SAPC     N 3949   3.203   5.251   5.815 -0.1760  0.0625 -0.2708
   30SAPC   C12 3950   3.109   5.205   5.922  0.0342 -0.5318 -0.4924
   30SAPC  H12A 3951   3.176   5.204   6.007  0.1093  1.9910 -0.4442
   30SAPC  H12B 3952   3.089   5.101   5.902  1.6360 -0.7338 -1.1851
   30SAPC   C13 3953   3.271   5.374   5.858  0.2806  0.1376 -0.1262
   30SAPC  H13A 3954   3.309   5.423   5.770  1.9384 -0.2865  0.2977
   30SAPC  H13B 3955   3.203   5.441   5.908  0.6906  0.4018  0.0870
   30SAPC  H13C 3956   3.349   5.358   5.931 -0.0209  2.6113  0.8342
   30SAPC   C14 3957   3.307   5.141   5.810  0.3826  0.1533 -0.2237
   30SAPC  H14A 3958   3.391   5.171   5.749 -0.7072 -0.7813 -2.2826
   30SAPC  H14B 3959   3.342   5.119   5.910 -0.1570 -1.5751 -0.3825
   30SAPC  H14C 3960   3.271   5.048   5.768 -0.0265 -0.9311  2.3624
   30SAPC   C15 3961   3.138   5.258   5.680  0.1868  0.6191 -0.7964
   30SAPC  H15A 3962   3.211   5.283   5.604  0.5145  1.1053 -0.3344
   30SAPC  H15B 3963   3.097   5.161   5.658  1.8629 -0.2295 -0.3245
   30SAPC  H15C 3964   3.067   5.339   5.677 -0.9095 -0.1722  1.5853
   30SAPC   C11 3965   2.984   5.291   5.960 -0.3063 -0.5057  0.2120
   30SAPC  H11A 3966   2.932   5.228   6.035  0.5179 -2.8017 -1.0276
   30SAPC  H11B 3967   2.906   5.305   5.882 -2.1221 -0.9414  1.8598
   30SAPC     P 3968   3.047   5.450   6.161  0.3718  0.3796 -0.4450
   30SAPC   O13 3969   3.183   5.499   6.185  0.6254 -0.1944  0.1679
   30SAPC   O14 3970   2.930   5.536   6.194 -0.0126  0.8841  0.1883
   30SAPC   O12 3971   3.028   5.414   6.006  0.5650 -0.0024 -0.4859
   30SAPC   O11 3972   3.024   5.312   6.229  0.6805  0.4789 -0.3825
   30SAPC    C1 3973   3.117   5.246   6.319  1.1543 -0.9733  0.0890
   30SAPC    HA 3974   3.106   5.136   6.328 -1.1813 -0.7669  0.2967
   30SAPC    HB 3975   3.221   5.274   6.290  0.5137  0.6942 -0.7245
   30SAPC    C2 3976   3.103   5.298   6.474  0.1055 -0.2970 -1.2293
   30SAPC    HS 3977   3.012   5.251   6.518 -1.7516  3.1264 -1.0403
   30SAPC   O21 3978   3.096   5.441   6.501  0.1682 -0.0328 -0.9289
   30SAPC   C21 3979   3.027   5.476   6.611 -0.5435 -0.2958 -0.1663
   30SAPC   O22 3980   2.960   5.405   6.680  0.5745  0.4009 -0.3041
   30SAPC   C22 3981   3.081   5.615   6.656  0.6341  0.0850  0.3635
   30SAPC   H2R 3982   3.188   5.629   6.633  0.7068  0.2674  0.7979
   30SAPC   H2S 3983   3.029   5.692   6.595 -0.7562 -1.7710 -0.8996
   30SAPC    C3 3984   3.236   5.255   6.553  0.2747  0.4857  0.2064
   30SAPC    HX 3985   3.314   5.324   6.515  1.5022 -1.7595 -1.5911
   30SAPC    HY 3986   3.262   5.152   6.522 -0.8181  0.8823 -2.3341
   30SAPC   O31 3987   3.235   5.268   6.698 -0.4009  0.0133 -0.0424
   30SAPC   C31 3988   3.173   5.159   6.756 -0.0943 -0.2824  0.0504
   30SAPC   O32 3989   3.132   5.058   6.699  0.1237  0.4348  0.2064
   30SAPC   C32 3990   3.127   5.196   6.897  0.4184  0.0614  0.3868
   30SAPC   H2X 3991   3.093   5.301   6.900  2.2534  0.6759  1.0049
   30SAPC   H2Y 3992   3.226   5.182   6.944 -0.2560 -2.3716  1.2530
   30SAPC   C23 3993   3.058   5.643   6.804  0.0756 -0.0748  0.3244
   30SAPC   H3R 3994   3.110   5.562   6.860 -0.9700  0.9019  2.8619
   30SAPC   H3S 3995   2.948   5.637   6.820 -0.2907 -3.2471 -2.2811
   30SAPC   C24 3996   3.107   5.779   6.852  0.2744  0.9981  0.8773
   30SAPC   H4R 3997   3.093   5.772   6.961 -1.6716 -4.0135  0.5302
   30SAPC   H4S 3998   3.032   5.852   6.813  2.0464  2.4471 -0.0172
   30SAPC   C25 3999   3.242   5.818   6.808  0.4356 -0.6320 -0.8009
   30SAPC   H5R 4000   3.231   5.868   6.711 -1.6635  0.2445 -0.1583
   30SAPC   C26 4001   3.351   5.813   6.878 -1.0849  0.0521 -0.2798
   30SAPC   H6R 4002   3.444   5.845   6.829 -2.0837  4.2423  0.1745
   30SAPC   C27 4003   3.373   5.750   7.018  0.8323 -0.5134 -0.3164
   30SAPC   H7R 4004   3.285   5.687   7.043  0.3514  0.0837 -0.4962
   30SAPC   H7S 4005   3.367   5.831   7.094  2.3034 -0.3372 -0.3613
   30SAPC   C28 4006   3.504   5.678   7.037 -0.3903 -0.1358 -0.3055
   30SAPC   H8R 4007   3.577   5.672   6.955  1.9467 -0.0220  1.6391
   30SAPC   C29 4008   3.543   5.616   7.150 -0.4419  0.2113  0.7659
   30SAPC   H9R 4009   3.639   5.561   7.148 -0.7422 -0.3074 -0.0004
   30SAPC  C210 4010   3.461   5.613   7.276  0.1103  0.2773 -0.2038
   30SAPC  H10R 4011   3.399   5.705   7.290 -0.9257 -0.7160  2.1680
   30SAPC  H10S 4012   3.525   5.631   7.364 -0.5472  0.5635  0.2269
   30SAPC  C211 4013   3.365   5.495   7.287 -0.3346  0.2898 -0.5921
   30SAPC  H11R 4014   3.316   5.466   7.193  1.0244 -2.2338 -0.6184
   30SAPC  C212 4015   3.319   5.441   7.405 -0.1231  0.2088  1.0459
   30SAPC  H12R 4016   3.244   5.360   7.395  0.2329  0.1369 -1.9603
   30SAPC  C213 4017   3.358   5.476   7.547 -0.1035  0.0792 -0.0542
   30SAPC  H13R 4018   3.281   5.543   7.592  0.1429  0.2747  0.0839
   30SAPC  H13S 4019   3.456   5.527   7.555  1.0801 -2.3590  2.3268
   30SAPC  C214 4020   3.373   5.359   7.637 -0.0725 -0.1903  0.1095
   30SAPC  H14R 4021   3.422   5.275   7.585 -1.2044 -0.4926 -0.5055
   30SAPC  C215 4022   3.343   5.349   7.769  0.3677  0.4402  0.2459
   30SAPC  H15R 4023   3.369   5.260   7.828  2.4146  0.7653 -0.0785
   30SAPC  C216 4024   3.284   5.450   7.859  0.7728  0.0816  0.0175
   30SAPC  H16R 4025   3.174   5.437   7.873  0.9918 -0.4345  1.4624
   30SAPC  H16S 4026   3.298   5.554   7.823 -2.3321  1.6773  2.7839
   30SAPC  C217 4027   3.354   5.455   7.995  0.1315  1.3878  0.0999
   30SAPC  H17R 4028   3.464   5.462   7.982  0.0532  2.2250 -0.2227
   30SAPC  H17S 4029   3.352   5.353   8.039 -1.3290  0.7000 -1.4459
   30SAPC  C218 4030   3.304   5.558   8.087  0.5865 -0.6090  0.1607
   30SAPC  H18R 4031   3.322   5.531   8.193 -1.5575  0.7804  0.9518
   30SAPC  H18S 4032   3.193   5.555   8.080  0.6077  0.5841 -1.1342
   30SAPC  C219 4033   3.345   5.707   8.056  0.3264  0.3797  0.2820
   30SAPC  H19R 4034   3.273   5.780   8.098  0.0851 -0.3917  1.2290
   30SAPC  H19S 4035   3.361   5.721   7.946 -0.4125 -1.4814 -0.0966
   30SAPC  C220 4036   3.491   5.723   8.105 -0.0570 -0.4544  1.0877
   30SAPC  H20R 4037   3.531   5.824   8.083 -2.6479  0.2517 -1.0191
   30SAPC  H20S 4038   3.553   5.637   8.072 -0.4125 -0.0287 -0.8238
   30SAPC  H20T 4039   3.494   5.717   8.216 -1.2914 -1.7187  1.0875
   30SAPC   C33 4040   3.008   5.103   6.951 -0.2770  0.3289  0.1781
   30SAPC   H3X 4041   3.051   5.029   7.021 -0.1851  0.6717  0.4912
   30SAPC   H3Y 4042   2.952   5.057   6.867 -0.4966 -1.2311  1.1516
   30SAPC   C34 4043   2.924   5.186   7.048 -0.8022 -0.0077  0.7261
   30SAPC   H4X 4044   2.827   5.143   7.082 -1.3611  0.8653  0.2684
   30SAPC   H4Y 4045   2.902   5.284   6.999  0.9334 -0.7020 -1.5760
   30SAPC   C35 4046   2.989   5.218   7.182  0.4048  0.2700  0.0694
   30SAPC   H5X 4047   3.079   5.278   7.159  2.6138 -2.2050  1.6422
   30SAPC   H5Y 4048   3.026   5.124   7.229  0.0520 -0.1732 -0.5295
   30SAPC   C36 4049   2.894   5.300   7.261  0.7247  0.3152  0.9403
   30SAPC   H6X 4050   2.804   5.238   7.280  1.0694 -1.7127 -2.9135
   30SAPC   H6Y 4051   2.859   5.388   7.202 -0.3633 -1.2811 -0.9465
   30SAPC   C37 4052   2.959   5.343   7.397 -0.0793  0.4572 -0.0449
   30SAPC   H7X 4053   3.014   5.440   7.399  0.2495  0.2839  2.2519
   30SAPC   H7Y 4054   3.038   5.271   7.426  0.1056  0.4357 -0.5929
   30SAPC   C38 4055   2.851   5.349   7.505 -0.0842  0.1410  0.9572
   30SAPC   H8X 4056   2.826   5.248   7.542  0.7142  0.0723  1.3289
   30SAPC   H8Y 4057   2.759   5.396   7.465  0.6122 -0.7840 -2.0209
   30SAPC   C39 4058   2.901   5.432   7.624 -0.1661 -0.2988 -0.4867
   30SAPC   H9X 4059   2.942   5.529   7.590  0.6805 -0.3262  0.3769
   30SAPC   H9Y 4060   2.995   5.386   7.664 -1.1601 -1.9397  0.1037
   30SAPC  C310 4061   2.793   5.445   7.725 -0.1990  0.0523  0.3101
   30SAPC  H10X 4062   2.738   5.349   7.737 -1.4328  0.7970  0.7846
   30SAPC  H10Y 4063   2.737   5.533   7.686  0.3253  0.4871  0.5388
   30SAPC  C311 4064   2.853   5.490   7.858 -0.3574 -0.4036  0.5645
   30SAPC  H11X 4065   2.916   5.574   7.822  0.1733 -0.6440  0.9040
   30SAPC  H11Y 4066   2.925   5.410   7.886 -0.3501 -0.5677  0.0848
   30SAPC  C312 4067   2.751   5.553   7.950  0.5205 -0.1333 -0.2340
   30SAPC  H12X 4068   2.688   5.471   7.991  0.8847  0.2157  1.0478
   30SAPC  H12Y 4069   2.689   5.622   7.889  0.9417  0.6520  0.2091
   30SAPC  C313 4070   2.823   5.628   8.060  0.0675  0.1749  0.2712
   30SAPC  H13X 4071   2.903   5.696   8.023 -1.9420  3.9007  2.1615
   30SAPC  H13Y 4072   2.881   5.551   8.116  0.7434  1.0929  0.8552
   30SAPC  C314 4073   2.734   5.688   8.174  0.1961 -0.5054 -0.1867
   30SAPC  H14X 4074   2.671   5.602   8.208  0.5205 -0.0075  1.7989
   30SAPC  H14Y 4075   2.675   5.775   8.137  1.8415 -0.0748 -1.9839
   30SAPC  C315 4076   2.817   5.718   8.301  1.0485 -0.5225  0.2027
   30SAPC  H15X 4077   2.880   5.803   8.267  0.9508 -0.9157 -0.9974
   30SAPC  H15Y 4078   2.889   5.644   8.341 -1.1542 -2.6522  0.4769
   30SAPC  C316 4079   2.728   5.777   8.414  0.2490 -0.5928 -0.1759
   30SAPC  H16X 4080   2.648   5.843   8.374  3.3434  2.9133 -1.0471
   30SAPC  H16Y 4081   2.784   5.856   8.468 -0.0070  1.0927 -2.2399
   30SAPC  C317 4082   2.675   5.679   8.511 -0.3220  0.2250 -0.0378
   30SAPC  H17X 4083   2.761   5.613   8.532 -0.2281  0.6282  0.9156
   30SAPC  H17Y 4084   2.599   5.611   8.466 -1.4097  0.8761  0.7554
   30SAPC  C318 4085   2.624   5.748   8.633  0.6766  0.1451 -0.0877
   30SAPC  H18X 4086   2.710   5.792   8.688  2.7002 -0.1509 -2.7795
   30SAPC  H18Y 4087   2.589   5.675   8.709  1.9422 -1.7682 -1.2336
   30SAPC  H18Z 4088   2.553   5.831   8.615  0.4833 -0.5008 -2.8826
   31SAPC     N 4089   5.898   2.119   6.141  0.3211 -0.6520  0.1662
   31SAPC   C12 4090   5.801   2.221   6.071  0.3942  1.0138  0.4787
   31SAPC  H12A 4091   5.702   2.178   6.076  1.3726 -1.3767  1.3420
   31SAPC  H12B 4092   5.831   2.226   5.968  0.8170  0.8275  0.5861
   31SAPC   C13 4093   6.037   2.169   6.155  0.3183  0.3647 -0.0328
   31SAPC  H13A 4094   6.037   2.246   6.230 -1.0100  1.1364 -0.7802
   31SAPC  H13B 4095   6.098   2.084   6.180  0.2663  0.6072  0.9809
   31SAPC  H13C 4096   6.064   2.218   6.063 -1.9233  0.0499 -0.9238
   31SAPC   C14 4097   5.837   2.083   6.278  0.2834  0.0775 -0.3270
   31SAPC  H14A 4098   5.736   2.049   6.262  0.5006 -0.3880 -0.7450
   31SAPC  H14B 4099   5.887   2.002   6.330 -0.7365 -0.2178  0.2279
   31SAPC  H14C 4100   5.841   2.168   6.344  0.3600  1.1998 -1.7419
   31SAPC   C15 4101   5.895   2.002   6.040 -0.6897 -0.3429 -0.0803
   31SAPC  H15A 4102   5.796   1.969   6.014 -0.1852 -0.0599 -2.6356
   31SAPC  H15B 4103   5.934   2.053   5.953 -2.9184 -0.6924 -1.3565
   31SAPC  H15C 4104   5.964   1.925   6.071 -0.5065 -0.1401  0.0170
   31SAPC   C11 4105   5.781   2.364   6.124  0.2646 -0.6040 -1.5565
   31SAPC  H11A 4106   5.738   2.438   6.052  2.5886  3.8542  1.1923
   31SAPC  H11B 4107   5.886   2.398   6.139  0.3673 -1.2414 -0.7758
   31SAPC     P 4108   5.558   2.340   6.265  0.0039 -0.2427  0.1861
   31SAPC   O13 4109   5.478   2.428   6.177 -0.3575 -0.6424  0.3948
   31SAPC   O14 4110   5.538   2.195   6.241 -0.0674 -0.5498  0.4792
   31SAPC   O12 4111   5.712   2.366   6.253 -0.4421  0.3370  0.5225
   31SAPC   O11 4112   5.517   2.388   6.413 -0.0415 -0.2658 -0.0529
   31SAPC    C1 4113   5.608   2.397   6.523 -0.1058 -0.3606  0.5547
   31SAPC    HA 4114   5.684   2.470   6.489  0.1446 -0.7328  0.3107
   31SAPC    HB 4115   5.557   2.440   6.612  0.2035 -0.2260  0.6690
   31SAPC    C2 4116   5.672   2.269   6.578 -0.3670  0.1129  1.0394
   31SAPC    HS 4117   5.749   2.231   6.508 -1.3026  1.6523 -0.9339
   31SAPC   O21 4118   5.572   2.163   6.586  0.3768  0.1556 -0.0713
   31SAPC   C21 4119   5.627   2.041   6.601  0.2798 -0.0875  0.4520
   31SAPC   O22 4120   5.744   2.015   6.599 -0.0044  0.3252 -0.0519
   31SAPC   C22 4121   5.513   1.939   6.618  0.4141 -0.2588 -0.5628
   31SAPC   H2R 4122   5.416   1.984   6.587 -0.3580  2.0342  4.1486
   31SAPC   H2S 4123   5.534   1.854   6.550 -0.0186  0.8669 -2.1508
   31SAPC    C3 4124   5.739   2.292   6.721  0.3154 -0.3508  0.4372
   31SAPC    HX 4125   5.789   2.390   6.703 -1.5954  0.5186 -0.4502
   31SAPC    HY 4126   5.800   2.201   6.736 -0.4359 -1.1657 -1.1990
   31SAPC   O31 4127   5.638   2.301   6.823 -0.0811 -0.5502 -0.0060
   31SAPC   C31 4128   5.689   2.376   6.920  0.3425 -0.4676 -1.1167
   31SAPC   O32 4129   5.808   2.413   6.925  0.3826 -0.1454 -0.8583
   31SAPC   C32 4130   5.584   2.389   7.027 -0.0121 -0.1399  0.1117
   31SAPC   H2X 4131   5.560   2.283   7.051 -1.4828  0.1289 -0.0964
   31SAPC   H2Y 4132   5.498   2.440   6.979 -0.4758  0.1814  1.2450
   31SAPC   C23 4133   5.501   1.881   6.762  0.5067 -0.0182  0.4873
   31SAPC   H3R 4134   5.534   1.957   6.836 -0.0376  1.9949 -1.2401
   31SAPC   H3S 4135   5.562   1.789   6.772 -1.4049 -1.5375 -0.7767
   31SAPC   C24 4136   5.364   1.839   6.799  0.1624 -0.9954 -0.1948
   31SAPC   H4R 4137   5.283   1.905   6.761 -0.2331 -1.3859 -0.0378
   31SAPC   H4S 4138   5.356   1.843   6.909  1.4349  0.5369 -0.1285
   31SAPC   C25 4139   5.326   1.698   6.763 -0.5865 -0.4891  0.2028
   31SAPC   H5R 4140   5.347   1.681   6.656 -0.7528  1.4489 -0.1766
   31SAPC   C26 4141   5.266   1.595   6.833 -0.3431 -0.7407  0.3167
   31SAPC   H6R 4142   5.239   1.497   6.790 -1.0182 -0.6038  0.4076
   31SAPC   C27 4143   5.230   1.607   6.981  0.0332 -0.2237  1.1480
   31SAPC   H7R 4144   5.122   1.585   6.986  0.1698 -1.2216  0.1093
   31SAPC   H7S 4145   5.239   1.712   7.018 -1.2971  0.8548 -1.3580
   31SAPC   C28 4146   5.321   1.520   7.067  0.0805  0.2842  0.3736
   31SAPC   H8R 4147   5.371   1.434   7.021 -1.1485 -0.1780 -0.1477
   31SAPC   C29 4148   5.337   1.548   7.199 -0.0342 -0.5701  0.2573
   31SAPC   H9R 4149   5.386   1.469   7.258  0.2628 -0.8999 -0.4233
   31SAPC  C210 4150   5.279   1.656   7.286  0.0705 -0.7647 -0.8556
   31SAPC  H10R 4151   5.217   1.603   7.361 -0.9311 -0.3192 -1.3643
   31SAPC  H10S 4152   5.203   1.708   7.225  1.5004 -1.1251 -3.0451
   31SAPC  C211 4153   5.371   1.758   7.354 -0.0895  0.6846  0.2566
   31SAPC  H11R 4154   5.396   1.844   7.290  0.8022  0.7206  0.6290
   31SAPC  C212 4155   5.419   1.745   7.481  0.0201  0.6188  0.8043
   31SAPC  H12R 4156   5.496   1.811   7.523  1.0736  0.6017 -1.0225
   31SAPC  C213 4157   5.383   1.637   7.583 -0.5433 -0.6447 -0.1821
   31SAPC  H13R 4158   5.367   1.543   7.527  1.3760 -1.0855 -0.0449
   31SAPC  H13S 4159   5.283   1.664   7.625 -1.7371 -1.5029 -2.3258
   31SAPC  C214 4160   5.477   1.606   7.697  0.2627  0.3194  0.1863
   31SAPC  H14R 4161   5.578   1.644   7.675  0.6658 -0.5108  0.5421
   31SAPC  C215 4162   5.453   1.555   7.816  0.3075  0.1371  0.2267
   31SAPC  H15R 4163   5.542   1.534   7.878 -0.2637  1.7615  1.6888
   31SAPC  C216 4164   5.322   1.514   7.889  0.9783  0.2782 -0.2584
   31SAPC  H16R 4165   5.255   1.603   7.883 -1.3271 -1.4214 -0.8717
   31SAPC  H16S 4166   5.344   1.498   7.997 -0.5746 -0.3240 -0.0127
   31SAPC  C217 4167   5.257   1.394   7.832  0.7286  1.2922  0.4348
   31SAPC  H17R 4168   5.303   1.300   7.870 -1.8382 -0.5600 -0.7295
   31SAPC  H17S 4169   5.282   1.389   7.724 -0.0998  1.8965  0.2047
   31SAPC  C218 4170   5.098   1.393   7.853 -0.5001  0.2521 -0.2542
   31SAPC  H18R 4171   5.052   1.329   7.774  1.2593  0.2697 -1.3593
   31SAPC  H18S 4172   5.058   1.496   7.851 -1.0240  0.0787  0.6422
   31SAPC  C219 4173   5.058   1.329   7.987 -0.0106 -0.7099 -0.1266
   31SAPC  H19R 4174   5.117   1.377   8.069  0.3638  0.2741 -0.9474
   31SAPC  H19S 4175   5.077   1.220   7.977  1.4054 -0.5824  0.8030
   31SAPC  C220 4176   4.905   1.350   8.022 -0.1962  0.6092 -0.5805
   31SAPC  H20R 4177   4.858   1.313   7.929  0.4990  0.7938 -1.0169
   31SAPC  H20S 4178   4.880   1.458   8.031  1.8116  1.1131 -0.3770
   31SAPC  H20T 4179   4.869   1.291   8.109  0.1967  1.2875  0.0592
   31SAPC   C33 4180   5.635   2.457   7.154  0.3262  0.1048  0.1784
   31SAPC   H3X 4181   5.556   2.521   7.197  1.7341  2.9646 -1.2410
   31SAPC   H3Y 4182   5.711   2.536   7.141  0.0181  0.3269 -0.2958
   31SAPC   C34 4183   5.710   2.356   7.250  0.3584 -0.4921  0.1399
   31SAPC   H4X 4184   5.803   2.324   7.197 -0.2186 -1.1417 -0.5067
   31SAPC   H4Y 4185   5.639   2.277   7.280 -2.0067  1.3115 -0.4206
   31SAPC   C35 4186   5.755   2.411   7.386  0.1008 -0.3311 -0.5223
   31SAPC   H5X 4187   5.838   2.484   7.379  1.2866 -1.4922  0.7152
   31SAPC   H5Y 4188   5.797   2.325   7.443 -1.6749  0.6112  2.4487
   31SAPC   C36 4189   5.646   2.480   7.469  0.0733 -0.7487 -0.2572
   31SAPC   H6X 4190   5.553   2.419   7.477 -1.0750  1.0470  0.9646
   31SAPC   H6Y 4191   5.621   2.580   7.426  2.9333 -0.1053 -0.6317
   31SAPC   C37 4192   5.689   2.501   7.621  0.4196  0.1145  0.4953
   31SAPC   H7X 4193   5.790   2.548   7.614  1.0354 -1.0748  1.0273
   31SAPC   H7Y 4194   5.708   2.399   7.661  0.8170  0.1407  0.3833
   31SAPC   C38 4195   5.591   2.574   7.708 -0.4831  0.0738  0.1885
   31SAPC   H8X 4196   5.494   2.527   7.681  0.3583 -1.7796  0.2253
   31SAPC   H8Y 4197   5.602   2.683   7.694  2.3703 -0.0015  1.0853
   31SAPC   C39 4198   5.607   2.541   7.855 -0.0745 -0.4253  0.3833
   31SAPC   H9X 4199   5.718   2.542   7.868 -0.0919  0.6781  0.5497
   31SAPC   H9Y 4200   5.568   2.439   7.874 -1.0245  0.3087  2.6658
   31SAPC  C310 4201   5.543   2.642   7.945  0.4663  0.5953 -1.0035
   31SAPC  H10X 4202   5.434   2.621   7.942  0.8386 -1.6403 -0.3186
   31SAPC  H10Y 4203   5.573   2.745   7.915  3.3725  0.0064 -0.3556
   31SAPC  C311 4204   5.594   2.638   8.090 -0.8976 -0.4391  0.3174
   31SAPC  H11X 4205   5.700   2.670   8.102 -1.1903  0.9551 -0.6579
   31SAPC  H11Y 4206   5.580   2.538   8.138 -1.3958 -0.9634 -0.8701
   31SAPC  C312 4207   5.513   2.750   8.168  0.6440  0.0603 -0.3207
   31SAPC  H12X 4208   5.411   2.708   8.173  0.5190  0.4128  0.1915
   31SAPC  H12Y 4209   5.500   2.850   8.123 -1.6922 -0.1553 -0.2093
   31SAPC  C313 4210   5.552   2.772   8.318 -0.0691  0.3429 -0.1620
   31SAPC  H13X 4211   5.496   2.849   8.376  1.5489 -0.5709  2.8222
   31SAPC  H13Y 4212   5.657   2.806   8.328  0.0115  0.9013 -2.3742
   31SAPC  C314 4213   5.535   2.641   8.399  1.0591  0.9422  0.2547
   31SAPC  H14X 4214   5.581   2.558   8.341 -1.0716  0.1542 -0.3679
   31SAPC  H14Y 4215   5.430   2.609   8.411  1.4322  0.3131  2.2156
   31SAPC  C315 4216   5.592   2.638   8.534 -0.0933  0.2869  0.4800
   31SAPC  H15X 4217   5.565   2.730   8.591  0.5799 -0.9633  2.9660
   31SAPC  H15Y 4218   5.703   2.636   8.524 -0.1647  0.1159 -0.2740
   31SAPC  C316 4219   5.540   2.515   8.613  0.3635  0.0097  0.0864
   31SAPC  H16X 4220   5.430   2.506   8.623  0.5205  0.0816  2.6401
   31SAPC  H16Y 4221   5.580   2.528   8.716 -0.8872 -1.6622  0.8050
   31SAPC  C317 4222   5.594   2.388   8.547 -0.0163 -0.0421 -0.0796
   31SAPC  H17X 4223   5.704   2.396   8.535 -0.2983  2.4329 -1.6313
   31SAPC  H17Y 4224   5.546   2.383   8.447 -1.1781 -2.1127  0.5179
   31SAPC  C318 4225   5.563   2.254   8.621  0.8570 -0.4562 -0.8443
   31SAPC  H18X 4226   5.608   2.163   8.575  4.9452  0.0849  1.6332
   31SAPC  H18Y 4227   5.455   2.236   8.639  1.0675 -1.0919 -0.1732
   31SAPC  H18Z 4228   5.601   2.267   8.725 -0.0722  4.3645 -0.8676
   32SAPC     N 4229   5.292   2.681   6.394 -0.0584 -0.1104  0.2798
   32SAPC   C12 4230   5.217   2.802   6.441 -0.0055 -0.1302  0.0810
   32SAPC  H12A 4231   5.257   2.838   6.535  0.1589 -0.0760 -0.0100
   32SAPC  H12B 4232   5.121   2.769   6.479 -0.5240  2.5036  1.3113
   32SAPC   C13 4233   5.422   2.732   6.325  0.1057  0.7513 -0.1580
   32SAPC  H13A 4234   5.470   2.639   6.297  0.3325  0.7580  0.2081
   32SAPC  H13B 4235   5.402   2.802   6.245 -1.0682  2.3267  1.4368
   32SAPC  H13C 4236   5.484   2.780   6.399  2.2174 -0.7535 -0.8249
   32SAPC   C14 4237   5.321   2.601   6.515  0.1057 -0.4068  0.0827
   32SAPC  H14A 4238   5.377   2.512   6.492 -1.1252 -2.1005  3.0289
   32SAPC  H14B 4239   5.377   2.655   6.590  1.6817 -0.0451 -1.3006
   32SAPC  H14C 4240   5.231   2.565   6.562 -1.0184  1.1765 -0.7692
   32SAPC   C15 4241   5.219   2.600   6.288 -0.2292 -0.7010 -0.5326
   32SAPC  H15A 4242   5.282   2.529   6.237 -1.6488 -2.2229 -0.2707
   32SAPC  H15B 4243   5.137   2.550   6.337 -1.0789  1.2071  0.0664
   32SAPC  H15C 4244   5.175   2.670   6.218 -1.9214 -0.8988  0.2971
   32SAPC   C11 4245   5.193   2.904   6.322  0.5908  0.4650 -0.4576
   32SAPC  H11A 4246   5.176   2.851   6.226 -0.7618 -1.1815  0.6406
   32SAPC  H11B 4247   5.282   2.971   6.315  1.1340 -0.2544 -0.5004
   32SAPC     P 4248   4.934   2.917   6.352  0.1112 -0.4602  0.6636
   32SAPC   O13 4249   4.893   2.945   6.215 -0.0650 -0.3183  0.6319
   32SAPC   O14 4250   4.924   2.776   6.391 -0.5768 -0.1174  0.0305
   32SAPC   O12 4251   5.081   2.982   6.367  0.3181  0.4894 -0.2097
   32SAPC   O11 4252   4.847   3.003   6.450 -0.3279  0.3844 -0.2862
   32SAPC    C1 4253   4.880   3.138   6.487 -0.2918 -0.5407 -0.5669
   32SAPC    HA 4254   4.943   3.186   6.408  0.4058 -2.9295 -1.5415
   32SAPC    HB 4255   4.784   3.189   6.511 -0.5953 -1.7941  1.0221
   32SAPC    C2 4256   4.973   3.146   6.613  0.1335 -0.6942  0.1485
   32SAPC    HS 4257   5.072   3.110   6.578  0.8422 -0.4196  1.8136
   32SAPC   O21 4258   4.920   3.061   6.712  0.0032 -0.1892  0.3247
   32SAPC   C21 4259   4.981   2.956   6.742  0.5935 -0.2780  0.3190
   32SAPC   O22 4260   5.094   2.917   6.713  0.3848  0.5740  0.3727
   32SAPC   C22 4261   4.890   2.877   6.841 -0.2599 -0.2521  0.4742
   32SAPC   H2R 4262   4.792   2.870   6.790 -0.0179  1.9341 -0.3681
   32SAPC   H2S 4263   4.940   2.782   6.873  1.0910  0.2983  0.0820
   32SAPC    C3 4264   4.979   3.295   6.674 -0.3960  0.0815  0.6657
   32SAPC    HX 4265   4.875   3.332   6.668  0.2245  2.1185  1.6849
   32SAPC    HY 4266   5.045   3.368   6.623 -0.1011  0.7230  1.9273
   32SAPC   O31 4267   5.035   3.297   6.814  0.9828 -0.0266 -0.0664
   32SAPC   C31 4268   5.160   3.338   6.838  0.1268 -0.4023  1.3449
   32SAPC   O32 4269   5.249   3.358   6.758  0.4517  0.0480 -0.0916
   32SAPC   C32 4270   5.174   3.348   6.987 -1.2273 -0.7141  0.0093
   32SAPC   H2X 4271   5.082   3.319   7.042 -1.3769  1.0367  0.7418
   32SAPC   H2Y 4272   5.221   3.446   7.011 -0.3844 -1.2323  0.5356
   32SAPC   C23 4273   4.854   2.961   6.958  0.1809  0.2960 -0.2064
   32SAPC   H3R 4274   4.772   2.912   7.014  0.1244  1.4813  0.7840
   32SAPC   H3S 4275   4.817   3.061   6.927 -1.2446  0.2525  1.2078
   32SAPC   C24 4276   4.957   2.993   7.061  0.5118  0.1862  0.2031
   32SAPC   H4R 4277   4.947   3.090   7.114  2.6207  0.8498 -0.5180
   32SAPC   H4S 4278   5.055   3.002   7.010  0.6348 -0.6842  0.2590
   32SAPC   C25 4279   4.967   2.874   7.159 -0.1418 -0.0738  0.6240
   32SAPC   H5R 4280   5.030   2.794   7.117  0.4051 -0.1786  1.6188
   32SAPC   C26 4281   4.912   2.873   7.281 -0.2549 -0.4308  0.1203
   32SAPC   H6R 4282   4.919   2.779   7.338 -1.6737 -2.0987 -2.2592
   32SAPC   C27 4283   4.821   2.985   7.344 -0.4109  0.6510  0.0114
   32SAPC   H7R 4284   4.729   2.943   7.390  0.3378 -0.9333  0.1331
   32SAPC   H7S 4285   4.786   3.055   7.265  0.7282  0.6057 -0.5441
   32SAPC   C28 4286   4.911   3.048   7.446 -0.1220 -0.9158 -0.2888
   32SAPC   H8R 4287   5.008   3.088   7.413 -1.3872  3.0067  0.2455
   32SAPC   C29 4288   4.888   3.059   7.578 -0.2419  0.0626 -0.1601
   32SAPC   H9R 4289   4.956   3.122   7.637  0.9910 -0.9750 -0.4197
   32SAPC  C210 4290   4.771   3.021   7.657  0.4476  0.2794 -0.1496
   32SAPC  H10R 4291   4.689   2.982   7.593 -1.6609  0.6355  2.1601
   32SAPC  H10S 4292   4.716   3.110   7.695  1.6074  1.0233 -0.1662
   32SAPC  C211 4293   4.784   2.908   7.763  1.1382  0.7826  0.1067
   32SAPC  H11R 4294   4.854   2.828   7.739 -0.7131 -0.5531 -1.0764
   32SAPC  C212 4295   4.729   2.894   7.888 -0.0123  0.1246 -0.2002
   32SAPC  H12R 4296   4.744   2.804   7.948 -2.0787  0.2494  0.5890
   32SAPC  C213 4297   4.627   2.987   7.953 -0.4048  0.3205  1.0042
   32SAPC  H13R 4298   4.582   3.055   7.878  2.9104  1.0411 -0.5432
   32SAPC  H13S 4299   4.679   3.052   8.027 -0.6804  1.5975  0.1112
   32SAPC  C214 4300   4.508   2.916   8.016  0.1193  0.0759 -0.1540
   32SAPC  H14R 4301   4.416   2.928   7.956  0.2415 -0.6988 -0.5112
   32SAPC  C215 4302   4.514   2.843   8.128 -0.0049  0.1147  0.4264
   32SAPC  H15R 4303   4.436   2.777   8.170  0.3571  0.0569  1.0262
   32SAPC  C216 4304   4.640   2.823   8.207 -0.4810  0.5202 -0.4423
   32SAPC  H16R 4305   4.724   2.886   8.170  1.6851 -0.0782  3.0276
   32SAPC  H16S 4306   4.671   2.719   8.183  0.7149  1.1066 -1.5964
   32SAPC  C217 4307   4.630   2.815   8.363 -0.1366  1.3368  0.2644
   32SAPC  H17R 4308   4.567   2.731   8.398  1.6049 -0.7489 -1.3298
   32SAPC  H17S 4309   4.598   2.917   8.395  1.0375  2.0582 -0.7791
   32SAPC  C218 4310   4.767   2.776   8.430 -0.6096  0.1414 -0.1137
   32SAPC  H18R 4311   4.848   2.847   8.404  0.0440  0.1001  1.6913
   32SAPC  H18S 4312   4.810   2.675   8.411  0.9336  0.7640 -0.0902
   32SAPC  C219 4313   4.749   2.776   8.584  0.3558 -0.0753 -0.0345
   32SAPC  H19R 4314   4.655   2.720   8.604  0.9093 -0.7406  0.7822
   32SAPC  H19S 4315   4.741   2.882   8.615  1.4649 -0.6793  2.6716
   32SAPC  C220 4316   4.863   2.713   8.669 -0.5934 -0.7047 -0.1971
   32SAPC  H20R 4317   4.841   2.739   8.775 -0.7436  0.3194 -0.4763
   32SAPC  H20S 4318   4.957   2.770   8.652 -1.1153  0.8191  1.6773
   32SAPC  H20T 4319   4.868   2.604   8.647  1.7193 -0.1816 -2.8654
   32SAPC   C33 4320   5.286   3.252   7.041  0.7757  0.0561  0.4570
   32SAPC   H3X 4321   5.376   3.245   6.976  0.9929  1.4925  0.5627
   32SAPC   H3Y 4322   5.242   3.151   7.038  0.9793 -0.0084 -1.6569
   32SAPC   C34 4323   5.322   3.272   7.190  1.0076  0.0981  0.4122
   32SAPC   H4X 4324   5.398   3.199   7.226  1.8183  1.5613  1.7953
   32SAPC   H4Y 4325   5.222   3.265   7.239  0.5343 -1.0114 -0.6663
   32SAPC   C35 4326   5.376   3.408   7.234  0.8559  0.4424  0.2918
   32SAPC   H5X 4327   5.288   3.475   7.219  1.0786  0.6731 -0.0105
   32SAPC   H5Y 4328   5.452   3.451   7.164  0.0340  1.5406  0.0454
   32SAPC   C36 4329   5.429   3.412   7.376  0.4781  0.2999  0.0643
   32SAPC   H6X 4330   5.486   3.502   7.408 -1.5604  1.3892  0.8168
   32SAPC   H6Y 4331   5.499   3.326   7.381 -0.3796 -0.3494  1.3366
   32SAPC   C37 4332   5.318   3.386   7.480  0.8368 -0.8361  0.0885
   32SAPC   H7X 4333   5.303   3.276   7.474  1.5494 -0.9557  0.3821
   32SAPC   H7Y 4334   5.222   3.437   7.456  0.9897 -0.9427 -0.7859
   32SAPC   C38 4335   5.362   3.417   7.625 -0.4974 -0.4874  0.6861
   32SAPC   H8X 4336   5.375   3.526   7.638 -0.0608 -0.3764 -0.5262
   32SAPC   H8Y 4337   5.458   3.366   7.647  0.4041  0.5682 -0.6404
   32SAPC   C39 4338   5.260   3.354   7.724  0.8897  0.6396  0.4049
   32SAPC   H9X 4339   5.266   3.244   7.731 -1.2814  0.3995 -0.6980
   32SAPC   H9Y 4340   5.164   3.385   7.679  0.0525 -2.5466 -0.2215
   32SAPC  C310 4341   5.257   3.412   7.866 -0.3933  0.4476  0.1225
   32SAPC  H10X 4342   5.341   3.384   7.933 -0.6405  1.2158  0.7758
   32SAPC  H10Y 4343   5.164   3.372   7.911 -0.8769  1.1743 -0.1964
   32SAPC  C311 4344   5.257   3.569   7.877 -1.2368  0.8551 -0.4555
   32SAPC  H11X 4345   5.172   3.615   7.822 -0.0617  3.6558 -0.0647
   32SAPC  H11Y 4346   5.353   3.609   7.839 -0.4225 -0.7554 -0.1816
   32SAPC  C312 4347   5.251   3.616   8.028 -0.5122  0.3823  0.7008
   32SAPC  H12X 4348   5.242   3.726   8.036  1.7786  0.8266 -1.5402
   32SAPC  H12Y 4349   5.352   3.583   8.061 -0.2984 -0.7042 -0.9173
   32SAPC  C313 4350   5.143   3.554   8.120 -0.3630 -0.5422  0.3187
   32SAPC  H13X 4351   5.157   3.444   8.125 -0.5838 -0.5569  0.6576
   32SAPC  H13Y 4352   5.045   3.582   8.075  0.1529  0.5144 -0.1783
   32SAPC  C314 4353   5.156   3.606   8.263  0.1182  0.8064  0.2338
   32SAPC  H14X 4354   5.120   3.710   8.246 -0.4306  0.8185  1.3829
   32SAPC  H14Y 4355   5.260   3.604   8.299  0.9665 -0.6963 -2.0756
   32SAPC  C315 4356   5.047   3.546   8.352 -0.7136 -0.4190 -0.2075
   32SAPC  H15X 4357   4.953   3.581   8.305 -0.0609  0.5325 -0.8390
   32SAPC  H15Y 4358   5.059   3.598   8.449 -2.7093  1.0837 -0.7056
   32SAPC  C316 4359   5.057   3.393   8.376 -0.0194 -0.2149  0.6149
   32SAPC  H16X 4360   5.158   3.351   8.392 -0.2786 -0.9114  0.4895
   32SAPC  H16Y 4361   5.015   3.347   8.284 -0.3987 -1.6763  1.4652
   32SAPC  C317 4362   4.960   3.341   8.486 -0.6191  0.1055  0.1861
   32SAPC  H17X 4363   4.853   3.363   8.463 -0.4541 -1.4146 -2.3518
   32SAPC  H17Y 4364   4.977   3.402   8.577  0.4441  1.6337 -0.9812
   32SAPC  C318 4365   4.990   3.193   8.520  0.5922 -0.1899 -0.4302
   32SAPC  H18X 4366   5.016   3.126   8.436  1.4571 -1.8029  1.0546
   32SAPC  H18Y 4367   4.904   3.148   8.575  1.5086 -1.4298  0.0347
   32SAPC  H18Z 4368   5.075   3.193   8.592 -0.3217 -0.5052  0.6908
   33POPC     N 4369   3.701   0.709  10.793  0.0662  0.5349  0.2559
   33POPC   C12 4370   3.763   0.804  10.696  0.5682 -0.0673  0.3178
   33POPC  H12A 4371   3.866   0.776  10.681  0.4042  0.5058 -2.3932
   33POPC  H12B 4372   3.769   0.903  10.740  2.1467  0.6712 -1.4223
   33POPC   C13 4373   3.720   0.566  10.746 -0.3449 -0.8745 -0.2268
   33POPC  H13A 4374   3.718   0.502  10.833  2.7146 -1.4136 -0.4323
   33POPC  H13B 4375   3.645   0.547  10.670 -0.4184  2.9465 -1.2799
   33POPC  H13C 4376   3.824   0.557  10.716  0.9754  2.2368  2.7165
   33POPC   C14 4377   3.774   0.721  10.924  0.2038 -0.7461  0.3165
   33POPC  H14A 4378   3.875   0.688  10.909 -0.0455 -1.3912  0.0419
   33POPC  H14B 4379   3.775   0.822  10.964 -1.4844 -0.4091 -0.3881
   33POPC  H14C 4380   3.737   0.655  11.000  0.6931 -0.9348  0.3908
   33POPC   C15 4381   3.554   0.739  10.808 -0.1055  0.0964  0.5094
   33POPC  H15A 4382   3.509   0.686  10.891 -1.1917  0.2293  0.0147
   33POPC  H15B 4383   3.487   0.725  10.724  0.6933  1.0621 -0.3065
   33POPC  H15C 4384   3.546   0.843  10.836  0.0168  0.0770  0.6160
   33POPC   C11 4385   3.695   0.823  10.561  0.6663  0.0431  0.3078
   33POPC  H11A 4386   3.677   0.725  10.512  0.5508  0.8125 -1.2482
   33POPC  H11B 4387   3.767   0.875  10.494 -0.4926 -0.1213 -1.1300
   33POPC     P 4388   3.581   1.047  10.602  0.0150  0.0111 -0.0715
   33POPC   O13 4389   3.704   1.106  10.670  0.0988 -0.3047 -0.4153
   33POPC   O14 4390   3.457   1.074  10.677 -0.3089  0.8273 -0.1814
   33POPC   O12 4391   3.570   0.892  10.574 -0.4552  0.5464 -0.2866
   33POPC   O11 4392   3.558   1.114  10.458 -1.2234  0.0279  0.0366
   33POPC    C1 4393   3.447   1.077  10.381 -0.3128 -0.0806  0.2918
   33POPC    HA 4394   3.427   0.968  10.392 -2.6101  0.4849  2.3789
   33POPC    HB 4395   3.358   1.137  10.410  0.3644  0.3932  1.4934
   33POPC    C2 4396   3.460   1.111  10.229 -0.6156  0.0618  0.1072
   33POPC    HS 4397   3.558   1.073  10.193 -0.3782  1.1820 -0.4701
   33POPC   O21 4398   3.451   1.256  10.221  0.1150  0.0125  0.4375
   33POPC   C21 4399   3.547   1.318  10.150  0.4788 -0.0245  0.5877
   33POPC   O22 4400   3.633   1.269  10.084  0.5378 -0.4569  0.1952
   33POPC   C22 4401   3.519   1.470  10.162  0.0196  0.0621  0.6072
   33POPC   H2R 4402   3.613   1.529  10.158 -0.8183  1.3735 -1.3508
   33POPC   H2S 4403   3.460   1.492  10.253  0.9952  3.3112  0.6079
   33POPC    C3 4404   3.345   1.042  10.143  0.3690  0.3374 -0.2375
   33POPC    HX 4405   3.259   1.100  10.181 -1.0124 -1.4604 -0.4873
   33POPC    HY 4406   3.333   0.935  10.172  0.5383  0.9134  2.1116
   33POPC   O31 4407   3.369   1.064  10.005  0.2175 -0.0479 -0.4973
   33POPC   C31 4408   3.279   1.008   9.923  0.0454  0.4384  0.1814
   33POPC   O32 4409   3.179   0.946   9.961 -0.1646 -0.6556  0.1499
   33POPC   C32 4410   3.323   1.024   9.778  0.4539 -0.2953  0.4049
   33POPC   H2X 4411   3.420   0.970   9.774  0.6588  0.1237 -1.2013
   33POPC   H2Y 4412   3.347   1.130   9.755 -0.3414 -0.4715 -1.4617
   33POPC   C23 4413   3.423   1.521  10.039  0.4825  0.3943 -0.8729
   33POPC   H3R 4414   3.391   1.626  10.059 -2.1912 -0.7447  1.4922
   33POPC   H3S 4415   3.327   1.466  10.038  0.0255  1.0399  1.3325
   33POPC   C24 4416   3.492   1.514   9.907  0.2759  0.3930  0.0079
   33POPC   H4R 4417   3.542   1.416   9.892  0.4844  0.5292 -0.1887
   33POPC   H4S 4418   3.571   1.592   9.914 -1.5551  2.1769  1.7912
   33POPC   C25 4419   3.386   1.544   9.798 -0.2018  0.2325  0.4805
   33POPC   H5R 4420   3.375   1.654   9.807 -0.7282  0.2664 -0.4055
   33POPC   H5S 4421   3.284   1.499   9.808 -0.1404 -0.6146 -1.8839
   33POPC   C26 4422   3.430   1.519   9.656 -0.5001  0.2588  0.6938
   33POPC   H6R 4423   3.529   1.569   9.643  0.1888 -1.3109 -0.4819
   33POPC   H6S 4424   3.357   1.572   9.591 -1.1744 -0.2401  1.0364
   33POPC   C27 4425   3.431   1.369   9.600  0.6963  0.4870  0.5245
   33POPC   H7R 4426   3.328   1.330   9.607  1.0212 -1.3326 -2.8820
   33POPC   H7S 4427   3.507   1.318   9.664  1.0942  0.4455  0.0260
   33POPC   C28 4428   3.478   1.360   9.451  0.9122 -0.8639  0.9814
   33POPC   H8R 4429   3.443   1.273   9.392 -0.2034  0.5551 -0.5832
   33POPC   H8S 4430   3.589   1.363   9.458  0.8786 -0.1627  1.3479
   33POPC   C29 4431   3.412   1.472   9.367  0.5174 -0.0230  0.8400
   33POPC   H91 4432   3.304   1.472   9.384  0.3749 -0.0617 -0.0112
   33POPC  C210 4433   3.465   1.559   9.279  0.8709 -0.0544 -0.0050
   33POPC  H101 4434   3.396   1.634   9.237  0.4069 -0.0380  0.7727
   33POPC  C211 4435   3.610   1.563   9.239  0.2748 -0.2228 -0.3820
   33POPC  H11R 4436   3.678   1.508   9.308  0.8257  0.5351 -0.3066
   33POPC  H11S 4437   3.651   1.665   9.221 -0.7618  0.0409 -1.3390
   33POPC  C212 4438   3.622   1.510   9.092  0.5879 -0.9194 -0.2482
   33POPC  H12R 4439   3.724   1.523   9.050  0.4104  1.0965 -0.1270
   33POPC  H12S 4440   3.556   1.568   9.025 -0.2801 -1.5811  0.0159
   33POPC  C213 4441   3.580   1.361   9.074  0.2442 -0.4231  0.2859
   33POPC  H13R 4442   3.479   1.328   9.108  0.1992 -0.7220 -0.1214
   33POPC  H13S 4443   3.654   1.304   9.133 -2.2250 -1.7467  2.3134
   33POPC  C214 4444   3.591   1.308   8.934 -0.7605 -0.1098  0.1100
   33POPC  H14R 4445   3.534   1.370   8.861  0.6632 -1.2065 -2.0640
   33POPC  H14S 4446   3.554   1.204   8.924 -2.6178  0.5818 -0.6940
   33POPC  C215 4447   3.736   1.298   8.875 -0.3214 -0.0074  0.4157
   33POPC  H15R 4448   3.789   1.228   8.942  0.2008 -1.0023 -0.9907
   33POPC  H15S 4449   3.784   1.398   8.875 -1.1146  0.4258 -1.5330
   33POPC  C216 4450   3.730   1.239   8.733  0.0709  0.2969 -0.3045
   33POPC  H16R 4451   3.663   1.312   8.682  2.0976  2.4284 -0.0638
   33POPC  H16S 4452   3.696   1.135   8.748  0.1676  0.2114 -0.6493
   33POPC  C217 4453   3.862   1.250   8.662 -0.6742 -0.3824  0.1085
   33POPC  H17R 4454   3.935   1.184   8.713  3.8987  3.4026 -0.7869
   33POPC  H17S 4455   3.897   1.354   8.682  1.7465 -1.3369  1.2027
   33POPC  C218 4456   3.850   1.209   8.513 -0.1718 -0.4880  0.6702
   33POPC  H18R 4457   3.793   1.286   8.456  0.3289  0.3142  1.2268
   33POPC  H18S 4458   3.805   1.109   8.494 -0.9799 -0.1035  0.5232
   33POPC  H18T 4459   3.950   1.203   8.467 -0.3815 -1.4354  0.3209
   33POPC   C33 4460   3.226   0.976   9.669 -0.9266 -0.5059  0.0473
   33POPC   H3X 4461   3.130   1.031   9.679  0.2351  1.9486 -1.2220
   33POPC   H3Y 4462   3.198   0.869   9.679  1.3577 -1.1373  0.1689
   33POPC   C34 4463   3.284   0.994   9.523 -0.3528 -0.7753  0.1812
   33POPC   H4X 4464   3.371   0.926   9.509  2.6460  2.9458 -1.0630
   33POPC   H4Y 4465   3.338   1.091   9.527  0.3363 -0.9992 -2.2941
   33POPC   C35 4466   3.176   0.974   9.408 -0.5417 -0.0242  0.1950
   33POPC   H5X 4467   3.111   1.063   9.424 -0.4544 -0.0884  0.9296
   33POPC   H5Y 4468   3.121   0.880   9.430  0.6330 -0.9228 -0.5520
   33POPC   C36 4469   3.219   0.965   9.262 -0.3984  0.0284  0.6654
   33POPC   H6X 4470   3.134   0.922   9.206 -0.2227  0.3250  0.1611
   33POPC   H6Y 4471   3.305   0.896   9.248  0.6822  1.2560  0.9843
   33POPC   C37 4472   3.267   1.102   9.204  0.6520  0.1538 -0.1948
   33POPC   H7X 4473   3.352   1.138   9.265 -0.0955 -0.0804  1.0217
   33POPC   H7Y 4474   3.185   1.177   9.216  1.3488  0.5315  3.3824
   33POPC   C38 4475   3.323   1.092   9.060  0.5909 -0.1196  0.8736
   33POPC   H8X 4476   3.424   1.046   9.055  2.0495  2.8701  0.7336
   33POPC   H8Y 4477   3.318   1.192   9.011  2.2122 -0.8904 -0.9640
   33POPC   C39 4478   3.242   1.005   8.964  0.6687  0.7508  0.1201
   33POPC   H9X 4479   3.134   1.024   8.980  0.7448  3.5313 -1.8568
   33POPC   H9Y 4480   3.267   0.897   8.967  0.3187  0.6367 -0.7772
   33POPC  C310 4481   3.265   1.049   8.813 -0.2688  0.9629  0.3279
   33POPC  H10X 4482   3.245   1.155   8.788  1.5186  1.2820  0.1822
   33POPC  H10Y 4483   3.197   0.999   8.740  1.8473  1.6653 -2.2630
   33POPC  C311 4484   3.404   1.003   8.770 -0.7651  0.2956  0.1726
   33POPC  H11X 4485   3.448   0.947   8.855 -1.7160 -0.5693  0.1056
   33POPC  H11Y 4486   3.465   1.094   8.752  1.0163 -1.1632 -1.5575
   33POPC  C312 4487   3.406   0.919   8.651  0.3927  0.2379  0.2575
   33POPC  H12X 4488   3.345   0.979   8.581 -0.5068 -0.4488  0.4311
   33POPC  H12Y 4489   3.351   0.823   8.659  0.5354  0.1877  0.6823
   33POPC  C313 4490   3.548   0.879   8.594  0.1223  0.0343 -0.1531
   33POPC  H13X 4491   3.610   0.827   8.670  0.8713  1.0414 -0.0572
   33POPC  H13Y 4492   3.599   0.975   8.574  0.9302 -0.1250  1.0349
   33POPC  C314 4493   3.538   0.808   8.464  0.7281  0.8746 -0.0573
   33POPC  H14X 4494   3.478   0.869   8.393 -2.5592 -2.1217 -0.1498
   33POPC  H14Y 4495   3.472   0.718   8.464 -0.1176  1.4728  1.1291
   33POPC  C315 4496   3.666   0.786   8.387  0.2254 -0.6833  0.4113
   33POPC  H15X 4497   3.732   0.875   8.386  1.7714 -1.7836  0.7786
   33POPC  H15Y 4498   3.645   0.758   8.281  3.9500 -1.4958 -0.2503
   33POPC  C316 4499   3.759   0.666   8.441  0.8101 -0.3048 -0.0268
   33POPC  H16X 4500   3.856   0.650   8.390  0.6539 -0.7325 -0.1987
   33POPC  H16Y 4501   3.699   0.572   8.437  0.0766  0.0753  1.2942
   33POPC  H16Z 4502   3.782   0.676   8.549  0.9756 -1.0220  0.0123
   34POPC     N 4503   2.720   0.550  10.677 -0.3265  0.0984 -0.4790
   34POPC   C12 4504   2.678   0.407  10.704  0.4808  0.0686  0.2132
   34POPC  H12A 4505   2.600   0.404  10.779 -2.3246 -1.2340 -2.5049
   34POPC  H12B 4506   2.761   0.359  10.754  0.0701 -1.9888 -0.9695
   34POPC   C13 4507   2.748   0.617  10.803  0.6187  0.4916  0.0002
   34POPC  H13A 4508   2.789   0.713  10.774  0.3293  0.1557 -1.5992
   34POPC  H13B 4509   2.661   0.612  10.867  0.1404 -0.9948 -0.7363
   34POPC  H13C 4510   2.830   0.566  10.852  0.2502 -2.0227 -1.8363
   34POPC   C14 4511   2.846   0.552  10.596 -0.1826  0.6076 -0.0681
   34POPC  H14A 4512   2.928   0.501  10.645  0.8613  3.3602  1.2990
   34POPC  H14B 4513   2.832   0.510  10.498  1.6312  1.9637 -0.9724
   34POPC  H14C 4514   2.878   0.654  10.583  2.4813 -0.2667 -1.1735
   34POPC   C15 4515   2.607   0.619  10.611 -0.2588 -0.8211  0.7560
   34POPC  H15A 4516   2.638   0.711  10.563  0.7196 -1.9241 -0.8506
   34POPC  H15B 4517   2.524   0.635  10.677 -0.4679 -1.3360  0.6167
   34POPC  H15C 4518   2.574   0.556  10.530 -1.4700  2.3545 -1.4114
   34POPC   C11 4519   2.628   0.322  10.583  0.2833  0.2977  0.5157
   34POPC  H11A 4520   2.619   0.214  10.606  0.2422 -0.1455 -1.4073
   34POPC  H11B 4521   2.696   0.343  10.498  0.1499 -0.1100  0.3081
   34POPC     P 4522   2.422   0.290  10.439 -0.8848  0.0438 -0.2362
   34POPC   O13 4523   2.298   0.363  10.411  0.0893 -0.1778 -0.4326
   34POPC   O14 4524   2.425   0.149  10.475  0.2097  0.3409 -0.1503
   34POPC   O12 4525   2.497   0.370  10.556  0.1799 -0.1195 -0.8732
   34POPC   O11 4526   2.518   0.319  10.323  0.0998 -0.3039  0.3938
   34POPC    C1 4527   2.527   0.454  10.273 -0.3647 -0.1442 -0.0943
   34POPC    HA 4528   2.562   0.523  10.353 -3.5654 -0.0142  1.3443
   34POPC    HB 4529   2.425   0.487  10.245 -0.5156 -1.5056 -1.2667
   34POPC    C2 4530   2.603   0.468  10.139  0.1960  0.0091 -0.8189
   34POPC    HS 4531   2.636   0.573  10.126 -0.1158  0.0864 -1.0011
   34POPC   O21 4532   2.513   0.416  10.039 -0.1927 -0.2416  0.2829
   34POPC   C21 4533   2.473   0.511   9.954  0.4099 -0.3791  0.8825
   34POPC   O22 4534   2.479   0.631   9.965  0.1136  0.0481  0.6643
   34POPC   C22 4535   2.415   0.438   9.838 -0.1587 -0.3312  0.2693
   34POPC   H2R 4536   2.353   0.350   9.866  0.0246  0.1878  2.5165
   34POPC   H2S 4537   2.502   0.400   9.780  1.0450  2.2195  0.2948
   34POPC    C3 4538   2.735   0.386  10.126  0.7797 -0.5959 -0.0970
   34POPC    HX 4539   2.719   0.287  10.173  0.9506  0.2849  1.9242
   34POPC    HY 4540   2.800   0.448  10.192  0.9245  0.1293 -0.9145
   34POPC   O31 4541   2.781   0.394   9.989  0.3759  0.5038  0.6212
   34POPC   C31 4542   2.885   0.309   9.978  0.3278  0.5225  0.6248
   34POPC   O32 4543   2.935   0.256  10.074 -0.1645 -0.2059 -0.2629
   34POPC   C32 4544   2.915   0.267   9.832 -0.9858 -0.4911 -0.4684
   34POPC   H2X 4545   2.918   0.156   9.823 -0.5650 -0.5626  0.4364
   34POPC   H2Y 4546   3.010   0.319   9.805 -0.1517 -2.0267 -0.6155
   34POPC   C23 4547   2.327   0.523   9.745  0.4623 -0.5868 -0.2599
   34POPC   H3R 4548   2.380   0.593   9.676  0.2410 -2.5115 -2.4770
   34POPC   H3S 4549   2.267   0.579   9.821  2.6596  1.1842  0.2956
   34POPC   C24 4550   2.227   0.432   9.665 -0.1195  0.0061 -0.2494
   34POPC   H4R 4551   2.148   0.494   9.617 -1.4684 -1.8612 -0.5372
   34POPC   H4S 4552   2.198   0.366   9.749  2.4044  0.9957  1.5179
   34POPC   C25 4553   2.307   0.354   9.556  0.0087  0.3148 -0.7989
   34POPC   H5R 4554   2.382   0.286   9.601  0.4802  0.7224 -0.9623
   34POPC   H5S 4555   2.348   0.436   9.493 -0.3224  1.0578 -0.0616
   34POPC   C26 4556   2.209   0.266   9.473 -1.0769 -0.1853  0.0819
   34POPC   H6R 4557   2.110   0.314   9.452 -1.1608 -0.9176 -1.3275
   34POPC   H6S 4558   2.171   0.192   9.546 -2.2036  1.1778  0.9417
   34POPC   C27 4559   2.266   0.224   9.338 -0.3263 -0.1505  0.0770
   34POPC   H7R 4560   2.268   0.113   9.326  1.6662 -0.2929  1.2792
   34POPC   H7S 4561   2.373   0.252   9.342 -0.6546  1.2549 -0.5627
   34POPC   C28 4562   2.197   0.285   9.215  0.0650  0.6322 -0.2953
   34POPC   H8R 4563   2.158   0.384   9.245  0.2437 -0.4769  4.3733
   34POPC   H8S 4564   2.113   0.218   9.187  1.4884 -1.5005  0.2598
   34POPC   C29 4565   2.296   0.291   9.103 -0.1303 -0.7722 -1.2625
   34POPC   H91 4566   2.388   0.232   9.110 -0.4432 -1.1886 -0.5567
   34POPC  C210 4567   2.294   0.382   9.007 -0.2744 -0.0684 -0.3754
   34POPC  H101 4568   2.372   0.361   8.933  1.5715 -1.1948  1.7349
   34POPC  C211 4569   2.180   0.481   8.982 -0.1561 -0.0883 -0.1829
   34POPC  H11R 4570   2.221   0.584   8.977 -2.9503  1.0618 -3.9095
   34POPC  H11S 4571   2.110   0.491   9.068  0.1075 -0.4060  0.0766
   34POPC  C212 4572   2.112   0.455   8.845  0.7565 -0.0157  0.3076
   34POPC  H12R 4573   2.185   0.457   8.761  1.6104 -0.4906  1.0193
   34POPC  H12S 4574   2.022   0.518   8.831  1.0240  0.3036  0.0136
   34POPC  C213 4575   2.050   0.308   8.837 -0.6552 -0.2666 -0.1636
   34POPC  H13R 4576   2.004   0.300   8.938 -0.3406 -0.7010 -0.0499
   34POPC  H13S 4577   2.141   0.244   8.845  0.4828  1.1264 -1.4289
   34POPC  C214 4578   1.929   0.285   8.745  0.3961  0.4750  0.1879
   34POPC  H14R 4579   1.850   0.361   8.758 -0.0650 -0.0394  0.4365
   34POPC  H14S 4580   1.888   0.186   8.776  0.7282  0.8464  1.8582
   34POPC  C215 4581   1.963   0.283   8.598  0.1533 -0.1132  0.0929
   34POPC  H15R 4582   2.063   0.237   8.582 -0.6453 -1.6071 -0.8383
   34POPC  H15S 4583   1.975   0.385   8.556  0.6468 -0.3976 -0.4692
   34POPC  C216 4584   1.858   0.201   8.507  0.0854 -0.2800  0.2577
   34POPC  H16R 4585   1.811   0.122   8.569 -0.4364  0.1517  0.4278
   34POPC  H16S 4586   1.912   0.146   8.428 -0.0436  2.3968 -1.8513
   34POPC  C217 4587   1.751   0.289   8.449 -0.9190  0.7905 -0.3963
   34POPC  H17R 4588   1.801   0.364   8.385 -0.7765  2.4534  1.5499
   34POPC  H17S 4589   1.690   0.355   8.515 -0.1224  1.9657 -0.8158
   34POPC  C218 4590   1.650   0.204   8.365 -0.2005 -0.0686 -0.8578
   34POPC  H18R 4591   1.595   0.263   8.288 -1.9796  0.2152  0.5706
   34POPC  H18S 4592   1.585   0.161   8.444  2.5504 -0.6655  1.2517
   34POPC  H18T 4593   1.704   0.118   8.319  1.6095  1.7528 -2.3746
   34POPC   C33 4594   2.809   0.310   9.729  0.4177  0.2743 -0.4746
   34POPC   H3X 4595   2.789   0.418   9.746  0.6141  0.3819 -0.8925
   34POPC   H3Y 4596   2.720   0.247   9.749  1.0101 -0.1746  0.8357
   34POPC   C34 4597   2.848   0.268   9.583 -0.1213 -0.1406 -0.8662
   34POPC   H4X 4598   2.868   0.159   9.592 -0.0630 -0.0634  0.0274
   34POPC   H4Y 4599   2.945   0.311   9.550  0.4356 -0.9500 -0.3226
   34POPC   C35 4600   2.749   0.283   9.467  0.3334 -0.1039 -0.0756
   34POPC   H5X 4601   2.726   0.392   9.471  2.2955  0.3155  2.4317
   34POPC   H5Y 4602   2.660   0.217   9.481 -0.8245  1.1761 -1.0883
   34POPC   C36 4603   2.809   0.244   9.332  0.9634  0.0058  0.2791
   34POPC   H6X 4604   2.829   0.135   9.321  0.3866 -0.1185  0.4719
   34POPC   H6Y 4605   2.901   0.300   9.302  1.7884 -1.3731  0.1529
   34POPC   C37 4606   2.699   0.275   9.219 -1.0102  0.1935  0.1400
   34POPC   H7X 4607   2.595   0.266   9.257 -1.7841 -1.1372 -2.0746
   34POPC   H7Y 4608   2.706   0.181   9.159 -1.1715 -0.9280  1.8269
   34POPC   C38 4609   2.738   0.383   9.119  0.5458  0.2930  0.7810
   34POPC   H8X 4610   2.838   0.364   9.073  1.0890 -0.0174  2.0182
   34POPC   H8Y 4611   2.738   0.484   9.165  1.8551  1.0727 -0.8294
   34POPC   C39 4612   2.634   0.386   9.003  0.1554 -0.0932 -0.6254
   34POPC   H9X 4613   2.554   0.451   9.042  1.4256  0.9065  0.4089
   34POPC   H9Y 4614   2.607   0.279   8.991  1.6202 -0.5353 -0.2937
   34POPC  C310 4615   2.680   0.448   8.866  0.0489 -0.2941  0.0308
   34POPC  H10X 4616   2.716   0.551   8.883  3.8396 -1.5877  0.8705
   34POPC  H10Y 4617   2.591   0.448   8.800 -0.5320 -0.1591  0.7905
   34POPC  C311 4618   2.788   0.374   8.780 -0.2245  0.3680 -0.6070
   34POPC  H11X 4619   2.758   0.267   8.781 -3.5136  1.1581 -1.2333
   34POPC  H11Y 4620   2.882   0.388   8.837 -0.9596  2.0907  0.2644
   34POPC  C312 4621   2.788   0.409   8.630  0.7663  0.1055 -1.0214
   34POPC  H12X 4622   2.683   0.411   8.594  0.4986 -1.3412 -0.4168
   34POPC  H12Y 4623   2.844   0.329   8.577 -0.6900 -3.0957  1.8607
   34POPC  C313 4624   2.856   0.547   8.608 -0.2855  0.9601 -0.0343
   34POPC  H13X 4625   2.950   0.546   8.667 -0.2468  2.3384 -0.0259
   34POPC  H13Y 4626   2.789   0.620   8.660 -0.2424  0.2542  1.0578
   34POPC  C314 4627   2.860   0.576   8.458 -1.2255  0.1418  0.1811
   34POPC  H14X 4628   2.764   0.611   8.414 -1.0817 -0.4666 -0.6557
   34POPC  H14Y 4629   2.884   0.481   8.405 -0.1882  0.5509 -0.1052
   34POPC  C315 4630   2.978   0.670   8.414  0.5658 -0.0245  0.0647
   34POPC  H15X 4631   2.964   0.776   8.444  1.1605 -0.0067  0.2988
   34POPC  H15Y 4632   2.981   0.659   8.303 -0.6131 -1.3394  0.1418
   34POPC  C316 4633   3.114   0.618   8.458 -0.5168 -0.3536 -0.3255
   34POPC  H16X 4634   3.126   0.631   8.568 -0.3319 -0.8074 -0.2884
   34POPC  H16Y 4635   3.182   0.677   8.394  0.1191 -0.6365  0.0744
   34POPC  H16Z 4636   3.125   0.511   8.431 -0.4112 -0.4359  0.0319
   35POPC     N 4637   2.136   5.101  11.183 -0.2700 -1.0050  0.2826
   35POPC   C12 4638   2.138   5.124  11.034 -0.0098 -0.5328  0.4456
   35POPC  H12A 4639   2.226   5.184  11.016 -0.0470 -0.9886 -1.5260
   35POPC  H12B 4640   2.061   5.192  10.998 -0.1142 -1.0740 -0.3975
   35POPC   C13 4641   2.024   5.016  11.219  0.5574  0.6008  0.7972
   35POPC  H13A 4642   1.927   5.062  11.215  0.6105  0.7980  1.5058
   35POPC  H13B 4643   2.020   4.929  11.156 -0.7252  0.9693  0.3368
   35POPC  H13C 4644   2.030   4.973  11.318 -0.4456  0.8174  0.9614
   35POPC   C14 4645   2.267   5.028  11.217  0.3687 -0.0938 -0.4366
   35POPC  H14A 4646   2.364   5.061  11.183  0.2375  1.1939  0.3643
   35POPC  H14B 4647   2.274   5.029  11.324 -2.6917 -0.3630 -0.1304
   35POPC  H14C 4648   2.241   4.925  11.198  1.4602 -0.7106  1.2799
   35POPC   C15 4649   2.142   5.229  11.264  0.3496 -0.4795  0.2928
   35POPC  H15A 4650   2.060   5.298  11.248  0.7489  0.2627  1.3050
   35POPC  H15B 4651   2.234   5.283  11.251  0.1031 -0.3916 -1.1763
   35POPC  H15C 4652   2.134   5.215  11.371  2.1736  2.8940  1.0073
   35POPC   C11 4653   2.134   5.008  10.928  1.0021  0.0689 -0.4629
   35POPC  H11A 4654   2.190   4.923  10.972  0.5307  0.2350  0.4846
   35POPC  H11B 4655   2.175   5.028  10.827  1.4884  2.5537  0.1523
   35POPC     P 4656   1.893   5.058  10.838 -0.3770  0.3078  0.0537
   35POPC   O13 4657   1.859   5.184  10.913 -0.4168 -0.0051  0.6052
   35POPC   O14 4658   1.785   4.965  10.795  0.9268 -0.1431 -0.0478
   35POPC   O12 4659   1.995   4.971  10.920 -1.1951 -0.0852 -0.3827
   35POPC   O11 4660   1.961   5.122  10.709  0.4761  0.5548 -0.2185
   35POPC    C1 4661   2.025   5.038  10.608 -0.0030 -0.5302  0.4044
   35POPC    HA 4662   2.048   4.932  10.633  1.7404 -0.1206  0.7117
   35POPC    HB 4663   2.119   5.093  10.585  0.4218  0.0300  3.1214
   35POPC    C2 4664   1.941   5.036  10.471 -0.3107  1.0080  0.2559
   35POPC    HS 4665   2.011   5.000  10.392 -0.6825  0.8043  0.0162
   35POPC   O21 4666   1.875   5.164  10.437  0.2345  0.1085  0.5825
   35POPC   C21 4667   1.954   5.257  10.401  0.0664 -0.2573 -0.5161
   35POPC   O22 4668   2.071   5.242  10.362 -0.2216  0.0716 -0.1057
   35POPC   C22 4669   1.879   5.394  10.405 -0.9572 -0.6919 -1.4203
   35POPC   H2R 4670   1.944   5.468  10.352 -0.9786  0.3014 -0.0937
   35POPC   H2S 4671   1.887   5.432  10.509 -0.3542 -1.7422 -1.0720
   35POPC    C3 4672   1.837   4.928  10.480 -0.2059  0.1916 -0.0875
   35POPC    HX 4673   1.771   4.945  10.567 -1.0627  3.9113 -1.3039
   35POPC    HY 4674   1.897   4.837  10.504  1.9929  1.7163  0.4599
   35POPC   O31 4675   1.766   4.908  10.348 -0.0404 -0.5807  0.3734
   35POPC   C31 4676   1.646   4.962  10.344  0.4477 -0.4647 -0.3915
   35POPC   O32 4677   1.573   4.995  10.438  0.0616  0.6875 -0.3591
   35POPC   C32 4678   1.602   4.980  10.199  0.6619  0.8620 -0.4328
   35POPC   H2X 4679   1.594   4.876  10.160  0.2109  1.0342 -0.8131
   35POPC   H2Y 4680   1.683   5.029  10.139 -0.7112  1.4871 -1.8463
   35POPC   C23 4681   1.729   5.393  10.361  0.0164 -0.1256  0.1221
   35POPC   H3R 4682   1.687   5.495  10.379 -0.7499 -0.7104  1.8437
   35POPC   H3S 4683   1.667   5.326  10.424 -1.6700 -0.4800 -1.8220
   35POPC   C24 4684   1.715   5.347  10.211 -0.4167  0.2326  0.2549
   35POPC   H4R 4685   1.607   5.335  10.188 -0.4510  3.8431 -2.3954
   35POPC   H4S 4686   1.769   5.249  10.210  0.6591  0.7320  2.5921
   35POPC   C25 4687   1.770   5.447  10.099  0.7582  0.5412 -0.1146
   35POPC   H5R 4688   1.853   5.509  10.139  1.3493 -1.8502  2.7126
   35POPC   H5S 4689   1.677   5.505  10.084 -0.0265 -1.0593 -1.7922
   35POPC   C26 4690   1.804   5.398   9.962  0.2689  0.6452  0.4436
   35POPC   H6R 4691   1.816   5.488   9.898  0.5539 -2.0841 -3.7430
   35POPC   H6S 4692   1.717   5.345   9.918 -0.0182  1.2056  0.3343
   35POPC   C27 4693   1.936   5.318   9.955 -0.7543  0.3467  0.4369
   35POPC   H7R 4694   1.932   5.229  10.022  2.5447 -1.5421 -1.6208
   35POPC   H7S 4695   2.017   5.372  10.008  0.5717 -2.6514  1.6931
   35POPC   C28 4696   1.978   5.272   9.814 -0.1852 -0.0732  0.9751
   35POPC   H8R 4697   2.057   5.198   9.839  0.0399 -0.0624  0.3105
   35POPC   H8S 4698   2.032   5.354   9.762 -0.4446  0.9191  2.2311
   35POPC   C29 4699   1.872   5.205   9.738  0.6627 -0.1022  0.4111
   35POPC   H91 4700   1.835   5.105   9.764 -1.3580  1.0258  2.2200
   35POPC  C210 4701   1.813   5.274   9.637  0.7948 -0.7939  0.2734
   35POPC  H101 4702   1.724   5.225   9.594  1.5946 -1.3464 -0.7907
   35POPC  C211 4703   1.847   5.413   9.577 -0.1289  0.7070 -0.3858
   35POPC  H11R 4704   1.936   5.454   9.630 -2.3947  1.4852  3.2147
   35POPC  H11S 4705   1.764   5.482   9.604  0.7404  1.3889  0.6415
   35POPC  C212 4706   1.860   5.400   9.430  0.1320 -0.2761 -0.7087
   35POPC  H12R 4707   1.839   5.491   9.369  0.5451 -0.1205 -0.6217
   35POPC  H12S 4708   1.779   5.330   9.400 -1.0228  0.6641  0.1004
   35POPC  C213 4709   1.994   5.343   9.370 -0.1143 -0.1893 -0.4303
   35POPC  H13R 4710   2.024   5.250   9.423  2.8463  0.1018 -1.4182
   35POPC  H13S 4711   2.077   5.411   9.398 -1.7567  1.7141  0.0674
   35POPC  C214 4712   1.986   5.321   9.218 -0.2539  0.7687 -0.3413
   35POPC  H14R 4713   2.086   5.293   9.176 -0.3917  1.1880 -0.9536
   35POPC  H14S 4714   1.966   5.418   9.168  0.5628  0.0712 -2.1016
   35POPC  C215 4715   1.889   5.211   9.175 -0.0407 -0.3968 -0.9069
   35POPC  H15R 4716   1.781   5.236   9.172 -0.0332 -0.1360 -4.8863
   35POPC  H15S 4717   1.896   5.130   9.251 -0.4929  0.6769  0.3108
   35POPC  C216 4718   1.922   5.144   9.043  0.3770  0.0003  0.3761
   35POPC  H16R 4719   2.025   5.105   9.051  0.0724 -0.7043  0.9995
   35POPC  H16S 4720   1.916   5.229   8.971 -1.1864  1.4543  2.0917
   35POPC  C217 4721   1.842   5.024   8.996 -0.4826  0.6320  0.1376
   35POPC  H17R 4722   1.831   4.952   9.079  0.2283  1.0824  0.6375
   35POPC  H17S 4723   1.904   4.963   8.928 -1.0932 -0.2409  0.3459
   35POPC  C218 4724   1.712   5.052   8.929  0.4998  0.3191 -0.0094
   35POPC  H18R 4725   1.720   5.119   8.841  0.7776 -0.4840 -0.6144
   35POPC  H18S 4726   1.652   5.092   9.014  0.6080 -0.8203  0.6241
   35POPC  H18T 4727   1.672   4.954   8.894  0.7773  0.2935 -0.2547
   35POPC   C33 4728   1.476   5.056  10.172  0.5289 -0.0194 -0.3369
   35POPC   H3X 4729   1.487   5.161  10.207 -1.1061 -0.1706  0.7670
   35POPC   H3Y 4730   1.390   5.019  10.232  1.2382  0.4161  0.9818
   35POPC   C34 4731   1.437   5.061  10.023 -0.2523  0.3849 -0.1473
   35POPC   H4X 4732   1.396   4.959  10.010 -1.3166  0.3339  2.7499
   35POPC   H4Y 4733   1.528   5.078   9.962  0.7916  0.8933  1.4850
   35POPC   C35 4734   1.333   5.172   9.994  0.4584  0.2957  0.4192
   35POPC   H5X 4735   1.378   5.270  10.024  1.0718  0.4838 -1.0440
   35POPC   H5Y 4736   1.248   5.158  10.064  0.5165 -0.1691  0.4024
   35POPC   C36 4737   1.297   5.180   9.846  0.6848  0.2061  0.4632
   35POPC   H6X 4738   1.202   5.237   9.844 -0.2831 -1.1450  3.0425
   35POPC   H6Y 4739   1.269   5.076   9.820 -0.5702  0.3361  1.2392
   35POPC   C37 4740   1.405   5.216   9.747  0.5119 -1.1149 -0.8748
   35POPC   H7X 4741   1.489   5.144   9.733  2.0641  0.2953  0.6303
   35POPC   H7Y 4742   1.445   5.316   9.774  1.0048 -2.0834  2.5665
   35POPC   C38 4743   1.346   5.243   9.608  0.0276  0.3213  0.6164
   35POPC   H8X 4744   1.273   5.326   9.620  0.7997  0.9868  0.8182
   35POPC   H8Y 4745   1.279   5.159   9.582  0.7040 -0.5016  1.4607
   35POPC   C39 4746   1.449   5.265   9.497 -0.3744 -0.6055 -0.1451
   35POPC   H9X 4747   1.500   5.172   9.462  2.0361 -0.8936  3.5962
   35POPC   H9Y 4748   1.526   5.333   9.538  1.2942 -2.0186 -0.8174
   35POPC  C310 4749   1.397   5.346   9.381  0.6125  0.5354 -0.1157
   35POPC  H10X 4750   1.350   5.441   9.413  1.2881  1.2660 -1.2154
   35POPC  H10Y 4751   1.308   5.293   9.342  1.0416 -0.1449 -0.1886
   35POPC  C311 4752   1.501   5.358   9.275 -0.3173 -0.1409 -0.8743
   35POPC  H11X 4753   1.553   5.262   9.257 -1.7373 -1.3335  1.0837
   35POPC  H11Y 4754   1.581   5.421   9.319 -1.9020  1.9109 -0.7713
   35POPC  C312 4755   1.458   5.432   9.149  0.7595  0.3196  0.1014
   35POPC  H12X 4756   1.452   5.543   9.155  2.4737  0.4380  0.2794
   35POPC  H12Y 4757   1.364   5.386   9.112  0.3480  2.6449 -2.0743
   35POPC  C313 4758   1.571   5.418   9.047 -0.2771 -0.5897  0.1709
   35POPC  H13X 4759   1.582   5.315   9.006 -0.3394 -0.0357 -1.3171
   35POPC  H13Y 4760   1.667   5.427   9.102 -1.6906  0.8953  2.5212
   35POPC  C314 4761   1.573   5.532   8.938  0.2748  0.0017 -0.4027
   35POPC  H14X 4762   1.608   5.625   8.987 -1.9029  1.4399 -1.4106
   35POPC  H14Y 4763   1.471   5.558   8.903 -0.1700  1.2060  1.6209
   35POPC  C315 4764   1.653   5.485   8.818 -1.0184  0.4956  0.4896
   35POPC  H15X 4765   1.600   5.403   8.765 -1.7321  1.3551 -0.1599
   35POPC  H15Y 4766   1.749   5.443   8.857  1.0682  1.0541 -3.5806
   35POPC  C316 4767   1.681   5.593   8.713 -0.6421 -0.2972 -0.0668
   35POPC  H16X 4768   1.706   5.541   8.618 -1.0065  0.1783 -0.4288
   35POPC  H16Y 4769   1.759   5.660   8.753 -0.7988  0.6120 -1.2197
   35POPC  H16Z 4770   1.588   5.648   8.687 -1.8976 -2.0776  0.4876
   36POPC     N 4771   2.928   2.629  10.515  0.1014 -0.2992  0.4350
   36POPC   C12 4772   2.978   2.700  10.638  0.2475 -0.8354  0.6236
   36POPC  H12A 4773   2.913   2.683  10.722  1.5211 -0.1130  1.7859
   36POPC  H12B 4774   2.968   2.806  10.619 -0.6787 -1.1097 -0.5490
   36POPC   C13 4775   3.009   2.666  10.394 -0.2620 -0.0600  0.6851
   36POPC  H13A 4776   3.114   2.650  10.409 -0.1870 -0.0364  0.1999
   36POPC  H13B 4777   2.982   2.607  10.307  1.1128  2.2661 -1.4630
   36POPC  H13C 4778   2.992   2.763  10.349  2.5633 -0.0923 -0.6466
   36POPC   C14 4779   2.926   2.483  10.529  0.3362  0.3036 -0.1867
   36POPC  H14A 4780   3.028   2.448  10.540 -0.5176 -1.9243  1.3028
   36POPC  H14B 4781   2.877   2.447  10.617 -0.5431  1.5895 -0.1276
   36POPC  H14C 4782   2.887   2.434  10.441 -0.2391 -0.6211  0.5824
   36POPC   C15 4783   2.790   2.666  10.484  0.3380  0.0479  0.1213
   36POPC  H15A 4784   2.743   2.601  10.411 -1.4342  0.4416  0.8476
   36POPC  H15B 4785   2.782   2.770  10.455 -0.3214  0.3430  1.2936
   36POPC  H15C 4786   2.729   2.657  10.572  0.5575 -0.6651  0.2034
   36POPC   C11 4787   3.124   2.666  10.688  0.2015 -0.3811  0.7098
   36POPC  H11A 4788   3.136   2.557  10.706  2.3269 -0.3353 -0.1319
   36POPC  H11B 4789   3.137   2.733  10.776 -0.9689  0.7987  0.0243
   36POPC     P 4790   3.373   2.725  10.621  0.2341  0.2690  0.2529
   36POPC   O13 4791   3.464   2.633  10.545 -0.6379  0.2788 -0.7767
   36POPC   O14 4792   3.389   2.731  10.764 -0.8390 -0.2744 -0.1610
   36POPC   O12 4793   3.215   2.694  10.584  0.1908 -0.3413 -0.3843
   36POPC   O11 4794   3.392   2.874  10.569 -0.1880  0.1925  0.1908
   36POPC    C1 4795   3.304   2.976  10.613  0.1001 -0.8073  0.3423
   36POPC    HA 4796   3.365   3.069  10.622 -0.1362 -0.3725 -2.0148
   36POPC    HB 4797   3.259   2.961  10.713 -0.1507  2.3561  0.8038
   36POPC    C2 4798   3.199   3.012  10.505 -0.6143 -0.0457 -0.2830
   36POPC    HS 4799   3.146   2.915  10.494 -1.9954  0.7358 -0.7452
   36POPC   O21 4800   3.270   3.051  10.385  0.3953  0.0477  0.0789
   36POPC   C21 4801   3.215   3.013  10.274  0.1843 -0.4073  0.0368
   36POPC   O22 4802   3.141   2.919  10.264  0.0374 -0.4060 -0.0183
   36POPC   C22 4803   3.284   3.098  10.161 -0.3991  0.7489 -0.7549
   36POPC   H2R 4804   3.390   3.066  10.155  0.7227  3.4356  1.9712
   36POPC   H2S 4805   3.284   3.207  10.185  1.8584  0.5717  0.2680
   36POPC    C3 4806   3.105   3.132  10.547 -0.1587 -0.3214 -0.0150
   36POPC    HX 4807   3.186   3.206  10.563  0.1709 -0.4753 -0.9346
   36POPC    HY 4808   3.055   3.099  10.641 -1.6357  0.9545 -0.3057
   36POPC   O31 4809   3.014   3.170  10.446 -0.0239  0.2178  0.0873
   36POPC   C31 4810   2.911   3.087  10.424 -0.3444 -0.5448  0.3885
   36POPC   O32 4811   2.870   2.993  10.490  0.0300 -0.5446  0.7041
   36POPC   C32 4812   2.849   3.140  10.294  0.5717  0.1209  0.3222
   36POPC   H2X 4813   2.929   3.171  10.223  0.1379  0.4302 -0.0363
   36POPC   H2Y 4814   2.777   3.220  10.322 -2.8588 -1.9942 -1.6503
   36POPC   C23 4815   3.218   3.082  10.014  0.2225  0.1466 -0.0086
   36POPC   H3R 4816   3.112   3.114  10.027  0.2371 -0.1501  0.9179
   36POPC   H3S 4817   3.214   2.978   9.977 -2.1267  0.6653 -1.4109
   36POPC   C24 4818   3.288   3.165   9.908 -0.2236  0.2248  0.2137
   36POPC   H4R 4819   3.392   3.130   9.886 -0.5149 -0.4424 -0.1501
   36POPC   H4S 4820   3.285   3.272   9.936 -0.0722  0.9483 -2.2918
   36POPC   C25 4821   3.213   3.151   9.778 -0.5213  0.5171 -0.7940
   36POPC   H5R 4822   3.112   3.191   9.800 -1.1330 -0.8360 -1.0208
   36POPC   H5S 4823   3.210   3.042   9.758 -0.6445  0.3469  0.1407
   36POPC   C26 4824   3.281   3.233   9.671  0.4461  0.7103  0.5814
   36POPC   H6R 4825   3.386   3.205   9.646  0.4200  0.1216  1.1257
   36POPC   H6S 4826   3.284   3.338   9.705 -2.8141  0.7750  0.9340
   36POPC   C27 4827   3.206   3.222   9.536 -0.3293  0.0253 -0.3197
   36POPC   H7R 4828   3.097   3.243   9.542  0.1642  2.5665  0.6966
   36POPC   H7S 4829   3.216   3.114   9.512  1.8045 -0.3169  1.8060
   36POPC   C28 4830   3.282   3.297   9.425 -0.4308 -0.2422  0.0682
   36POPC   H8R 4831   3.390   3.275   9.415 -0.5248 -0.5195 -0.3914
   36POPC   H8S 4832   3.269   3.407   9.432 -0.6798 -0.1816 -1.2013
   36POPC   C29 4833   3.202   3.282   9.289  0.2397 -0.0667 -0.7667
   36POPC   H91 4834   3.108   3.336   9.273 -0.9647 -1.6026  0.7411
   36POPC  C210 4835   3.245   3.207   9.187 -0.0279  0.6253  0.0009
   36POPC  H101 4836   3.201   3.200   9.086  0.9091  0.3365 -0.4014
   36POPC  C211 4837   3.362   3.118   9.187 -0.6577  0.0505  0.4358
   36POPC  H11R 4838   3.332   3.016   9.154  1.2173 -1.1028  2.0853
   36POPC  H11S 4839   3.407   3.097   9.286  0.6173 -3.7387 -0.7702
   36POPC  C212 4840   3.460   3.173   9.083  0.5805  0.2035 -0.6296
   36POPC  H12R 4841   3.565   3.153   9.115  0.4285 -0.7280 -0.6775
   36POPC  H12S 4842   3.448   3.283   9.076 -2.8440  0.1628  1.9462
   36POPC  C213 4843   3.418   3.116   8.947 -1.1914  0.0220 -1.1436
   36POPC  H13R 4844   3.325   3.172   8.927 -0.6233  1.2807 -0.3843
   36POPC  H13S 4845   3.397   3.008   8.964  0.3082 -0.1202  0.0629
   36POPC  C214 4846   3.518   3.136   8.837 -0.1509  0.0056  0.9273
   36POPC  H14R 4847   3.622   3.101   8.855  0.0200 -0.2286 -0.4542
   36POPC  H14S 4848   3.533   3.245   8.821  0.9573 -0.1587  0.7277
   36POPC  C215 4849   3.464   3.084   8.704  0.2207  0.2993  0.6716
   36POPC  H15R 4850   3.364   3.132   8.693 -0.1892 -0.2488  1.8519
   36POPC  H15S 4851   3.446   2.975   8.715 -0.0582  0.3387  0.6277
   36POPC  C216 4852   3.553   3.113   8.585  0.4051  0.6830  0.5372
   36POPC  H16R 4853   3.560   3.223   8.571 -1.3025  0.7204 -0.1779
   36POPC  H16S 4854   3.508   3.073   8.492 -0.5896  0.4425  1.1059
   36POPC  C217 4855   3.699   3.066   8.593  0.0183  0.0764  0.2480
   36POPC  H17R 4856   3.693   2.961   8.626 -1.5614 -0.0174 -0.2707
   36POPC  H17S 4857   3.755   3.130   8.665  1.6872 -1.4590  0.3802
   36POPC  C218 4858   3.766   3.079   8.460 -0.4417  0.0312  0.2748
   36POPC  H18R 4859   3.724   3.010   8.384 -0.1589 -2.5980  2.3649
   36POPC  H18S 4860   3.875   3.063   8.473 -0.0227 -0.0470 -2.7292
   36POPC  H18T 4861   3.755   3.186   8.430 -2.1888  0.3576  1.8468
   36POPC   C33 4862   2.767   3.026  10.232  0.2232 -0.3333 -0.1592
   36POPC   H3X 4863   2.687   2.992  10.301  0.4573  1.4945  1.0718
   36POPC   H3Y 4864   2.832   2.939  10.208  0.8342 -0.6238  2.3223
   36POPC   C34 4865   2.684   3.071  10.103 -0.4683 -0.4694  0.4869
   36POPC   H4X 4866   2.602   3.139  10.132  0.9623  1.1628  0.9133
   36POPC   H4Y 4867   2.638   2.976  10.069 -0.8184 -1.1942  2.8535
   36POPC   C35 4868   2.764   3.138   9.990 -0.2834 -0.8602 -0.2300
   36POPC   H5X 4869   2.849   3.068   9.974  0.8541  0.2833  0.6065
   36POPC   H5Y 4870   2.811   3.231  10.029  1.7229 -1.2107 -1.6699
   36POPC   C36 4871   2.680   3.157   9.860  0.0909 -0.5049  0.1454
   36POPC   H6X 4872   2.596   3.221   9.894 -2.2163 -2.9248 -0.6578
   36POPC   H6Y 4873   2.639   3.061   9.824 -0.9502  0.3989 -1.1644
   36POPC   C37 4874   2.763   3.220   9.753  0.2781 -0.1305  0.6902
   36POPC   H7X 4875   2.869   3.190   9.752 -0.0244 -1.2016 -0.1459
   36POPC   H7Y 4876   2.779   3.330   9.762  0.8853 -0.2619  1.3053
   36POPC   C38 4877   2.701   3.191   9.609  0.0455 -0.5595  0.5939
   36POPC   H8X 4878   2.597   3.221   9.581 -0.1913 -1.7033  0.1500
   36POPC   H8Y 4879   2.709   3.080   9.599 -1.2093 -0.6390  0.2721
   36POPC   C39 4880   2.785   3.259   9.501 -0.1213 -0.3406  0.6437
   36POPC   H9X 4881   2.891   3.227   9.512 -0.1634 -0.2554  1.2908
   36POPC   H9Y 4882   2.781   3.369   9.518  2.6865  0.5689 -3.1034
   36POPC  C310 4883   2.734   3.235   9.367  0.6357  0.6073 -0.1625
   36POPC  H10X 4884   2.639   3.292   9.361  0.0429 -0.4103 -0.7076
   36POPC  H10Y 4885   2.713   3.126   9.358 -1.3791  0.8938  0.5499
   36POPC  C311 4886   2.820   3.268   9.247 -0.2032 -0.0536  0.1105
   36POPC  H11X 4887   2.919   3.218   9.258 -1.3598 -2.1514  1.4329
   36POPC  H11Y 4888   2.837   3.378   9.245 -1.2353  0.1110 -1.1131
   36POPC  C312 4889   2.765   3.228   9.112 -0.2197 -0.0076  0.3795
   36POPC  H12X 4890   2.654   3.229   9.114 -0.3503  0.6956 -2.6259
   36POPC  H12Y 4891   2.796   3.128   9.074 -4.6926 -1.2184 -0.6431
   36POPC  C313 4892   2.810   3.325   9.003 -0.5039 -0.3325 -0.1382
   36POPC  H13X 4893   2.915   3.298   8.981  0.0649 -0.2292  2.2496
   36POPC  H13Y 4894   2.805   3.427   9.047 -0.5322 -1.2639  2.1503
   36POPC  C314 4895   2.728   3.324   8.879 -0.0141 -0.3281 -0.5592
   36POPC  H14X 4896   2.619   3.334   8.895  0.4749  2.7104  2.0320
   36POPC  H14Y 4897   2.748   3.229   8.825 -0.4345 -0.3641 -0.6521
   36POPC  C315 4898   2.776   3.435   8.788  0.0620  0.1574  0.6444
   36POPC  H15X 4899   2.884   3.424   8.764 -0.5670 -1.0526 -1.9930
   36POPC  H15Y 4900   2.744   3.533   8.829  0.7455  0.7740 -0.2477
   36POPC  C316 4901   2.707   3.429   8.648  0.2239  0.7108 -0.1660
   36POPC  H16X 4902   2.727   3.330   8.603 -0.6139 -0.2104  1.3861
   36POPC  H16Y 4903   2.735   3.510   8.578  2.5888  1.5839  1.6609
   36POPC  H16Z 4904   2.598   3.429   8.671  0.5475 -0.7681  1.5586
   37POPC     N 4905   6.542   1.533   5.937  0.1329 -0.1377  0.3211
   37POPC   C12 4906   6.557   1.464   6.065  0.0727  0.4588 -0.3758
   37POPC  H12A 4907   6.624   1.385   6.036 -0.7842 -0.4310  0.0024
   37POPC  H12B 4908   6.467   1.420   6.106 -0.7005  2.4956  0.2430
   37POPC   C13 4909   6.482   1.446   5.842 -0.0625 -0.2429  0.2190
   37POPC  H13A 4910   6.453   1.484   5.745  0.1130 -1.4017 -0.3067
   37POPC  H13B 4911   6.542   1.358   5.826  1.9527  1.2853 -1.0943
   37POPC  H13C 4912   6.392   1.407   5.887 -0.0310  0.5951  1.0261
   37POPC   C14 4913   6.453   1.657   5.951  0.4034 -0.2453  0.0289
   37POPC  H14A 4914   6.489   1.714   6.035 -1.3801 -2.6070  2.5661
   37POPC  H14B 4915   6.465   1.727   5.869  1.5622  0.6463  0.9333
   37POPC  H14C 4916   6.349   1.642   5.975  0.0055  3.0485  0.9514
   37POPC   C15 4917   6.676   1.582   5.894  1.1283  0.0306 -0.1814
   37POPC  H15A 4918   6.718   1.650   5.967  2.6894 -1.9088  0.8503
   37POPC  H15B 4919   6.670   1.634   5.800 -1.7487 -0.3593 -0.3045
   37POPC  H15C 4920   6.751   1.509   5.865 -0.4623 -1.9271  0.3894
   37POPC   C11 4921   6.623   1.544   6.178  0.3424  0.3176  0.9482
   37POPC  H11A 4922   6.722   1.590   6.162  0.0296  1.3807  1.8922
   37POPC  H11B 4923   6.662   1.472   6.253  1.3336  1.1626  1.2574
   37POPC     P 4924   6.409   1.625   6.308 -0.2320 -0.0936 -0.3538
   37POPC   O13 4925   6.341   1.513   6.237 -0.4520  0.1974  0.1987
   37POPC   O14 4926   6.341   1.755   6.312  0.2759 -0.2755 -0.2855
   37POPC   O12 4927   6.542   1.648   6.229  0.0280  0.4520 -1.0883
   37POPC   O11 4928   6.458   1.595   6.452 -0.1087  0.0796 -0.3457
   37POPC    C1 4929   6.545   1.675   6.528  0.3742 -0.9266 -0.4304
   37POPC    HA 4930   6.523   1.783   6.515 -1.2920 -0.8000  2.5425
   37POPC    HB 4931   6.647   1.645   6.497  0.6467 -0.6887  0.2233
   37POPC    C2 4932   6.520   1.637   6.681 -0.0458  0.1897  0.1833
   37POPC    HS 4933   6.573   1.708   6.748  0.9080  0.3605 -0.7447
   37POPC   O21 4934   6.568   1.501   6.703  0.1752 -0.4983  0.5796
   37POPC   C21 4935   6.628   1.481   6.823  0.2756  0.0234  0.0760
   37POPC   O22 4936   6.628   1.561   6.918 -0.0451 -0.1252  0.1968
   37POPC   C22 4937   6.697   1.344   6.815 -0.7760 -0.2314 -0.2347
   37POPC   H2R 4938   6.699   1.317   6.707  2.4095 -0.3573 -0.2199
   37POPC   H2S 4939   6.644   1.272   6.881 -0.6446  1.3315  1.6612
   37POPC    C3 4940   6.364   1.648   6.717 -0.2176  0.3537 -0.1775
   37POPC    HX 4941   6.309   1.577   6.652  0.6074  1.3859 -2.0974
   37POPC    HY 4942   6.324   1.745   6.682 -3.1622 -0.9584 -0.7958
   37POPC   O31 4943   6.334   1.622   6.857  0.0066  0.0401 -0.0509
   37POPC   C31 4944   6.355   1.719   6.945 -0.0432 -0.9985 -0.1013
   37POPC   O32 4945   6.394   1.833   6.918  0.1640 -0.3607 -0.4452
   37POPC   C32 4946   6.329   1.669   7.086  0.0479  0.0203 -0.2401
   37POPC   H2X 4947   6.390   1.576   7.085 -2.1406 -1.4949 -1.3213
   37POPC   H2Y 4948   6.219   1.660   7.092  0.2554 -3.0863  1.0453
   37POPC   C23 4949   6.843   1.357   6.882 -0.0762 -0.2985  0.2474
   37POPC   H3R 4950   6.828   1.404   6.981 -0.8262 -0.5232  0.2453
   37POPC   H3S 4951   6.909   1.422   6.820 -0.9588 -1.6755 -2.2673
   37POPC   C24 4952   6.913   1.222   6.884 -0.3102 -0.0484  0.7476
   37POPC   H4R 4953   7.019   1.235   6.913 -0.4540  2.5577  0.3774
   37POPC   H4S 4954   6.924   1.183   6.781 -2.4193  0.9626  0.0837
   37POPC   C25 4955   6.845   1.136   6.988 -0.2747  0.2430 -0.0451
   37POPC   H5R 4956   6.749   1.095   6.949 -0.0400  0.0094 -0.3766
   37POPC   H5S 4957   6.820   1.205   7.072  1.3961  1.2025 -0.3064
   37POPC   C26 4958   6.932   1.022   7.041 -0.1980  0.8491  0.1152
   37POPC   H6R 4959   7.013   1.065   7.105  1.1266 -2.0813  0.5641
   37POPC   H6S 4960   6.985   0.960   6.965 -0.4669 -0.0876  0.6823
   37POPC   C27 4961   6.853   0.928   7.134 -0.5448 -0.2175  0.1916
   37POPC   H7R 4962   6.868   0.823   7.101 -2.7855 -1.4174  2.5851
   37POPC   H7S 4963   6.744   0.948   7.127 -0.4108  0.1037 -1.2321
   37POPC   C28 4964   6.895   0.924   7.284 -0.2562  0.0895  0.4933
   37POPC   H8R 4965   6.995   0.966   7.309 -0.4090  1.4299 -0.9770
   37POPC   H8S 4966   6.887   0.818   7.318  0.9627 -0.2308 -0.1764
   37POPC   C29 4967   6.796   1.005   7.371  0.0935 -0.7330 -0.3208
   37POPC   H91 4968   6.745   1.086   7.317 -2.5425 -0.7467  1.8924
   37POPC  C210 4969   6.748   0.980   7.500  0.1797 -0.4076  0.3123
   37POPC  H101 4970   6.683   1.046   7.558 -1.0530 -2.1861  1.0434
   37POPC  C211 4971   6.802   0.867   7.580  0.1772 -0.0788  0.0067
   37POPC  H11R 4972   6.872   0.912   7.654 -0.0248  0.9812 -0.4159
   37POPC  H11S 4973   6.869   0.799   7.524  0.9077 -0.1871  0.9877
   37POPC  C212 4974   6.698   0.769   7.642  0.6209 -0.2899 -0.0529
   37POPC  H12R 4975   6.646   0.730   7.552  1.5041  0.8339 -1.0962
   37POPC  H12S 4976   6.631   0.836   7.700 -0.8339 -1.4419 -0.3438
   37POPC  C213 4977   6.752   0.655   7.719 -0.6616  0.1105  0.5770
   37POPC  H13R 4978   6.810   0.597   7.644  1.8710  1.3725  1.4442
   37POPC  H13S 4979   6.673   0.590   7.761 -1.0649  0.8996  1.0617
   37POPC  C214 4980   6.847   0.690   7.839 -0.1764  0.3511 -0.4069
   37POPC  H14R 4981   6.779   0.741   7.911 -0.0568  1.7541 -1.2648
   37POPC  H14S 4982   6.931   0.758   7.814  0.1084  0.6728  1.2755
   37POPC  C215 4983   6.907   0.567   7.916  0.3405 -0.2656  0.6293
   37POPC  H15R 4984   6.992   0.528   7.856  0.1525 -0.9540  0.8019
   37POPC  H15S 4985   6.835   0.487   7.944 -3.2087  1.7935 -1.6962
   37POPC  C216 4986   6.984   0.623   8.038  0.5644  0.3374  0.1113
   37POPC  H16R 4987   6.929   0.698   8.099 -0.6747 -0.3821 -0.0613
   37POPC  H16S 4988   7.076   0.677   8.009  1.2403  2.0955  4.6826
   37POPC  C217 4989   7.023   0.502   8.125  0.3606 -0.0779 -0.4662
   37POPC  H17R 4990   7.095   0.440   8.067 -0.6019  0.6305 -2.4857
   37POPC  H17S 4991   6.930   0.444   8.141 -0.4828  0.5243 -2.8881
   37POPC  C218 4992   7.092   0.538   8.261 -0.2808 -0.3570 -0.5522
   37POPC  H18R 4993   7.131   0.446   8.310  0.7767  0.4412  0.1755
   37POPC  H18S 4994   7.023   0.589   8.332  0.3426 -0.1946 -0.0494
   37POPC  H18T 4995   7.185   0.598   8.248 -0.3528  0.1025  0.8372
   37POPC   C33 4996   6.359   1.771   7.197 -0.6953  0.2631  0.0071
   37POPC   H3X 4997   6.283   1.852   7.187 -1.4526 -0.1864  1.8535
   37POPC   H3Y 4998   6.465   1.804   7.185 -0.0356 -1.3810  1.0347
   37POPC   C34 4999   6.334   1.716   7.336 -0.1582 -1.1265  0.3490
   37POPC   H4X 5000   6.418   1.653   7.372  0.8055  0.2680  0.6501
   37POPC   H4Y 5001   6.232   1.672   7.338 -1.4500  1.4336 -2.0773
   37POPC   C35 5002   6.333   1.831   7.446  0.0241  0.7064 -0.4126
   37POPC   H5X 5003   6.304   1.924   7.393  0.8117  2.1604  1.5936
   37POPC   H5Y 5004   6.437   1.849   7.481 -1.3385  1.7105  3.5811
   37POPC   C36 5005   6.238   1.803   7.562  0.0650  0.1559  0.0483
   37POPC   H6X 5006   6.157   1.735   7.527 -1.9585  3.0445 -1.3034
   37POPC   H6Y 5007   6.187   1.898   7.591  0.3376  0.9851 -2.0227
   37POPC   C37 5008   6.309   1.737   7.686 -0.1033 -0.0677 -0.4448
   37POPC   H7X 5009   6.386   1.807   7.724 -1.2399  0.9484  0.0938
   37POPC   H7Y 5010   6.360   1.646   7.649  0.0137 -0.0685 -0.2800
   37POPC   C38 5011   6.206   1.718   7.806 -0.4705  0.0240  0.4438
   37POPC   H8X 5012   6.120   1.657   7.771 -0.6466  0.4279  0.1607
   37POPC   H8Y 5013   6.172   1.823   7.823  1.2481  0.7005 -0.0939
   37POPC   C39 5014   6.260   1.654   7.931  0.3576 -0.8827  0.1247
   37POPC   H9X 5015   6.341   1.726   7.956 -0.8619  0.0884  1.4398
   37POPC   H9Y 5016   6.295   1.551   7.907 -0.7013 -0.6269 -2.8689
   37POPC  C310 5017   6.163   1.650   8.048 -0.5535  0.5140 -0.3150
   37POPC  H10X 5018   6.095   1.565   8.024  2.7823 -2.5580  0.1202
   37POPC  H10Y 5019   6.115   1.750   8.050  2.6778  2.2064  0.0573
   37POPC  C311 5020   6.223   1.614   8.182 -0.9946 -0.2864 -0.2915
   37POPC  H11X 5021   6.316   1.670   8.205 -0.0347 -0.9477 -2.3611
   37POPC  H11Y 5022   6.240   1.504   8.185  2.2976  0.1119 -0.4740
   37POPC  C312 5023   6.130   1.645   8.299  0.3205  0.1389 -0.5133
   37POPC  H12X 5024   6.139   1.755   8.301 -1.5497  0.3337 -0.9672
   37POPC  H12Y 5025   6.169   1.601   8.393 -1.9049 -1.3774 -0.2176
   37POPC  C313 5026   5.981   1.596   8.278 -0.0317 -0.3344 -0.2008
   37POPC  H13X 5027   6.008   1.506   8.218  1.7546 -0.7801  1.1813
   37POPC  H13Y 5028   5.919   1.668   8.220  0.4808  1.0829  0.9438
   37POPC  C314 5029   5.908   1.556   8.409 -0.0976  0.3016  0.8098
   37POPC  H14X 5030   5.959   1.467   8.451 -1.4436 -0.2359  1.3816
   37POPC  H14Y 5031   5.803   1.522   8.396  0.0031  0.3765 -0.3053
   37POPC  C315 5032   5.885   1.677   8.510  0.4126  0.2598  0.5330
   37POPC  H15X 5033   5.815   1.744   8.455 -0.5713 -2.5997 -1.9767
   37POPC  H15Y 5034   5.984   1.717   8.537  1.2221 -2.1793  1.4272
   37POPC  C316 5035   5.810   1.623   8.637 -0.0302  0.5540 -0.8826
   37POPC  H16X 5036   5.762   1.704   8.696 -1.5381 -0.6703 -0.3632
   37POPC  H16Y 5037   5.886   1.567   8.695 -2.8133 -1.8030  0.7683
   37POPC  H16Z 5038   5.730   1.548   8.618  1.6333 -1.6064  0.1574
   38POPC     N 5039   2.952   3.995   6.050  0.6127  0.0630  0.4438
   38POPC   C12 5040   2.805   4.031   6.053  0.4857  0.4005  0.0590
   38POPC  H12A 5041   2.756   3.952   6.109  1.1420 -0.7657 -0.9565
   38POPC  H12B 5042   2.757   4.021   5.957 -3.9647 -0.4997  2.0683
   38POPC   C13 5043   2.977   3.856   5.990  0.5395  0.5681  0.3698
   38POPC  H13A 5044   2.924   3.833   5.899  0.2143 -3.1969  1.3763
   38POPC  H13B 5045   3.081   3.830   5.973  0.2438 -0.1713 -0.3482
   38POPC  H13C 5046   2.934   3.783   6.057 -1.4234  1.0782 -0.2678
   38POPC   C14 5047   3.031   4.107   5.986 -0.3674 -0.5768  0.4476
   38POPC  H14A 5048   3.003   4.202   6.028  1.6718  1.2334 -1.9995
   38POPC  H14B 5049   3.138   4.092   5.986  0.2232  2.7105  1.8232
   38POPC  H14C 5050   3.011   4.123   5.881 -0.1945 -0.1656  0.4757
   38POPC   C15 5051   3.005   3.994   6.189  0.1199  0.8444  0.6122
   38POPC  H15A 5052   2.978   4.087   6.237  0.6344  0.4310  1.7281
   38POPC  H15B 5053   3.113   3.983   6.192  0.0376  0.2687  2.1021
   38POPC  H15C 5054   2.964   3.911   6.243  1.2727 -0.2409 -0.1273
   38POPC   C11 5055   2.750   4.167   6.101  0.2233  0.4142  0.7602
   38POPC  H11A 5056   2.639   4.168   6.097  0.2063 -1.9564 -0.9630
   38POPC  H11B 5057   2.786   4.246   6.030  0.4053 -0.0866  0.2867
   38POPC     P 5058   2.865   4.330   6.279  0.0364 -0.3264 -0.1694
   38POPC   O13 5059   2.783   4.446   6.240 -0.0232  0.5408  0.6790
   38POPC   O14 5060   2.996   4.327   6.215 -0.0054  0.1974  0.4973
   38POPC   O12 5061   2.793   4.196   6.235 -0.0571  0.7292 -0.3253
   38POPC   O11 5062   2.889   4.332   6.435 -0.0797  0.2154  0.0045
   38POPC    C1 5063   2.971   4.222   6.486 -0.4032 -0.2661 -0.5200
   38POPC    HA 5064   3.074   4.231   6.445  0.3458 -1.3865  0.9850
   38POPC    HB 5065   2.931   4.125   6.449 -1.1170  0.3022 -1.2509
   38POPC    C2 5066   2.975   4.227   6.639  0.2603  0.5282  0.0425
   38POPC    HS 5067   2.981   4.332   6.677  2.0324  0.8768 -1.0518
   38POPC   O21 5068   3.091   4.155   6.684  0.3889  0.3297 -0.0116
   38POPC   C21 5069   3.200   4.228   6.713  0.4476  0.2362  0.1767
   38POPC   O22 5070   3.203   4.349   6.693 -0.6876  0.6315  0.2008
   38POPC   C22 5071   3.300   4.134   6.782  0.2143 -0.5297  0.6695
   38POPC   H2R 5072   3.362   4.074   6.712  0.7225 -0.5834  1.1513
   38POPC   H2S 5073   3.234   4.064   6.837 -3.6932  0.9897 -1.6728
   38POPC    C3 5074   2.845   4.166   6.698 -0.0295  0.5366  0.0976
   38POPC    HX 5075   2.836   4.058   6.673  2.1842 -0.1015  1.7080
   38POPC    HY 5076   2.764   4.224   6.648 -0.6186 -1.0388 -0.8402
   38POPC   O31 5077   2.840   4.198   6.833  0.8175  0.0389 -0.3604
   38POPC   C31 5078   2.906   4.107   6.905  0.3694  0.1486 -0.6960
   38POPC   O32 5079   2.941   3.997   6.877 -0.0903 -0.2195 -0.2809
   38POPC   C32 5080   2.910   4.160   7.047 -0.3605  0.0604  0.5469
   38POPC   H2X 5081   2.805   4.169   7.081 -0.6852  0.3520 -0.5070
   38POPC   H2Y 5082   2.946   4.265   7.037 -2.6546  0.7497 -1.6270
   38POPC   C23 5083   3.392   4.215   6.880 -1.1812 -0.2352 -0.7860
   38POPC   H3R 5084   3.325   4.266   6.952 -1.5410 -3.2382  1.1968
   38POPC   H3S 5085   3.442   4.299   6.827 -1.3072 -1.1151 -2.3573
   38POPC   C24 5086   3.492   4.126   6.952 -0.0388 -0.4070  0.0558
   38POPC   H4R 5087   3.557   4.189   7.016 -0.9529  0.7816 -0.1636
   38POPC   H4S 5088   3.561   4.066   6.888 -0.6076 -0.5583 -0.4295
   38POPC   C25 5089   3.427   4.027   7.045  0.0672 -0.5656 -0.1607
   38POPC   H5R 5090   3.358   3.964   6.985 -1.3570 -0.7052  1.5700
   38POPC   H5S 5091   3.373   4.084   7.123  1.6221  0.2784  0.3497
   38POPC   C26 5092   3.517   3.937   7.127  0.0576  0.3062 -0.7381
   38POPC   H6R 5093   3.592   3.889   7.061  1.4463  1.5065 -0.0952
   38POPC   H6S 5094   3.459   3.862   7.184  1.0765  1.2003  1.6324
   38POPC   C27 5095   3.615   4.014   7.221  0.7282 -0.0659 -0.3947
   38POPC   H7R 5096   3.677   4.074   7.151  0.0598 -0.0726 -0.9924
   38POPC   H7S 5097   3.683   3.946   7.278  2.1219  1.4856 -0.1311
   38POPC   C28 5098   3.540   4.105   7.326 -0.2559  0.1874 -0.2418
   38POPC   H8R 5099   3.482   4.040   7.395 -0.9879  1.2886  0.1929
   38POPC   H8S 5100   3.475   4.182   7.279  1.3268  0.8893 -1.3815
   38POPC   C29 5101   3.638   4.172   7.415  0.4610  0.0827 -0.5749
   38POPC   H91 5102   3.699   4.251   7.368 -2.4802  0.9563 -3.3106
   38POPC  C210 5103   3.658   4.146   7.546  0.7227 -0.0992 -0.4627
   38POPC  H101 5104   3.736   4.202   7.600 -2.0808  3.1153  0.5820
   38POPC  C211 5105   3.590   4.043   7.627  0.8087 -0.3069 -1.0066
   38POPC  H11R 5106   3.573   3.954   7.562 -2.7371 -2.2865  2.2253
   38POPC  H11S 5107   3.493   4.077   7.668  1.3309  0.7319 -0.5891
   38POPC  C212 5108   3.681   4.000   7.743 -0.2734  0.3230 -0.1553
   38POPC  H12R 5109   3.787   3.990   7.711 -0.0142  1.2577  0.3867
   38POPC  H12S 5110   3.640   3.906   7.786  0.7389 -0.2397 -0.3908
   38POPC  C213 5111   3.693   4.097   7.862 -0.0120  0.8121 -0.0262
   38POPC  H13R 5112   3.595   4.148   7.878 -0.0726  1.0133 -0.9929
   38POPC  H13S 5113   3.765   4.179   7.839  1.6381 -0.4861  0.3765
   38POPC  C214 5114   3.740   4.037   7.991  0.4686  0.1482 -0.3330
   38POPC  H14R 5115   3.672   3.957   8.028  0.3214  0.6284  0.4644
   38POPC  H14S 5116   3.735   4.115   8.070  0.5023  0.7366 -0.9031
   38POPC  C215 5117   3.882   3.966   7.979  0.9448 -0.9036  0.5554
   38POPC  H15R 5118   3.944   4.041   7.925 -1.7770  3.0079  2.3345
   38POPC  H15S 5119   3.865   3.872   7.923 -1.9829 -1.4471  2.1767
   38POPC  C216 5120   3.949   3.924   8.110  0.5792  0.3640 -0.7065
   38POPC  H16R 5121   3.862   3.880   8.163  0.0613  3.1827  0.9940
   38POPC  H16S 5122   3.992   4.011   8.164 -0.7943 -0.1735  1.3829
   38POPC  C217 5123   4.066   3.824   8.091 -0.1948 -0.9921  0.7955
   38POPC  H17R 5124   4.128   3.865   8.009 -0.5717 -1.0185  0.4949
   38POPC  H17S 5125   4.023   3.729   8.053  1.3465 -0.8617 -1.4963
   38POPC  C218 5126   4.152   3.795   8.207 -0.1693  0.3186  0.8342
   38POPC  H18R 5127   4.089   3.784   8.298  0.9098 -0.3600  1.5327
   38POPC  H18S 5128   4.225   3.879   8.218 -0.6641  0.9741 -0.7138
   38POPC  H18T 5129   4.209   3.699   8.204  2.3735  1.7467 -0.9867
   38POPC   C33 5130   2.986   4.071   7.145  0.0071  0.1228 -0.4570
   38POPC   H3X 5131   3.085   4.057   7.097 -0.4232  0.6824 -1.5368
   38POPC   H3Y 5132   2.940   3.970   7.155 -0.4428  0.3127 -0.5782
   38POPC   C34 5133   2.998   4.135   7.284  0.1406  0.2985 -0.7604
   38POPC   H4X 5134   2.903   4.120   7.340 -0.3672  1.4356 -1.2904
   38POPC   H4Y 5135   3.033   4.241   7.280 -0.5398  0.5642  0.0268
   38POPC   C35 5136   3.109   4.065   7.362 -0.3437  0.0484  0.7190
   38POPC   H5X 5137   3.207   4.062   7.311 -1.8159  1.0055 -2.4472
   38POPC   H5Y 5138   3.071   3.961   7.375 -2.0881  0.0805 -2.7683
   38POPC   C36 5139   3.132   4.124   7.498 -0.5088 -0.1880 -0.0153
   38POPC   H6X 5140   3.134   4.232   7.474 -1.9254  0.3203  1.8236
   38POPC   H6Y 5141   3.226   4.087   7.544 -0.6491 -0.5481 -0.0112
   38POPC   C37 5142   3.022   4.083   7.603  0.4371 -0.6016 -0.1834
   38POPC   H7X 5143   3.027   3.977   7.635  1.3528 -0.6767 -0.5403
   38POPC   H7Y 5144   2.929   4.073   7.542  0.6471  0.7200 -0.7650
   38POPC   C38 5145   3.003   4.176   7.713  0.0486  0.0753 -0.0465
   38POPC   H8X 5146   2.896   4.165   7.743  0.0203 -0.3826 -0.3049
   38POPC   H8Y 5147   3.010   4.283   7.687  0.6796  0.5447  1.9041
   38POPC   C39 5148   3.100   4.152   7.831 -0.2206 -0.5542  0.4473
   38POPC   H9X 5149   3.208   4.166   7.808 -0.7449  1.6172 -0.9721
   38POPC   H9Y 5150   3.093   4.043   7.851 -3.1422 -0.8789 -1.6935
   38POPC  C310 5151   3.054   4.223   7.954  0.3003 -0.4185  0.5708
   38POPC  H10X 5152   2.952   4.189   7.982  0.0509 -3.2735 -3.1053
   38POPC  H10Y 5153   3.035   4.330   7.930 -0.3204 -1.3063 -3.6752
   38POPC  C311 5154   3.138   4.206   8.078 -0.2333  0.1451  0.2325
   38POPC  H11X 5155   3.118   4.102   8.111 -1.9726 -0.3898 -2.2030
   38POPC  H11Y 5156   3.098   4.274   8.156  0.0657  0.8452 -0.2093
   38POPC  C312 5157   3.291   4.226   8.058  0.2437  0.0032 -1.0802
   38POPC  H12X 5158   3.293   4.306   7.982  0.4282 -0.7400 -1.8741
   38POPC  H12Y 5159   3.337   4.134   8.015 -0.3365  0.7461 -3.4496
   38POPC  C313 5160   3.355   4.275   8.196  0.5723  0.4725 -0.0717
   38POPC  H13X 5161   3.292   4.236   8.278 -0.3073 -1.1810 -1.4828
   38POPC  H13Y 5162   3.345   4.386   8.201 -1.5310  0.3319 -0.2526
   38POPC  C314 5163   3.500   4.231   8.201 -0.8306 -0.0850  0.3569
   38POPC  H14X 5164   3.570   4.292   8.140 -1.9555  2.0977  1.1685
   38POPC  H14Y 5165   3.496   4.125   8.166  2.6965  0.3989 -2.0849
   38POPC  C315 5166   3.569   4.227   8.336  0.2170  0.0007 -0.2825
   38POPC  H15X 5167   3.676   4.197   8.329  0.0036 -0.7248 -0.4350
   38POPC  H15Y 5168   3.527   4.157   8.411 -0.6507 -0.5554 -1.2709
   38POPC  C316 5169   3.572   4.362   8.418  0.3298 -0.5251 -0.4271
   38POPC  H16X 5170   3.601   4.342   8.523  0.9711 -0.1178 -0.5210
   38POPC  H16Y 5171   3.476   4.415   8.397 -0.4006 -0.5125  2.5374
   38POPC  H16Z 5172   3.649   4.430   8.377  0.5384 -0.9893 -0.8156
   39POPC     N 5173   0.712   4.257   6.184  0.2750  0.1159  0.1103
   39POPC   C12 5174   0.729   4.171   6.062  0.3812 -0.0927 -0.1595
   39POPC  H12A 5175   0.796   4.210   5.987  2.5749 -2.5286  0.3753
   39POPC  H12B 5176   0.634   4.175   6.011 -0.6763  3.0035  1.7805
   39POPC   C13 5177   0.686   4.401   6.132  0.4311 -0.2392 -0.4373
   39POPC  H13A 5178   0.588   4.424   6.092  0.9470  1.9142 -0.5860
   39POPC  H13B 5179   0.696   4.469   6.215 -0.3795  1.5269 -1.7160
   39POPC  H13C 5180   0.755   4.444   6.062 -1.0377  2.9040 -0.1145
   39POPC   C14 5181   0.592   4.229   6.263 -0.0929  0.6375 -0.5898
   39POPC  H14A 5182   0.572   4.296   6.345 -0.9763 -0.4206  0.0790
   39POPC  H14B 5183   0.505   4.214   6.200  0.5266  0.7178 -1.4933
   39POPC  H14C 5184   0.610   4.131   6.304  0.0984  0.9581  0.0960
   39POPC   C15 5185   0.840   4.273   6.260  0.3157  0.3671 -0.1052
   39POPC  H15A 5186   0.912   4.334   6.208  0.4295  0.0028 -0.3859
   39POPC  H15B 5187   0.883   4.176   6.280  0.7078  0.2630 -1.3678
   39POPC  H15C 5188   0.811   4.322   6.352 -0.8452  0.0376 -0.2832
   39POPC   C11 5189   0.769   4.024   6.077  0.2333 -0.0278 -0.4088
   39POPC  H11A 5190   0.861   4.031   6.139 -0.6397 -1.4624  1.1596
   39POPC  H11B 5191   0.781   3.980   5.976  0.0462  0.8214 -0.8093
   39POPC     P 5192   0.675   3.840   6.232 -0.2173 -0.3515 -0.1077
   39POPC   O13 5193   0.729   3.736   6.147  0.3200 -0.1752 -0.5345
   39POPC   O14 5194   0.541   3.814   6.286  0.1149 -0.2513 -0.5071
   39POPC   O12 5195   0.659   3.963   6.139 -0.1500 -0.5095  0.0011
   39POPC   O11 5196   0.783   3.883   6.342  0.2000  0.1609 -0.5613
   39POPC    C1 5197   0.743   3.945   6.465 -0.5425 -0.2642  0.0073
   39POPC    HA 5198   0.647   3.999   6.451 -0.7164 -1.0595 -2.2969
   39POPC    HB 5199   0.820   4.020   6.495 -0.0978  0.2580 -2.2821
   39POPC    C2 5200   0.728   3.834   6.585 -0.4803 -0.3711 -0.1328
   39POPC    HS 5201   0.786   3.873   6.671  0.4621  1.1234 -1.3783
   39POPC   O21 5202   0.789   3.713   6.544 -0.3905 -0.2754  0.0586
   39POPC   C21 5203   0.928   3.714   6.537 -0.2877 -0.9210 -0.0420
   39POPC   O22 5204   0.995   3.800   6.595  0.1638  0.1835  0.0387
   39POPC   C22 5205   0.984   3.591   6.464 -0.1113 -0.1403 -0.4702
   39POPC   H2R 5206   1.091   3.578   6.493 -0.7434 -1.6808  1.4134
   39POPC   H2S 5207   0.972   3.611   6.356  1.8436 -0.5961 -0.8107
   39POPC    C3 5208   0.581   3.811   6.632  0.0180 -0.5352  0.5217
   39POPC    HX 5209   0.526   3.773   6.543  0.1585 -2.4070  1.1770
   39POPC    HY 5210   0.525   3.903   6.660 -0.8811 -0.7400 -0.5469
   39POPC   O31 5211   0.579   3.712   6.736 -0.0047 -0.1661  0.1400
   39POPC   C31 5212   0.616   3.746   6.862  0.0690 -1.0714  0.3698
   39POPC   O32 5213   0.638   3.864   6.896 -0.1568 -0.6371  0.6110
   39POPC   C32 5214   0.587   3.626   6.951 -0.7391 -0.2544  0.2651
   39POPC   H2X 5215   0.480   3.599   6.939 -0.9246  1.0602 -1.3670
   39POPC   H2Y 5216   0.653   3.544   6.915 -1.4803 -2.3504  3.3149
   39POPC   C23 5217   0.913   3.459   6.524  0.0861 -0.8570 -0.1030
   39POPC   H3R 5218   0.939   3.371   6.461  1.2325 -1.1844  0.7959
   39POPC   H3S 5219   0.806   3.481   6.508  0.0148 -2.1040 -1.4885
   39POPC   C24 5220   0.940   3.437   6.679  0.2544  0.4277  1.0096
   39POPC   H4R 5221   0.907   3.522   6.741  0.0369 -0.5838  2.3282
   39POPC   H4S 5222   1.051   3.432   6.688  0.3491  1.8125  0.7793
   39POPC   C25 5223   0.874   3.307   6.727  0.1370  0.0088 -0.3654
   39POPC   H5R 5224   0.927   3.217   6.688  1.4105  0.5515  0.0491
   39POPC   H5S 5225   0.767   3.306   6.698 -0.3200  3.2582  0.8399
   39POPC   C26 5226   0.853   3.297   6.876 -0.0280 -0.1659  0.6414
   39POPC   H6R 5227   0.824   3.397   6.914  3.9566  0.6691  2.0327
   39POPC   H6S 5228   0.952   3.280   6.924  1.0724  1.6310 -0.8602
   39POPC   C27 5229   0.752   3.201   6.932  0.3844  0.7363  0.5363
   39POPC   H7R 5230   0.779   3.099   6.896 -2.1541  0.0437  0.3985
   39POPC   H7S 5231   0.653   3.220   6.886  0.5054  0.6350  0.2304
   39POPC   C28 5232   0.745   3.188   7.085  0.4574 -0.0074  0.2061
   39POPC   H8R 5233   0.838   3.142   7.125  0.4324  0.7371  1.1285
   39POPC   H8S 5234   0.657   3.121   7.100  0.5326 -0.4178 -1.0855
   39POPC   C29 5235   0.703   3.315   7.150 -0.1749  0.6385 -0.7232
   39POPC   H91 5236   0.633   3.382   7.098 -1.0994 -0.7556 -1.3388
   39POPC  C210 5237   0.725   3.345   7.283 -0.2187 -0.2715 -0.5954
   39POPC  H101 5238   0.677   3.434   7.327  1.4016  0.8281 -0.9679
   39POPC  C211 5239   0.797   3.262   7.376 -0.3161 -0.0850  0.9919
   39POPC  H11R 5240   0.878   3.202   7.328  2.9564  1.8534  3.6214
   39POPC  H11S 5241   0.727   3.183   7.410 -0.1466 -0.6542  0.0465
   39POPC  C212 5242   0.850   3.336   7.509 -0.0362  0.6990 -0.9024
   39POPC  H12R 5243   0.827   3.252   7.578 -2.6632 -0.6028 -3.1813
   39POPC  H12S 5244   0.797   3.432   7.529  1.1137  1.3770 -0.9909
   39POPC  C213 5245   1.001   3.381   7.488 -0.3803  0.1657  0.4428
   39POPC  H13R 5246   1.004   3.451   7.402 -1.3233  2.4309  2.1495
   39POPC  H13S 5247   1.054   3.287   7.461  0.8483  0.8164  0.5362
   39POPC  C214 5248   1.076   3.432   7.610  0.2689  0.0143 -0.6849
   39POPC  H14R 5249   1.066   3.360   7.694 -0.0416 -0.1252 -0.8385
   39POPC  H14S 5250   1.026   3.518   7.657 -2.9954 -2.8667  1.6344
   39POPC  C215 5251   1.229   3.460   7.581  0.4320 -0.1185 -0.0505
   39POPC  H15R 5252   1.226   3.533   7.497  1.4506 -0.1863 -0.1597
   39POPC  H15S 5253   1.277   3.375   7.528 -0.2977 -0.5373 -0.0487
   39POPC  C216 5254   1.309   3.507   7.705  0.5410  0.3575 -0.0118
   39POPC  H16R 5255   1.301   3.426   7.781  3.4632 -1.5952 -1.5498
   39POPC  H16S 5256   1.269   3.608   7.726  2.2899  1.2828 -0.9010
   39POPC  C217 5257   1.457   3.510   7.662  0.2943 -0.2374  0.4663
   39POPC  H17R 5258   1.482   3.402   7.647  0.8308 -0.3771  2.1518
   39POPC  H17S 5259   1.527   3.523   7.747  1.2928  0.3882 -0.4326
   39POPC  C218 5260   1.492   3.605   7.545  0.5573  0.4298 -0.0830
   39POPC  H18R 5261   1.443   3.703   7.558  3.2621  1.7342  1.0812
   39POPC  H18S 5262   1.467   3.557   7.447  2.0471 -1.8794  0.5787
   39POPC  H18T 5263   1.599   3.629   7.562  0.0093  1.6927  1.9302
   39POPC   C33 5264   0.607   3.654   7.100 -0.0594 -0.2067  0.4295
   39POPC   H3X 5265   0.705   3.698   7.127 -0.0632  0.2737 -0.2988
   39POPC   H3Y 5266   0.604   3.563   7.163  0.0613 -0.8217 -0.4393
   39POPC   C34 5267   0.487   3.741   7.150  0.3635 -0.2890  0.0850
   39POPC   H4X 5268   0.389   3.692   7.129 -1.3748  2.6320  0.8191
   39POPC   H4Y 5269   0.491   3.837   7.095  0.2982  0.0010  0.5871
   39POPC   C35 5270   0.491   3.787   7.300 -0.7402  0.7990 -0.4166
   39POPC   H5X 5271   0.400   3.849   7.318 -0.1755  1.1039  1.6629
   39POPC   H5Y 5272   0.587   3.835   7.326  0.1733  0.0441 -2.2283
   39POPC   C36 5273   0.484   3.669   7.399  0.5524  0.1142  0.2360
   39POPC   H6X 5274   0.570   3.601   7.378  0.1165 -0.2824 -0.3019
   39POPC   H6Y 5275   0.393   3.605   7.402 -1.2873  2.6388  1.5832
   39POPC   C37 5276   0.503   3.712   7.549  0.1598 -0.2509  0.2837
   39POPC   H7X 5277   0.420   3.780   7.577  1.0249  0.7114  0.5731
   39POPC   H7Y 5278   0.601   3.760   7.572  0.7225 -1.1652 -0.1560
   39POPC   C38 5279   0.507   3.590   7.644 -0.1483  0.4120  0.4335
   39POPC   H8X 5280   0.564   3.507   7.597 -2.7474 -1.3722  0.1971
   39POPC   H8Y 5281   0.402   3.560   7.667  0.1884 -0.3984  0.9686
   39POPC   C39 5282   0.562   3.626   7.784  0.3014 -0.3988  1.1691
   39POPC   H9X 5283   0.673   3.637   7.782  0.3798 -0.9506 -1.9168
   39POPC   H9Y 5284   0.543   3.546   7.858 -0.3099  0.0774  1.5426
   39POPC  C310 5285   0.499   3.756   7.837 -0.1305 -0.1769  0.3368
   39POPC  H10X 5286   0.388   3.748   7.840 -0.6277  0.4722 -5.5405
   39POPC  H10Y 5287   0.516   3.841   7.769 -0.1375 -0.5571 -0.1449
   39POPC  C311 5288   0.570   3.787   7.972 -0.5532  0.4101  0.1554
   39POPC  H11X 5289   0.679   3.792   7.950 -0.4959 -2.2695 -0.5198
   39POPC  H11Y 5290   0.559   3.699   8.040  1.4124 -0.7508 -0.9074
   39POPC  C312 5291   0.518   3.919   8.031 -0.3631 -0.3448 -0.4608
   39POPC  H12X 5292   0.407   3.925   8.031 -0.3158  3.7329 -0.0277
   39POPC  H12Y 5293   0.556   4.013   7.984  2.0016 -1.3266 -0.6609
   39POPC  C313 5294   0.570   3.931   8.174  0.2793 -0.5539 -0.2486
   39POPC  H13X 5295   0.555   3.835   8.228 -3.1497 -0.1185 -0.2239
   39POPC  H13Y 5296   0.511   4.002   8.236 -3.3474 -2.4915 -1.1728
   39POPC  C314 5297   0.724   3.982   8.185  0.5065 -0.3245 -0.1484
   39POPC  H14X 5298   0.738   4.072   8.122  0.2408 -0.0087  0.2409
   39POPC  H14Y 5299   0.792   3.909   8.136 -0.6283  0.2069 -2.6872
   39POPC  C315 5300   0.780   4.001   8.333 -1.1051  0.0868  0.8220
   39POPC  H15X 5301   0.760   3.906   8.387  1.4204 -0.1962  1.4093
   39POPC  H15Y 5302   0.718   4.082   8.378  0.9035  2.3105 -0.1844
   39POPC  C316 5303   0.934   4.018   8.346  1.4137 -0.1985 -0.0028
   39POPC  H16X 5304   0.970   4.022   8.451  0.4925 -2.1443  0.4335
   39POPC  H16Y 5305   0.967   4.112   8.296  0.8742 -0.8470 -1.6625
   39POPC  H16Z 5306   0.986   3.936   8.292  0.6329 -1.2861  0.8484
   40POPC     N 5307   5.028   5.976   5.772 -0.0570  0.4712 -0.2760
   40POPC   C12 5308   5.017   5.871   5.873  0.2546 -0.3840  0.6229
   40POPC  H12A 5309   5.102   5.805   5.855  0.2601 -0.5515  1.2514
   40POPC  H12B 5310   4.927   5.812   5.862 -1.8460  2.6707  0.3028
   40POPC   C13 5311   5.026   5.921   5.633 -0.2410 -0.2444  0.2797
   40POPC  H13A 5312   4.978   5.825   5.619 -1.7749  0.5292  0.0200
   40POPC  H13B 5313   4.990   5.997   5.565 -3.1288 -0.0360  1.8632
   40POPC  H13C 5314   5.124   5.894   5.598  0.7494  1.2838  1.6919
   40POPC   C14 5315   4.919   6.068   5.784 -0.0644 -0.1680  0.1012
   40POPC  H14A 5316   4.911   6.131   5.697 -0.4391  2.3158  1.8196
   40POPC  H14B 5317   4.827   6.013   5.797 -0.1964 -0.0297 -0.2582
   40POPC  H14C 5318   4.922   6.122   5.878  1.7063 -1.3655  0.7743
   40POPC   C15 5319   5.150   6.057   5.783  0.4209  0.4614  0.1266
   40POPC  H15A 5320   5.143   6.109   5.878  0.5954 -0.9537  0.9573
   40POPC  H15B 5321   5.154   6.132   5.705  0.4489  2.3097  1.8169
   40POPC  H15C 5322   5.234   5.990   5.784 -0.0701 -0.1647  0.9222
   40POPC   C11 5323   5.021   5.911   6.022 -0.1630 -0.3636 -0.1031
   40POPC  H11A 5324   5.110   5.975   6.043  2.0130 -2.7690 -1.4267
   40POPC  H11B 5325   5.038   5.812   6.069  0.1910  0.0358  0.6444
   40POPC     P 5326   4.764   5.889   6.069 -0.0963  0.2355  0.0272
   40POPC   O13 5327   4.784   5.768   5.988  0.5551 -0.4540  0.4052
   40POPC   O14 5328   4.650   5.973   6.032 -0.2624  0.0490 -0.3733
   40POPC   O12 5329   4.899   5.969   6.066  0.2398  0.0359 -0.1911
   40POPC   O11 5330   4.742   5.853   6.226 -0.1681 -0.2077  0.8893
   40POPC    C1 5331   4.853   5.873   6.316  0.0506 -0.5542  0.3874
   40POPC    HA 5332   4.925   5.955   6.293  0.5272 -0.8254  0.8727
   40POPC    HB 5333   4.917   5.783   6.311 -0.7111 -1.0650 -0.4210
   40POPC    C2 5334   4.811   5.914   6.460  0.2761  0.5912  0.0929
   40POPC    HS 5335   4.893   5.917   6.535 -0.8302  0.8064  1.3264
   40POPC   O21 5336   4.706   5.836   6.509  0.1875  0.8387 -0.2503
   40POPC   C21 5337   4.749   5.723   6.567  0.6653 -0.0574 -0.0722
   40POPC   O22 5338   4.865   5.682   6.578  0.0703  0.4406 -0.5183
   40POPC   C22 5339   4.622   5.643   6.600  0.1164 -0.1258  0.4983
   40POPC   H2R 5340   4.635   5.553   6.537  2.1646  1.0342 -0.8614
   40POPC   H2S 5341   4.533   5.704   6.575  0.6727  0.2895 -0.5307
   40POPC    C3 5342   4.739   6.053   6.463 -0.2342  0.4799 -0.0068
   40POPC    HX 5343   4.646   6.036   6.405 -0.3723 -1.8631  0.8071
   40POPC    HY 5344   4.812   6.119   6.412  0.1914 -0.8555 -1.1965
   40POPC   O31 5345   4.733   6.098   6.602 -0.4045 -0.3048  0.6094
   40POPC   C31 5346   4.613   6.073   6.666 -0.4461 -0.3189  0.3535
   40POPC   O32 5347   4.514   6.022   6.612  0.0713 -0.0741 -0.3481
   40POPC   C32 5348   4.623   6.105   6.806 -0.2161 -0.3846 -0.3468
   40POPC   H2X 5349   4.684   6.197   6.823 -1.0877 -0.3419  3.2322
   40POPC   H2Y 5350   4.662   6.015   6.858 -2.7812 -1.2807  0.1580
   40POPC   C23 5351   4.627   5.588   6.741 -0.2205  0.3762 -0.1444
   40POPC   H3R 5352   4.730   5.557   6.771 -0.1472  1.0404  0.3126
   40POPC   H3S 5353   4.562   5.498   6.734 -0.5770  0.6987 -1.0424
   40POPC   C24 5354   4.572   5.681   6.846  0.0149  0.3910 -0.5725
   40POPC   H4R 5355   4.474   5.719   6.812 -0.0228  1.4501  0.6505
   40POPC   H4S 5356   4.639   5.769   6.846 -0.6635  1.0478  2.7947
   40POPC   C25 5357   4.553   5.610   6.983  0.0270  0.5339 -0.2068
   40POPC   H5R 5358   4.650   5.560   7.003 -0.2050  0.4694  0.7745
   40POPC   H5S 5359   4.468   5.541   6.965 -1.5396  2.5067 -0.6934
   40POPC   C26 5360   4.523   5.705   7.090 -0.5270 -0.0292 -0.4761
   40POPC   H6R 5361   4.454   5.785   7.054 -0.7005  0.3751  0.7193
   40POPC   H6S 5362   4.612   5.761   7.125 -0.3296  1.0350 -2.4792
   40POPC   C27 5363   4.464   5.622   7.204  0.0235  0.1705 -0.0919
   40POPC   H7R 5364   4.546   5.552   7.232 -2.1731 -1.2114  3.7233
   40POPC   H7S 5365   4.385   5.556   7.164  0.7370  0.5972 -2.3386
   40POPC   C28 5366   4.443   5.690   7.335  0.2435 -0.7282  0.1455
   40POPC   H8R 5367   4.548   5.718   7.360  0.3226  0.7303 -1.6103
   40POPC   H8S 5368   4.407   5.613   7.406 -2.5144 -0.8792 -1.2945
   40POPC   C29 5369   4.346   5.805   7.336 -0.5510  0.5363  0.2260
   40POPC   H91 5370   4.366   5.872   7.251 -0.2849  0.3449  0.1343
   40POPC  C210 5371   4.247   5.839   7.425  0.0799 -0.2937  0.1007
   40POPC  H101 5372   4.179   5.923   7.407 -0.2263 -0.5089  0.2383
   40POPC  C211 5373   4.215   5.762   7.549  0.5848  0.0727 -0.4144
   40POPC  H11R 5374   4.300   5.700   7.585 -0.8171 -0.4383  2.3770
   40POPC  H11S 5375   4.129   5.693   7.532 -0.9183  2.3083 -2.5246
   40POPC  C212 5376   4.200   5.845   7.675  0.0533  0.4429  0.1735
   40POPC  H12R 5377   4.120   5.922   7.669 -0.3319  0.0283 -0.1248
   40POPC  H12S 5378   4.298   5.890   7.699  0.8064 -0.3043 -1.3357
   40POPC  C213 5379   4.174   5.755   7.796 -0.0865 -0.0507  0.2115
   40POPC  H13R 5380   4.276   5.723   7.826 -1.1109 -3.8737  0.1767
   40POPC  H13S 5381   4.124   5.665   7.752 -0.3353  0.2642 -0.1620
   40POPC  C214 5382   4.095   5.808   7.913  0.3209 -0.2154 -0.2660
   40POPC  H14R 5383   4.119   5.917   7.917  1.9854 -0.5987  1.3536
   40POPC  H14S 5384   4.134   5.763   8.007  2.7462 -0.8571 -1.5146
   40POPC  C215 5385   3.948   5.796   7.885 -0.5685  0.4783  0.6579
   40POPC  H15R 5386   3.926   5.696   7.842 -0.0460  0.4973  0.3397
   40POPC  H15S 5387   3.904   5.870   7.815  3.9814  2.2092 -0.7159
   40POPC  C216 5388   3.862   5.799   8.014  0.5641 -0.2294  0.1429
   40POPC  H16R 5389   3.932   5.775   8.097  0.7055 -0.5491 -0.0663
   40POPC  H16S 5390   3.774   5.732   8.008 -0.3422  1.0119 -1.4245
   40POPC  C217 5391   3.830   5.943   8.053  0.6243 -0.2846  0.1298
   40POPC  H17R 5392   3.764   5.994   7.980  0.1917 -0.9722  0.0263
   40POPC  H17S 5393   3.924   6.001   8.050  0.3147  0.1866 -0.5864
   40POPC  C218 5394   3.780   5.967   8.196  0.3647  0.9900  0.3749
   40POPC  H18R 5395   3.670   5.956   8.204  0.6236 -1.2109  1.8474
   40POPC  H18S 5396   3.807   6.071   8.224 -1.0794  0.5190  4.0516
   40POPC  H18T 5397   3.835   5.902   8.267 -0.7049 -0.7872 -0.3418
   40POPC   C33 5398   4.495   6.137   6.879 -0.0071  0.0443  0.3124
   40POPC   H3X 5399   4.422   6.054   6.866  0.4149  0.0444 -3.2163
   40POPC   H3Y 5400   4.438   6.226   6.843 -0.2420  1.0609  2.9854
   40POPC   C34 5401   4.525   6.155   7.030 -0.3604  0.5960 -1.2969
   40POPC   H4X 5402   4.609   6.227   7.042 -0.0130  0.0588 -0.4362
   40POPC   H4Y 5403   4.561   6.057   7.067 -0.9739  1.3749  1.6601
   40POPC   C35 5404   4.395   6.198   7.110 -0.1408 -0.9757  0.1009
   40POPC   H5X 5405   4.319   6.126   7.075  0.7773 -2.0902  0.3504
   40POPC   H5Y 5406   4.362   6.294   7.065  2.3171 -0.9357 -1.8366
   40POPC   C36 5407   4.401   6.197   7.268  0.2484  0.4439  0.3599
   40POPC   H6X 5408   4.488   6.262   7.288 -0.2602  1.7314 -1.3396
   40POPC   H6Y 5409   4.413   6.089   7.292 -0.0630 -0.3396 -2.5669
   40POPC   C37 5410   4.269   6.241   7.334  0.7535 -0.2527  0.3300
   40POPC   H7X 5411   4.192   6.172   7.293  1.3916 -0.6909 -0.1529
   40POPC   H7Y 5412   4.234   6.344   7.309  1.8943 -0.1949 -1.2329
   40POPC   C38 5413   4.283   6.243   7.491 -0.7664  0.7725  0.2673
   40POPC   H8X 5414   4.354   6.326   7.516 -0.7490  0.2860  1.9741
   40POPC   H8Y 5415   4.326   6.149   7.533 -2.5514  1.3599  3.8127
   40POPC   C39 5416   4.165   6.260   7.573 -0.5040  1.0582 -0.0729
   40POPC   H9X 5417   4.096   6.178   7.543 -0.2856  1.2092 -1.0312
   40POPC   H9Y 5418   4.119   6.360   7.564  1.5180  1.8700 -2.5767
   40POPC  C310 5419   4.201   6.234   7.719 -0.0098 -0.1379 -0.2080
   40POPC  H10X 5420   4.298   6.275   7.755 -0.9908  2.0974  0.0324
   40POPC  H10Y 5421   4.214   6.125   7.739 -1.1810 -0.1357  0.6337
   40POPC  C311 5422   4.096   6.292   7.816 -0.1155  0.1954 -0.8402
   40POPC  H11X 5423   4.103   6.403   7.805 -1.2000  0.3140 -0.4312
   40POPC  H11Y 5424   4.127   6.268   7.920  1.5008  1.4645 -0.9801
   40POPC  C312 5425   3.953   6.250   7.778  0.3931 -0.0585  0.1875
   40POPC  H12X 5426   3.949   6.142   7.750 -1.9646 -0.2140  0.9358
   40POPC  H12Y 5427   3.927   6.302   7.683 -1.3181 -1.6513 -0.2660
   40POPC  C313 5428   3.848   6.288   7.881  0.1466 -0.2455 -0.0817
   40POPC  H13X 5429   3.888   6.260   7.981 -0.2388 -1.3993 -0.2405
   40POPC  H13Y 5430   3.760   6.222   7.872 -0.5653  0.8067 -1.0950
   40POPC  C314 5431   3.808   6.434   7.875 -0.3889 -0.2644  0.0790
   40POPC  H14X 5432   3.726   6.444   7.801  0.2720 -3.6299 -1.2945
   40POPC  H14Y 5433   3.892   6.498   7.838 -0.1879 -0.5384  0.0568
   40POPC  C315 5434   3.761   6.499   8.007 -0.7373  0.5305 -0.3975
   40POPC  H15X 5435   3.736   6.606   7.992  0.8946  0.9665 -0.2691
   40POPC  H15Y 5436   3.842   6.500   8.083 -0.0851  0.2498 -1.0666
   40POPC  C316 5437   3.646   6.427   8.084  0.3013  0.0046 -0.7592
   40POPC  H16X 5438   3.675   6.327   8.121  1.0849  0.7909  0.8555
   40POPC  H16Y 5439   3.559   6.406   8.018  2.0116 -2.7916 -2.3059
   40POPC  H16Z 5440   3.641   6.485   8.179  3.7713 -0.1414 -0.3619
   41CHL1    C3 5441   5.581   1.307   9.870  0.0261  0.0476  0.0526
   41CHL1    H3 5442   5.595   1.406   9.822 -2.4554 -0.5786 -2.2300
   41CHL1    O3 5443   5.590   1.320  10.009  0.1708 -0.9669  0.1205
   41CHL1   H3' 5444   5.669   1.375  10.020 -0.3201 -0.1238 -0.3997
   41CHL1    C4 5445   5.442   1.259   9.841 -0.2847 -0.1000 -0.2425
   41CHL1   H4A 5446   5.430   1.163   9.896  1.9437  1.7834  3.9702
   41CHL1   H4B 5447   5.374   1.326   9.897 -1.2837 -1.3324  0.0736
   41CHL1    C5 5448   5.417   1.245   9.689  0.2486  0.3780  0.0744
   41CHL1    C6 5449   5.310   1.308   9.629 -0.3766  0.3252  0.3148
   41CHL1    H6 5450   5.239   1.369   9.686  0.1906 -0.6212  2.1427
   41CHL1    C7 5451   5.301   1.300   9.474 -0.8282 -1.3173 -0.5802
   41CHL1   H7A 5452   5.194   1.297   9.444 -0.8185 -1.8032 -0.5751
   41CHL1   H7B 5453   5.332   1.400   9.438  0.9066 -1.6679 -0.1344
   41CHL1    C8 5454   5.373   1.181   9.411  0.3695 -0.3250 -0.4899
   41CHL1    H8 5455   5.314   1.089   9.433 -2.0440  1.0277 -0.9642
   41CHL1   C14 5456   5.388   1.201   9.262 -0.0011 -0.5327  0.1548
   41CHL1   H14 5457   5.454   1.291   9.261 -0.5842 -0.0824  1.0664
   41CHL1   C15 5458   5.268   1.262   9.175 -0.4795 -0.2658 -0.0907
   41CHL1  H15A 5459   5.178   1.208   9.212 -0.8702 -0.0498 -0.7084
   41CHL1  H15B 5460   5.259   1.372   9.179  0.8628 -0.0710 -1.6152
   41CHL1   C16 5461   5.315   1.228   9.032  0.5289 -0.3249  1.0893
   41CHL1  H16A 5462   5.243   1.153   8.993  0.0624  1.4321 -1.6893
   41CHL1  H16B 5463   5.317   1.315   8.964 -1.3919 -0.0794  1.2996
   41CHL1   C17 5464   5.460   1.158   9.040  0.0198 -0.7433 -0.0013
   41CHL1   H17 5465   5.542   1.233   9.049  0.1553 -0.7780 -0.8205
   41CHL1   C13 5466   5.461   1.096   9.183  0.1004  0.8776  0.1875
   41CHL1   C18 5467   5.385   0.955   9.179  0.5135 -0.1119 -0.1839
   41CHL1  H18A 5468   5.281   0.960   9.140  0.7947 -1.0464 -1.0904
   41CHL1  H18B 5469   5.441   0.879   9.121 -1.5958 -0.7044 -1.5784
   41CHL1  H18C 5470   5.375   0.912   9.282 -2.2955 -0.3517 -0.4866
   41CHL1   C12 5471   5.601   1.082   9.245 -0.2597  0.2769  0.2647
   41CHL1  H12A 5472   5.664   1.001   9.202 -1.2790 -1.3474  1.7246
   41CHL1  H12B 5473   5.652   1.180   9.228 -2.3181  1.6124  1.4893
   41CHL1   C11 5474   5.604   1.065   9.398  0.2778  1.0398  0.1953
   41CHL1  H11A 5475   5.551   0.968   9.407  0.7533  0.6692 -0.8721
   41CHL1  H11B 5476   5.709   1.065   9.434  1.0634 -0.0326 -1.9383
   41CHL1    C9 5477   5.514   1.167   9.472 -0.3326  0.1329  0.0634
   41CHL1    H9 5478   5.572   1.258   9.446  0.7703 -0.2385  1.1399
   41CHL1   C10 5479   5.526   1.156   9.625  0.6356  0.0683 -0.2278
   41CHL1   C19 5480   5.497   1.006   9.661 -0.3400 -0.2370 -0.3451
   41CHL1  H19A 5481   5.403   0.964   9.620 -1.3709 -2.3567  3.6561
   41CHL1  H19B 5482   5.582   0.938   9.638 -1.1177 -1.8400  1.3631
   41CHL1  H19C 5483   5.489   0.981   9.769  0.4179 -0.8591 -0.4253
   41CHL1    C1 5484   5.665   1.192   9.664 -1.3356 -0.7945  0.0032
   41CHL1   H1A 5485   5.741   1.116   9.634  1.7093  1.5876  1.2347
   41CHL1   H1B 5486   5.691   1.288   9.614 -0.3159  0.0907  2.1298
   41CHL1    C2 5487   5.689   1.215   9.817 -0.2214 -1.1950 -1.1312
   41CHL1   H2A 5488   5.789   1.261   9.835  0.3610 -1.9727 -2.2546
   41CHL1   H2B 5489   5.684   1.118   9.871 -1.0306 -0.3547  0.3645
   41CHL1   C20 5490   5.489   1.072   8.919  0.2527  0.0146  0.0657
   41CHL1   H20 5491   5.409   0.995   8.911  0.7034 -0.2587 -2.8383
   41CHL1   C21 5492   5.624   1.006   8.928 -0.4447 -0.1084  0.7591
   41CHL1  H21A 5493   5.656   0.930   8.854 -0.7318 -0.3141  0.8437
   41CHL1  H21B 5494   5.610   0.939   9.015  1.1879 -0.6516  0.6380
   41CHL1  H21C 5495   5.699   1.087   8.944  0.6261 -0.8971 -0.1223
   41CHL1   C22 5496   5.470   1.138   8.782 -0.5972 -0.2523 -0.0029
   41CHL1  H22A 5497   5.495   1.064   8.703 -0.1703 -1.8439  1.5422
   41CHL1  H22B 5498   5.370   1.170   8.748 -0.1808  0.3983 -0.6600
   41CHL1   C23 5499   5.566   1.260   8.748  0.9124  0.0794  0.0836
   41CHL1  H23A 5500   5.538   1.347   8.811 -0.3511 -1.8316  2.3169
   41CHL1  H23B 5501   5.671   1.254   8.786  0.4480 -0.9270  1.2647
   41CHL1   C24 5502   5.565   1.294   8.598 -0.3447 -0.7922  0.4762
   41CHL1  H24A 5503   5.458   1.277   8.570 -0.1692  0.5461 -1.2214
   41CHL1  H24B 5504   5.571   1.403   8.577 -2.3436 -0.6557  0.3678
   41CHL1   C25 5505   5.656   1.210   8.513 -0.6343  0.1812  0.0849
   41CHL1   H25 5506   5.617   1.106   8.508 -1.4410  0.4863 -0.1182
   41CHL1   C26 5507   5.654   1.255   8.362  0.5543  0.2027 -0.0372
   41CHL1  H26A 5508   5.562   1.208   8.320  0.1776 -1.4243  2.3976
   41CHL1  H26B 5509   5.639   1.365   8.357  0.8236  0.2649  0.4260
   41CHL1  H26C 5510   5.744   1.213   8.311 -0.7388  0.1738 -2.4518
   41CHL1   C27 5511   5.801   1.190   8.561  0.8918  0.4604  0.2890
   41CHL1  H27A 5512   5.863   1.154   8.477  0.1384  0.8952 -0.4682
   41CHL1  H27B 5513   5.836   1.288   8.600  0.3468  0.3556  1.0677
   41CHL1  H27C 5514   5.797   1.115   8.643  0.7858  0.3798  0.2105
   42CHL1    C3 5515   3.575   6.605   9.930  0.0116 -0.4009 -0.2050
   42CHL1    H3 5516   3.508   6.516   9.927 -0.4442 -0.1214  1.0878
   42CHL1    O3 5517   3.557   6.651  10.064  0.8929  0.1295 -0.1217
   42CHL1   H3' 5518   3.626   6.717  10.073 -0.1286  1.0119  1.9581
   42CHL1    C4 5519   3.722   6.563   9.913  0.0311  0.1984  0.1488
   42CHL1   H4A 5520   3.790   6.650   9.926 -1.4522  1.1582  2.0140
   42CHL1   H4B 5521   3.757   6.491   9.991  1.1376  1.4563  0.8607
   42CHL1    C5 5522   3.731   6.505   9.767 -0.4630 -0.6983  0.8896
   42CHL1    C6 5523   3.783   6.387   9.740 -0.0744  0.4924  0.8583
   42CHL1    H6 5524   3.827   6.329   9.823  1.2740 -0.5339 -0.5011
   42CHL1    C7 5525   3.787   6.324   9.604 -0.2389  0.4116  0.2522
   42CHL1   H7A 5526   3.877   6.261   9.588 -1.7010 -1.4283 -1.3130
   42CHL1   H7B 5527   3.708   6.245   9.604  0.2327 -0.0813  1.0844
   42CHL1    C8 5528   3.778   6.427   9.487 -0.6779  0.4911  1.0153
   42CHL1    H8 5529   3.868   6.491   9.497 -2.2454  2.9820  0.2017
   42CHL1   C14 5530   3.760   6.361   9.356  0.1340  0.2206 -0.0345
   42CHL1   H14 5531   3.673   6.295   9.377 -1.3852  2.2503  0.4064
   42CHL1   C15 5532   3.871   6.263   9.308 -0.0146 -0.2504  0.1318
   42CHL1  H15A 5533   3.974   6.297   9.330 -0.5755  1.2545  0.5854
   42CHL1  H15B 5534   3.867   6.163   9.356 -0.7079  0.2422  1.1302
   42CHL1   C16 5535   3.839   6.254   9.155 -0.0571  0.6417 -0.3371
   42CHL1  H16A 5536   3.923   6.304   9.104 -0.6592  0.7949 -1.1955
   42CHL1  H16B 5537   3.824   6.148   9.124  0.3138  0.9869 -1.7496
   42CHL1   C17 5538   3.707   6.342   9.134 -0.5212  0.1445  0.2087
   42CHL1   H17 5539   3.629   6.273   9.173  0.0671  0.4679  2.0445
   42CHL1   C13 5540   3.721   6.449   9.240  0.6492 -0.0603  0.4357
   42CHL1   C18 5541   3.831   6.549   9.201  0.3964 -0.5921 -0.4997
   42CHL1  H18A 5542   3.851   6.604   9.295 -0.2277  0.0669 -0.7469
   42CHL1  H18B 5543   3.929   6.509   9.169  2.4143 -0.2935  4.5474
   42CHL1  H18C 5544   3.795   6.617   9.120  1.9640  0.2895 -0.4859
   42CHL1   C12 5545   3.597   6.529   9.273 -0.5977  0.0918 -0.8449
   42CHL1  H12A 5546   3.576   6.604   9.193  0.2375  1.7336  0.4376
   42CHL1  H12B 5547   3.509   6.462   9.285 -2.7170  3.0047  1.4806
   42CHL1   C11 5548   3.606   6.607   9.410 -0.8269 -0.6104  0.1393
   42CHL1  H11A 5549   3.666   6.700   9.396 -0.0262 -1.0401  0.6407
   42CHL1  H11B 5550   3.504   6.649   9.426  0.1904  2.0990  0.0310
   42CHL1    C9 5551   3.656   6.520   9.523  0.3376 -0.6552  0.8038
   42CHL1    H9 5552   3.579   6.444   9.552 -0.4270  0.4641  1.8123
   42CHL1   C10 5553   3.679   6.600   9.658  0.2295 -0.1752  0.2098
   42CHL1   C19 5554   3.778   6.715   9.639 -0.6274  0.4581 -0.0558
   42CHL1  H19A 5555   3.876   6.671   9.610 -1.5801 -0.9245 -1.3964
   42CHL1  H19B 5556   3.757   6.787   9.557 -0.8077  1.5007  0.8916
   42CHL1  H19C 5557   3.807   6.776   9.727 -1.7660  0.2845  0.4606
   42CHL1    C1 5558   3.539   6.658   9.692  0.4608 -0.4387 -0.5381
   42CHL1   H1A 5559   3.527   6.743   9.622 -0.2051 -0.4972 -0.5044
   42CHL1   H1B 5560   3.451   6.597   9.659 -1.8069  3.3100 -2.0699
   42CHL1    C2 5561   3.533   6.710   9.838  0.2554  0.2082  0.2732
   42CHL1   H2A 5562   3.427   6.738   9.853  0.2381  0.6891 -0.6608
   42CHL1   H2B 5563   3.590   6.805   9.852  0.0306  0.1306  1.8114
   42CHL1   C20 5564   3.687   6.384   8.986  0.2762  0.9034 -0.0182
   42CHL1   H20 5565   3.761   6.465   8.966  0.2028  0.5901 -1.6546
   42CHL1   C21 5566   3.541   6.442   8.948  0.1573  0.9844  1.4095
   42CHL1  H21A 5567   3.531   6.524   9.023  2.6179  0.4252  2.4447
   42CHL1  H21B 5568   3.465   6.361   8.954  1.3012 -0.4489 -1.5766
   42CHL1  H21C 5569   3.545   6.492   8.849 -0.7558 -1.1651  0.2269
   42CHL1   C22 5570   3.717   6.264   8.889  0.6861 -0.1175 -0.3856
   42CHL1  H22A 5571   3.819   6.226   8.913  0.0088 -0.7150  1.7089
   42CHL1  H22B 5572   3.653   6.177   8.912 -0.0119  0.4048 -0.3043
   42CHL1   C23 5573   3.725   6.298   8.743  0.0943  0.2523  0.1784
   42CHL1  H23A 5574   3.623   6.290   8.698  0.1890  1.3259 -0.2587
   42CHL1  H23B 5575   3.758   6.404   8.735  2.7435 -0.5035  0.3663
   42CHL1   C24 5576   3.804   6.204   8.649  0.1389 -0.4020  0.1979
   42CHL1  H24A 5577   3.904   6.185   8.693  0.1519 -0.1625  0.2730
   42CHL1  H24B 5578   3.762   6.102   8.643  1.7520 -1.0698 -0.1885
   42CHL1   C25 5579   3.812   6.245   8.498 -0.2486  0.4919 -0.2513
   42CHL1   H25 5580   3.832   6.155   8.436 -0.4843  1.0599 -1.1718
   42CHL1   C26 5581   3.675   6.282   8.452  0.1399 -0.6663  0.2404
   42CHL1  H26A 5582   3.602   6.201   8.475  0.4043 -2.0231 -3.0881
   42CHL1  H26B 5583   3.653   6.387   8.480  2.8834 -0.4104  1.8304
   42CHL1  H26C 5584   3.671   6.286   8.341  0.0570 -0.3166  0.2571
   42CHL1   C27 5585   3.904   6.357   8.469 -0.1518  0.1755 -0.3542
   42CHL1  H27A 5586   4.010   6.334   8.495  0.3144  2.1366 -0.3936
   42CHL1  H27B 5587   3.906   6.372   8.359 -1.7064 -2.0369 -0.7554
   42CHL1  H27C 5588   3.870   6.452   8.515 -3.1972 -0.5089 -0.9497
   43CHL1    C3 5589   1.315   1.835   9.917 -0.0974  0.0251 -0.6222
   43CHL1    H3 5590   1.423   1.810   9.914  0.0787  0.5214  0.7202
   43CHL1    O3 5591   1.272   1.841  10.053  0.0418 -0.0434  0.3992
   43CHL1   H3' 5592   1.345   1.890  10.092 -0.6912 -0.0702  1.8556
   43CHL1    C4 5593   1.296   1.973   9.851  0.4952 -0.2979  0.0343
   43CHL1   H4A 5594   1.196   2.018   9.866 -0.7160 -2.8117  0.0089
   43CHL1   H4B 5595   1.358   2.046   9.907 -1.5412  1.4888  0.0928
   43CHL1    C5 5596   1.336   1.969   9.710 -0.2000 -0.0591  0.0703
   43CHL1    C6 5597   1.422   2.051   9.654 -0.1114 -0.2204  0.0768
   43CHL1    H6 5598   1.471   2.122   9.722  0.6580 -1.4299  0.8249
   43CHL1    C7 5599   1.448   2.063   9.506  0.2006 -0.7206  0.8165
   43CHL1   H7A 5600   1.453   2.168   9.472  0.9866 -0.8538  0.4873
   43CHL1   H7B 5601   1.553   2.029   9.490  0.1307 -1.3447  1.6452
   43CHL1    C8 5602   1.343   1.989   9.422  0.3241  0.4050  0.1804
   43CHL1    H8 5603   1.247   2.044   9.425  0.7253  1.1655 -0.4497
   43CHL1   C14 5604   1.405   1.964   9.289  0.2909  0.1213  0.7381
   43CHL1   H14 5605   1.504   1.919   9.308  0.1287 -0.4783  0.2288
   43CHL1   C15 5606   1.454   2.086   9.210 -0.3808 -0.7537 -0.1411
   43CHL1  H15A 5607   1.379   2.165   9.188  3.5359  3.5832  0.4580
   43CHL1  H15B 5608   1.543   2.117   9.270  0.7229 -3.8128 -0.0279
   43CHL1   C16 5609   1.480   2.026   9.070 -0.3622 -0.1649 -0.1721
   43CHL1  H16A 5610   1.408   2.081   9.006  1.4932  2.0495 -0.4835
   43CHL1  H16B 5611   1.582   2.034   9.028 -0.8667 -2.2301 -1.9983
   43CHL1   C17 5612   1.427   1.876   9.068 -0.3588  0.1869  0.0120
   43CHL1   H17 5613   1.515   1.809   9.068 -1.2447 -1.1421 -3.1490
   43CHL1   C13 5614   1.333   1.868   9.196  0.6252  0.2889 -0.5657
   43CHL1   C18 5615   1.192   1.932   9.165 -0.2452  0.0634 -0.4038
   43CHL1  H18A 5616   1.130   1.934   9.257 -0.9360 -0.1373 -0.8582
   43CHL1  H18B 5617   1.195   2.038   9.131  1.7609 -0.2414 -1.3313
   43CHL1  H18C 5618   1.136   1.870   9.093 -1.5122  3.7011 -2.8261
   43CHL1   C12 5619   1.320   1.730   9.264 -0.0688 -0.2693  0.3664
   43CHL1  H12A 5620   1.289   1.655   9.189 -1.0634  0.6936 -0.2310
   43CHL1  H12B 5621   1.425   1.699   9.279  0.1112 -0.2714 -0.8758
   43CHL1   C11 5622   1.246   1.743   9.397  0.3318 -0.8240  0.2960
   43CHL1  H11A 5623   1.136   1.761   9.393  0.5035  1.1908  2.3753
   43CHL1  H11B 5624   1.246   1.640   9.438  1.3654 -1.4934 -1.3134
   43CHL1    C9 5625   1.322   1.846   9.486  0.1716  0.1302 -0.6216
   43CHL1    H9 5626   1.422   1.802   9.501 -0.6672 -1.0064  2.1556
   43CHL1   C10 5627   1.265   1.856   9.625  0.8180 -0.2620 -0.4251
   43CHL1   C19 5628   1.110   1.887   9.622  0.5797  0.6685 -0.2814
   43CHL1  H19A 5629   1.051   1.811   9.568 -1.0897  2.3127 -0.9068
   43CHL1  H19B 5630   1.065   1.896   9.723  0.2797  3.6571 -0.5689
   43CHL1  H19C 5631   1.104   1.989   9.577  1.6137  0.2655 -1.4037
   43CHL1    C1 5632   1.283   1.718   9.699 -0.5610 -0.6549  0.1059
   43CHL1   H1A 5633   1.213   1.646   9.651 -0.9511  0.1659 -0.5947
   43CHL1   H1B 5634   1.389   1.691   9.677 -0.8575 -0.8016 -1.2440
   43CHL1    C2 5635   1.251   1.718   9.846  0.5383  0.0028 -0.0652
   43CHL1   H2A 5636   1.270   1.624   9.904 -1.8783 -0.1519  0.6204
   43CHL1   H2B 5637   1.141   1.728   9.862  0.5249  0.0906 -0.2111
   43CHL1   C20 5638   1.365   1.842   8.929 -1.4519 -0.4103  0.9373
   43CHL1   H20 5639   1.282   1.914   8.913  2.1222  3.9425 -0.4801
   43CHL1   C21 5640   1.306   1.698   8.913  0.1620  1.0321  0.3277
   43CHL1  H21A 5641   1.391   1.627   8.922 -1.4350 -0.9461  0.3891
   43CHL1  H21B 5642   1.257   1.680   8.815  1.3188 -1.3952  0.1152
   43CHL1  H21C 5643   1.232   1.675   8.992  0.2887 -0.3634  0.0644
   43CHL1   C22 5644   1.457   1.878   8.806  0.5938 -0.6417 -0.3593
   43CHL1  H22A 5645   1.404   1.833   8.720  0.3288  0.9016 -1.0443
   43CHL1  H22B 5646   1.455   1.987   8.786 -0.0477 -0.1512  2.0592
   43CHL1   C23 5647   1.603   1.830   8.815 -0.9057  0.0280 -0.1240
   43CHL1  H23A 5648   1.666   1.871   8.897 -2.1050 -0.0193  0.8376
   43CHL1  H23B 5649   1.612   1.720   8.826  2.7773  0.1550 -0.3987
   43CHL1   C24 5650   1.680   1.858   8.682 -0.0012  0.1605 -0.4675
   43CHL1  H24A 5651   1.619   1.820   8.597 -2.0242  0.6669  0.6905
   43CHL1  H24B 5652   1.681   1.968   8.667  0.8154  0.3794  1.0267
   43CHL1   C25 5653   1.833   1.813   8.667  0.5885 -0.4604 -0.6777
   43CHL1   H25 5654   1.888   1.849   8.756  2.2742  2.4404 -2.7413
   43CHL1   C26 5655   1.840   1.662   8.655  0.0917 -0.5714  0.1882
   43CHL1  H26A 5656   1.775   1.625   8.574 -0.7345  1.5505 -0.1781
   43CHL1  H26B 5657   1.945   1.627   8.642  0.7068  1.4633 -0.6734
   43CHL1  H26C 5658   1.805   1.620   8.752 -0.2258  1.1739  0.8728
   43CHL1   C27 5659   1.900   1.862   8.541  0.5014  0.2888  0.1444
   43CHL1  H27A 5660   1.861   1.820   8.445 -1.2478  0.3848  0.7761
   43CHL1  H27B 5661   1.887   1.973   8.537 -0.5037  0.1970  0.4766
   43CHL1  H27C 5662   2.008   1.837   8.546  0.4855  0.1993  0.0408
   44CHL1    C3 5663   3.197   6.706  10.141 -0.1514  0.1903  0.5596
   44CHL1    H3 5664   3.299   6.709  10.099  0.0464 -0.4272  0.9788
   44CHL1    O3 5665   3.195   6.717  10.281 -0.0874 -0.6489 -0.2572
   44CHL1   H3' 5666   3.103   6.738  10.295 -0.3470  0.4333 -3.0609
   44CHL1    C4 5667   3.129   6.832  10.079  0.0352  0.5640 -0.8064
   44CHL1   H4A 5668   3.022   6.847  10.107  0.3121 -0.5694  1.0606
   44CHL1   H4B 5669   3.180   6.922  10.120 -0.9884  0.0107  1.8975
   44CHL1    C5 5670   3.143   6.830   9.927  0.4998 -0.8117 -0.1082
   44CHL1    C6 5671   3.202   6.923   9.854 -0.3671 -0.8819  0.4206
   44CHL1    H6 5672   3.237   7.010   9.911 -1.0244  0.4569 -1.1296
   44CHL1    C7 5673   3.215   6.919   9.706  0.1410 -0.0259  0.1499
   44CHL1   H7A 5674   3.183   7.018   9.669  1.5042  1.0643  1.7498
   44CHL1   H7B 5675   3.322   6.896   9.684  0.4528  0.8245  0.7402
   44CHL1    C8 5676   3.127   6.811   9.639 -0.1185 -0.2616  0.0296
   44CHL1    H8 5677   3.020   6.838   9.632 -0.2943 -1.0889 -0.7272
   44CHL1   C14 5678   3.173   6.787   9.498  0.2427 -0.1836  0.2720
   44CHL1   H14 5679   3.283   6.772   9.505  0.2954 -1.7548 -2.4503
   44CHL1   C15 5680   3.166   6.909   9.406  0.0914  0.4806 -0.2645
   44CHL1  H15A 5681   3.062   6.950   9.409 -0.8139 -1.5793 -1.6907
   44CHL1  H15B 5682   3.232   6.989   9.446  1.3380  0.2193 -1.7198
   44CHL1   C16 5683   3.215   6.842   9.275 -0.4258 -0.0320 -0.0539
   44CHL1  H16A 5684   3.139   6.882   9.204  1.8823  0.6581 -2.2849
   44CHL1  H16B 5685   3.318   6.864   9.242 -0.8273 -0.1983 -1.4977
   44CHL1   C17 5686   3.197   6.687   9.295  0.3530 -0.0542 -0.7215
   44CHL1   H17 5687   3.296   6.646   9.325 -0.1856 -0.1188  1.0947
   44CHL1   C13 5688   3.118   6.671   9.424 -0.4981  0.4524 -0.0120
   44CHL1   C18 5689   2.970   6.691   9.389 -0.6203 -0.6199  0.5633
   44CHL1  H18A 5690   2.932   6.593   9.354 -0.2788 -2.0614  3.8651
   44CHL1  H18B 5691   2.916   6.725   9.480 -0.8663 -0.0462  0.2054
   44CHL1  H18C 5692   2.951   6.769   9.313 -2.3662 -1.4463  0.1064
   44CHL1   C12 5693   3.141   6.549   9.510 -0.0447  0.7734 -0.3630
   44CHL1  H12A 5694   3.093   6.467   9.452  0.9904  1.7584 -2.7543
   44CHL1  H12B 5695   3.250   6.528   9.517 -0.2370 -0.2022 -0.0925
   44CHL1   C11 5696   3.078   6.558   9.648 -0.5472 -0.5068  0.3863
   44CHL1  H11A 5697   2.968   6.559   9.631 -0.6839  0.6007  1.2551
   44CHL1  H11B 5698   3.105   6.463   9.698  0.7103 -0.0192  0.6719
   44CHL1    C9 5699   3.135   6.680   9.720  0.4504 -0.4136  0.0399
   44CHL1    H9 5700   3.244   6.657   9.724  0.7259  0.9906  1.1958
   44CHL1   C10 5701   3.083   6.701   9.866  0.0500  0.0991 -0.1862
   44CHL1   C19 5702   2.931   6.712   9.881 -0.0158 -0.6951  0.7235
   44CHL1  H19A 5703   2.879   6.631   9.825  0.4669 -0.1921 -0.4891
   44CHL1  H19B 5704   2.894   6.706   9.985  1.0119  0.1098  1.1503
   44CHL1  H19C 5705   2.893   6.808   9.839 -0.0688 -1.3237 -0.7449
   44CHL1    C1 5706   3.125   6.572   9.939  0.1623  0.2477 -0.0585
   44CHL1   H1A 5707   3.069   6.481   9.910  2.0927 -0.0180 -3.4712
   44CHL1   H1B 5708   3.230   6.553   9.906 -0.2942 -0.9035 -0.8936
   44CHL1    C2 5709   3.131   6.577  10.092 -0.3799  0.4387  0.0401
   44CHL1   H2A 5710   3.191   6.491  10.130  2.9509  3.5560  2.6497
   44CHL1   H2B 5711   3.030   6.566  10.137 -1.0036 -1.4016 -1.6498
   44CHL1   C20 5712   3.151   6.606   9.162 -0.4504 -0.2602 -0.1365
   44CHL1   H20 5713   3.040   6.618   9.163 -0.6505 -1.4542  2.9899
   44CHL1   C21 5714   3.173   6.454   9.185  0.4074  0.2152  0.2916
   44CHL1  H21A 5715   3.136   6.403   9.094  2.2781 -1.2158  0.2662
   44CHL1  H21B 5716   3.110   6.408   9.264  0.6986 -0.0790  0.3528
   44CHL1  H21C 5717   3.277   6.433   9.219  0.4970 -2.5447 -1.4305
   44CHL1   C22 5718   3.211   6.664   9.030  0.1911 -0.1867 -0.5003
   44CHL1  H22A 5719   3.228   6.773   9.041  0.7305 -0.4608  2.1238
   44CHL1  H22B 5720   3.309   6.612   9.037 -0.1753 -0.8463 -0.0810
   44CHL1   C23 5721   3.128   6.636   8.906  0.2170 -0.5309  0.0074
   44CHL1  H23A 5722   3.190   6.659   8.817  2.2394 -2.6684  0.7728
   44CHL1  H23B 5723   3.098   6.529   8.905  0.8160 -0.6944 -0.6397
   44CHL1   C24 5724   2.992   6.719   8.906 -0.6385 -0.0668  0.2281
   44CHL1  H24A 5725   2.937   6.666   8.987  0.0469  1.8253  2.0096
   44CHL1  H24B 5726   3.012   6.826   8.927  1.7775 -0.1233 -1.3904
   44CHL1   C25 5727   2.906   6.698   8.773 -0.0974  0.1334 -0.6611
   44CHL1   H25 5728   2.896   6.588   8.761 -2.0368 -0.6257  4.9179
   44CHL1   C26 5729   2.759   6.760   8.775 -0.4220 -0.2161  0.3020
   44CHL1  H26A 5730   2.696   6.711   8.852 -3.6378  0.0869 -1.9440
   44CHL1  H26B 5731   2.752   6.869   8.797  2.1056  0.1621 -0.3699
   44CHL1  H26C 5732   2.706   6.744   8.679  1.4544 -1.1104 -0.6476
   44CHL1   C27 5733   2.982   6.757   8.658 -0.2590  0.6462 -0.3629
   44CHL1  H27A 5734   2.928   6.733   8.563 -1.0145 -0.3864  0.2974
   44CHL1  H27B 5735   2.980   6.867   8.672 -2.1476  0.6237 -0.1776
   44CHL1  H27C 5736   3.084   6.714   8.652 -0.8289 -0.9336  0.5892
   45CHL1    C3 5737   1.037   5.971  10.366 -0.5408  0.1592  0.2581
   45CHL1    H3 5738   1.137   6.017  10.355  0.0700 -1.1651  0.0494
   45CHL1    O3 5739   1.019   5.961  10.505  0.1578  0.3183 -0.2734
   45CHL1   H3' 5740   0.940   5.907  10.510  0.4091  0.0297  0.9858
   45CHL1    C4 5741   0.926   6.066  10.319  0.8079 -1.0097  0.2752
   45CHL1   H4A 5742   0.832   6.032  10.367  0.3482 -0.0540  0.0889
   45CHL1   H4B 5743   0.954   6.168  10.353  3.0509 -0.8671 -1.7191
   45CHL1    C5 5744   0.928   6.065  10.169  0.1302  0.0544  0.0778
   45CHL1    C6 5745   0.963   6.171  10.094 -0.4222  0.5605 -0.3812
   45CHL1    H6 5746   0.999   6.261  10.146 -1.0047  0.1745  0.7348
   45CHL1    C7 5747   0.983   6.164   9.943  0.2895 -0.2383 -0.0273
   45CHL1   H7A 5748   0.899   6.217   9.895  0.6477 -0.5917 -1.0790
   45CHL1   H7B 5749   1.073   6.217   9.906 -0.9223  0.2651 -2.4375
   45CHL1    C8 5750   0.980   6.018   9.891 -0.3202 -0.6253  0.5491
   45CHL1    H8 5751   1.073   5.966   9.921  0.1379 -0.8995 -1.2232
   45CHL1   C14 5752   0.981   6.019   9.741 -0.8158  0.1527  0.8687
   45CHL1   H14 5753   1.045   6.106   9.718 -2.0430  0.9516  0.3935
   45CHL1   C15 5754   1.064   5.896   9.686  0.5805  0.3111  0.8272
   45CHL1  H15A 5755   1.168   5.934   9.684  0.6069  0.2020 -0.3548
   45CHL1  H15B 5756   1.063   5.821   9.768  1.1230 -1.1644 -0.4749
   45CHL1   C16 5757   0.994   5.850   9.562 -0.3268  0.2146 -0.4607
   45CHL1  H16A 5758   1.065   5.829   9.478  1.3939  0.8451  0.7772
   45CHL1  H16B 5759   0.934   5.759   9.584 -0.1363  0.1555 -0.1843
   45CHL1   C17 5760   0.883   5.958   9.530 -0.6804  0.0305 -0.5292
   45CHL1   H17 5761   0.788   5.908   9.502 -1.0267  0.1812  0.3355
   45CHL1   C13 5762   0.852   6.022   9.664 -0.2538 -0.4705 -0.0390
   45CHL1   C18 5763   0.812   6.176   9.645  0.1560  0.0816  0.3638
   45CHL1  H18A 5764   0.904   6.233   9.620 -1.0987  1.5544 -1.1022
   45CHL1  H18B 5765   0.736   6.182   9.564  0.8410  1.0226 -0.2285
   45CHL1  H18C 5766   0.763   6.215   9.737 -2.0476  2.4948 -1.6692
   45CHL1   C12 5767   0.739   5.943   9.739 -0.1311  0.2994 -0.0485
   45CHL1  H12A 5768   0.651   5.985   9.686 -1.9512 -1.6771  1.2129
   45CHL1  H12B 5769   0.750   5.836   9.710  0.5087  0.6439 -1.1143
   45CHL1   C11 5770   0.742   5.966   9.890  0.0124 -0.3336 -0.3753
   45CHL1  H11A 5771   0.706   6.068   9.916 -2.1717 -0.4699 -2.4736
   45CHL1  H11B 5772   0.660   5.899   9.926 -1.8603  1.2768 -1.4577
   45CHL1    C9 5773   0.874   5.927   9.951  0.3497 -0.3393  0.2710
   45CHL1    H9 5774   0.897   5.827   9.910  0.7536 -0.4590  0.7791
   45CHL1   C10 5775   0.879   5.937  10.110 -0.2075  0.4571  0.3273
   45CHL1   C19 5776   0.747   5.888  10.166  0.1073 -0.0398  0.7290
   45CHL1  H19A 5777   0.672   5.970  10.170  0.6277  0.4101  1.5650
   45CHL1  H19B 5778   0.713   5.807  10.099  2.6890 -1.5821  1.1299
   45CHL1  H19C 5779   0.743   5.823  10.256 -0.6519 -3.3367 -1.4814
   45CHL1    C1 5780   1.009   5.845  10.143  0.0751  0.3926 -0.5098
   45CHL1   H1A 5781   0.999   5.744  10.099 -0.1833  0.0288  0.3686
   45CHL1   H1B 5782   1.100   5.890  10.097 -0.4697  1.3465 -0.6965
   45CHL1    C2 5783   1.029   5.833  10.295 -0.1169  0.0130 -0.7355
   45CHL1   H2A 5784   1.122   5.778  10.323 -1.1829 -0.4013  2.4602
   45CHL1   H2B 5785   0.951   5.780  10.354  0.5275 -0.2754 -0.1268
   45CHL1   C20 5786   0.922   6.040   9.413 -0.0909  0.2419  0.2912
   45CHL1   H20 5787   0.843   6.118   9.405 -1.0783 -0.6827  0.6141
   45CHL1   C21 5788   0.910   5.949   9.289 -0.4426  0.4775  0.4392
   45CHL1  H21A 5789   0.807   5.926   9.258 -1.0963  3.2453  0.2606
   45CHL1  H21B 5790   0.973   5.858   9.293 -2.2900 -0.8825 -0.2529
   45CHL1  H21C 5791   0.938   6.014   9.203  1.1402 -0.3354  0.3051
   45CHL1   C22 5792   1.058   6.110   9.426  0.2902 -0.1189  0.8063
   45CHL1  H22A 5793   1.080   6.151   9.527  0.4769  1.0098  0.3209
   45CHL1  H22B 5794   1.144   6.042   9.406  1.0874  1.1349 -0.1756
   45CHL1   C23 5795   1.086   6.231   9.332  0.3250 -0.1278 -0.3417
   45CHL1  H23A 5796   1.028   6.210   9.240 -2.7534  1.2852  1.1291
   45CHL1  H23B 5797   1.032   6.318   9.375 -0.4681 -0.8138  0.0556
   45CHL1   C24 5798   1.235   6.257   9.296  0.1113 -0.7390 -0.4844
   45CHL1  H24A 5799   1.291   6.251   9.392  1.9194 -1.0344 -1.5130
   45CHL1  H24B 5800   1.277   6.184   9.223 -0.4595 -1.7250  0.1563
   45CHL1   C25 5801   1.265   6.399   9.240 -0.4527 -0.3725  0.8073
   45CHL1   H25 5802   1.198   6.465   9.299 -0.2513  0.2910  0.3134
   45CHL1   C26 5803   1.408   6.447   9.248 -0.3744  0.0840 -0.5570
   45CHL1  H26A 5804   1.482   6.365   9.233 -0.8369 -0.7472  1.4004
   45CHL1  H26B 5805   1.421   6.536   9.183 -0.3540  0.2288 -0.3550
   45CHL1  H26C 5806   1.421   6.484   9.352  2.8312 -0.7189 -0.5640
   45CHL1   C27 5807   1.233   6.402   9.091 -0.3799 -0.9901 -0.5279
   45CHL1  H27A 5808   1.122   6.394   9.085 -0.7956  1.1597  2.2809
   45CHL1  H27B 5809   1.263   6.498   9.045  0.7250 -1.1398 -0.1366
   45CHL1  H27C 5810   1.285   6.325   9.029  0.2492  0.2190 -1.5406
   46CHL1    C3 5811   4.656   2.310   9.941  0.4768 -0.1409  0.3923
   46CHL1    H3 5812   4.719   2.250   9.873  2.9357  1.7908  0.8395
   46CHL1    O3 5813   4.676   2.261  10.067  0.3399 -0.4582 -0.1355
   46CHL1   H3' 5814   4.600   2.283  10.121 -0.5878  0.0731 -1.5944
   46CHL1    C4 5815   4.686   2.460   9.929  0.0940  0.0230 -0.3928
   46CHL1   H4A 5816   4.621   2.515  10.000  0.5753 -0.0821  0.1314
   46CHL1   H4B 5817   4.782   2.480   9.980  0.0367 -1.7852  0.5068
   46CHL1    C5 5818   4.661   2.511   9.793  0.3458 -0.1345  1.3271
   46CHL1    C6 5819   4.764   2.567   9.719  0.0794  0.2812  0.3636
   46CHL1    H6 5820   4.858   2.574   9.776 -0.2676  0.8578  0.8874
   46CHL1    C7 5821   4.765   2.625   9.580 -0.2528  0.5826 -0.3146
   46CHL1   H7A 5822   4.782   2.735   9.578 -3.6006  1.1974 -0.3618
   46CHL1   H7B 5823   4.840   2.567   9.521  0.3048 -0.6708  1.5147
   46CHL1    C8 5824   4.623   2.603   9.513 -0.4013  0.3388  0.3416
   46CHL1    H8 5825   4.564   2.697   9.523 -2.1006 -0.4722 -1.4892
   46CHL1   C14 5826   4.645   2.584   9.366  0.7004 -0.0526  0.0509
   46CHL1   H14 5827   4.685   2.483   9.345 -1.8306 -0.8590 -1.3088
   46CHL1   C15 5828   4.727   2.686   9.282 -0.3899 -0.5271 -0.1118
   46CHL1  H15A 5829   4.700   2.789   9.316  0.8639  0.1802 -1.1570
   46CHL1  H15B 5830   4.835   2.673   9.306  0.3025  1.5344 -1.7779
   46CHL1   C16 5831   4.691   2.661   9.134 -0.0387  0.6318  0.8391
   46CHL1  H16A 5832   4.638   2.753   9.101  1.9243  1.5880  0.2291
   46CHL1  H16B 5833   4.771   2.629   9.064 -0.8921  1.6446 -0.6555
   46CHL1   C17 5834   4.570   2.562   9.140  0.4247 -0.5133 -0.5984
   46CHL1   H17 5835   4.614   2.461   9.134  2.0689  0.0349  1.2614
   46CHL1   C13 5836   4.512   2.570   9.286  0.3204  0.2034  0.5751
   46CHL1   C18 5837   4.424   2.695   9.292  0.1845  0.0123 -0.2928
   46CHL1  H18A 5838   4.381   2.708   9.393 -1.0457  1.3470 -0.9427
   46CHL1  H18B 5839   4.482   2.782   9.253  1.0061  0.4060  1.6871
   46CHL1  H18C 5840   4.331   2.676   9.233 -1.6427  0.2120  2.3792
   46CHL1   C12 5841   4.430   2.452   9.329  0.3119 -0.4044  0.0203
   46CHL1  H12A 5842   4.327   2.446   9.288  0.2574 -1.3566  0.2660
   46CHL1  H12B 5843   4.476   2.357   9.293  1.1927  0.1669 -0.3807
   46CHL1   C11 5844   4.407   2.457   9.483 -0.5494  0.2962  0.1025
   46CHL1  H11A 5845   4.334   2.537   9.510  1.1630  1.3605  1.9208
   46CHL1  H11B 5846   4.356   2.363   9.510  0.1782 -0.7769 -2.0373
   46CHL1    C9 5847   4.543   2.479   9.567  0.4831 -0.1431 -0.3183
   46CHL1    H9 5848   4.610   2.394   9.540 -0.1194 -0.9205  0.5482
   46CHL1   C10 5849   4.526   2.471   9.727 -0.1841  0.6366 -0.5299
   46CHL1   C19 5850   4.418   2.576   9.757 -0.2042 -0.7230 -0.0870
   46CHL1  H19A 5851   4.432   2.610   9.862  1.4360 -2.1256  0.1783
   46CHL1  H19B 5852   4.443   2.659   9.688  0.0506 -2.5617 -2.3275
   46CHL1  H19C 5853   4.313   2.539   9.751 -0.2809 -0.5702  0.2737
   46CHL1    C1 5854   4.476   2.329   9.764  0.4066  0.1135 -0.8109
   46CHL1   H1A 5855   4.366   2.319   9.746  0.4989  0.9264 -1.9930
   46CHL1   H1B 5856   4.511   2.247   9.698  0.8189  0.2361 -0.7473
   46CHL1    C2 5857   4.506   2.286   9.910 -0.4357 -0.3293  0.1228
   46CHL1   H2A 5858   4.489   2.176   9.919 -1.0073 -0.1918  0.7789
   46CHL1   H2B 5859   4.444   2.341   9.983  0.1853  0.0355  0.3854
   46CHL1   C20 5860   4.476   2.560   9.015  0.5091  0.1465  0.7994
   46CHL1   H20 5861   4.380   2.519   9.052  1.4368 -0.6669  2.4269
   46CHL1   C21 5862   4.531   2.452   8.915  0.5046 -0.0626 -0.5548
   46CHL1  H21A 5863   4.447   2.442   8.843 -3.1056  1.5858  3.0368
   46CHL1  H21B 5864   4.538   2.356   8.970 -1.0488 -0.2426 -0.6316
   46CHL1  H21C 5865   4.631   2.482   8.878  2.3582 -2.5222  2.0325
   46CHL1   C22 5866   4.442   2.690   8.938  0.5467  0.0527 -0.1890
   46CHL1  H22A 5867   4.410   2.768   9.011 -1.1532 -2.4243  1.9172
   46CHL1  H22B 5868   4.534   2.730   8.892 -0.0033  2.9108  0.9517
   46CHL1   C23 5869   4.326   2.675   8.831  0.1518  0.4147  0.0433
   46CHL1  H23A 5870   4.365   2.609   8.750 -1.2877 -0.9003  0.3647
   46CHL1  H23B 5871   4.246   2.608   8.869  0.2753 -0.3656 -1.0414
   46CHL1   C24 5872   4.241   2.799   8.788  0.0757  0.6320 -0.5753
   46CHL1  H24A 5873   4.152   2.801   8.855 -0.3978 -2.4787 -0.9844
   46CHL1  H24B 5874   4.288   2.898   8.806  0.2059  0.1073  2.4916
   46CHL1   C25 5875   4.190   2.794   8.644 -0.4158  1.4877 -0.6653
   46CHL1   H25 5876   4.147   2.692   8.628 -2.9251  2.1174  1.4019
   46CHL1   C26 5877   4.070   2.880   8.609 -0.1314 -0.3789 -0.2253
   46CHL1  H26A 5878   3.985   2.859   8.678  0.4033 -0.4397  0.4255
   46CHL1  H26B 5879   4.108   2.985   8.610  1.4505 -0.9107 -0.8407
   46CHL1  H26C 5880   4.039   2.861   8.504 -1.8260 -0.8689  0.3406
   46CHL1   C27 5881   4.300   2.812   8.538  0.1852  0.4057 -0.5168
   46CHL1  H27A 5882   4.263   2.756   8.450 -1.2414 -2.4088  1.7233
   46CHL1  H27B 5883   4.317   2.918   8.510 -0.5847  0.6326 -0.1505
   46CHL1  H27C 5884   4.393   2.765   8.577 -0.0801  0.4640  0.2094
   47CHL1    C3 5885   3.729   5.165  10.180  0.1248  0.4675 -0.4693
   47CHL1    H3 5886   3.740   5.055  10.187  2.1408  0.6421 -0.3652
   47CHL1    O3 5887   3.712   5.203  10.314  0.3848 -0.0053  0.1736
   47CHL1   H3' 5888   3.691   5.297  10.318 -1.4653 -0.4104  2.3266
   47CHL1    C4 5889   3.842   5.240  10.110  0.2957  0.6886  0.3258
   47CHL1   H4A 5890   3.837   5.349  10.130 -2.7059  0.8975 -1.0536
   47CHL1   H4B 5891   3.927   5.205  10.172  0.1204  3.2585  2.1639
   47CHL1    C5 5892   3.853   5.222   9.963  0.2449  0.6907  0.0356
   47CHL1    C6 5893   3.962   5.159   9.914 -0.6847 -1.2289 -0.4642
   47CHL1    H6 5894   4.042   5.138   9.986 -0.3036  1.0972 -0.1332
   47CHL1    C7 5895   3.976   5.136   9.772 -1.0020  0.2951 -0.2099
   47CHL1   H7A 5896   4.079   5.167   9.745 -0.4161 -0.7554  0.7393
   47CHL1   H7B 5897   3.966   5.028   9.750  0.0547  0.2215 -0.3920
   47CHL1    C8 5898   3.878   5.213   9.681  0.8206 -0.0947  0.8752
   47CHL1    H8 5899   3.888   5.323   9.686  0.1046 -0.0742  2.3466
   47CHL1   C14 5900   3.899   5.177   9.532  0.2855 -0.3583 -0.7573
   47CHL1   H14 5901   3.866   5.073   9.510  0.6461 -0.4887 -0.6867
   47CHL1   C15 5902   4.034   5.193   9.458  0.4212  0.0134  0.3605
   47CHL1  H15A 5903   4.075   5.293   9.483 -2.2644  1.2184  0.1947
   47CHL1  H15B 5904   4.101   5.107   9.482 -0.4793 -1.6490 -2.5701
   47CHL1   C16 5905   3.996   5.186   9.308  0.6168 -0.0011 -0.8283
   47CHL1  H16A 5906   4.035   5.281   9.264  1.6680  0.3360  0.7196
   47CHL1  H16B 5907   4.043   5.099   9.258 -1.6888 -1.4470 -0.6227
   47CHL1   C17 5908   3.839   5.178   9.299 -0.1683  0.1351  0.5795
   47CHL1   H17 5909   3.822   5.069   9.307 -2.3560  0.3436 -0.6092
   47CHL1   C13 5910   3.792   5.239   9.437 -0.5324  0.0378 -0.1926
   47CHL1   C18 5911   3.806   5.396   9.426 -0.2545 -0.0194  0.4903
   47CHL1  H18A 5912   3.728   5.439   9.359  0.0093  1.2930  0.9901
   47CHL1  H18B 5913   3.780   5.441   9.525  1.4536  2.2687 -0.0276
   47CHL1  H18C 5914   3.906   5.432   9.396 -0.6332  1.3660  0.8286
   47CHL1   C12 5915   3.654   5.198   9.490  0.0587  0.2789 -0.4803
   47CHL1  H12A 5916   3.572   5.247   9.434  0.9172  1.3533 -0.8061
   47CHL1  H12B 5917   3.647   5.087   9.485  0.9845  0.1320  0.8198
   47CHL1   C11 5918   3.625   5.244   9.640 -0.3001  0.4194  0.1079
   47CHL1  H11A 5919   3.615   5.355   9.646 -2.4439  0.2464  0.8845
   47CHL1  H11B 5920   3.520   5.214   9.664 -0.2226 -2.5623 -2.6769
   47CHL1    C9 5921   3.736   5.194   9.737  0.0484  0.2078 -0.4186
   47CHL1    H9 5922   3.729   5.083   9.738  1.7839  0.0810  0.9232
   47CHL1   C10 5923   3.722   5.247   9.883  0.3605 -0.3787  0.0703
   47CHL1   C19 5924   3.692   5.397   9.877 -0.2767  0.8576 -0.8675
   47CHL1  H19A 5925   3.780   5.436   9.821  0.6220  0.4632  0.2453
   47CHL1  H19B 5926   3.605   5.438   9.821  0.1698  3.0303 -0.0793
   47CHL1  H19C 5927   3.683   5.444   9.978  0.3170 -1.7881  0.4862
   47CHL1    C1 5928   3.600   5.181   9.956  0.4459 -0.3601  0.4541
   47CHL1   H1A 5929   3.507   5.224   9.912  0.5742  2.3180  2.5601
   47CHL1   H1B 5930   3.594   5.073   9.927 -0.3731 -0.5892  1.3994
   47CHL1    C2 5931   3.595   5.200  10.106 -0.1180  0.6273 -0.8907
   47CHL1   H2A 5932   3.505   5.150  10.146 -0.4842  2.7910  1.2407
   47CHL1   H2B 5933   3.569   5.307  10.121  0.1868  0.7458 -1.2096
   47CHL1   C20 5934   3.763   5.209   9.165 -0.7613 -0.6188 -0.1676
   47CHL1   H20 5935   3.741   5.318   9.168  3.1717  0.3482 -0.5012
   47CHL1   C21 5936   3.640   5.120   9.158 -0.4508 -0.2296  0.3543
   47CHL1  H21A 5937   3.584   5.134   9.254 -2.0508 -0.5146 -0.5053
   47CHL1  H21B 5938   3.658   5.012   9.139  0.8422  0.1567 -0.7628
   47CHL1  H21C 5939   3.573   5.161   9.079 -0.7833 -2.8764 -0.8281
   47CHL1   C22 5940   3.857   5.181   9.042  0.3031  0.3424  0.3751
   47CHL1  H22A 5941   3.956   5.226   9.064  0.7371 -0.0290 -0.7239
   47CHL1  H22B 5942   3.880   5.072   9.041  2.9468  0.8118  0.6088
   47CHL1   C23 5943   3.801   5.240   8.910  0.0267  1.3171  0.3224
   47CHL1  H23A 5944   3.696   5.205   8.898 -0.1313  1.5973  0.8744
   47CHL1  H23B 5945   3.795   5.351   8.905 -3.5767  1.2354  0.4451
   47CHL1   C24 5946   3.890   5.198   8.790  0.1502 -0.0982 -0.1424
   47CHL1  H24A 5947   3.989   5.246   8.806 -0.0752  0.1560  0.5360
   47CHL1  H24B 5948   3.924   5.092   8.790 -1.6543 -0.7127  0.9052
   47CHL1   C25 5949   3.828   5.267   8.667  0.6952  0.5306 -0.0967
   47CHL1   H25 5950   3.848   5.375   8.680  0.5843  0.6002 -0.4932
   47CHL1   C26 5951   3.907   5.217   8.547  0.4869 -0.3755  0.2698
   47CHL1  H26A 5952   4.015   5.235   8.565  0.7214  0.6571 -1.8606
   47CHL1  H26B 5953   3.878   5.266   8.452  2.8462 -0.5458 -0.5949
   47CHL1  H26C 5954   3.885   5.110   8.527 -0.4277  0.3960 -3.8149
   47CHL1   C27 5955   3.677   5.240   8.648  0.6158 -0.2658 -0.2705
   47CHL1  H27A 5956   3.644   5.299   8.559  1.0852  1.2776  0.5414
   47CHL1  H27B 5957   3.657   5.131   8.636  0.4040 -0.4539  1.5063
   47CHL1  H27C 5958   3.612   5.267   8.734 -1.5083 -0.5173 -1.7168
   48CHL1    C3 5959   5.449   1.670   9.855  0.5858  0.2126 -0.6780
   48CHL1    H3 5960   5.415   1.568   9.827 -0.7117  0.4038  0.1377
   48CHL1    O3 5961   5.447   1.681   9.999 -0.8881 -0.1152 -0.4551
   48CHL1   H3' 5962   5.367   1.727  10.028 -1.4706 -1.5840  0.3491
   48CHL1    C4 5963   5.587   1.705   9.803  0.2512  0.0671 -0.1260
   48CHL1   H4A 5964   5.636   1.799   9.834  2.0041 -0.5047 -1.0618
   48CHL1   H4B 5965   5.651   1.629   9.852 -1.7843 -2.1592 -0.7121
   48CHL1    C5 5966   5.582   1.695   9.648 -0.1951  0.1081 -0.2727
   48CHL1    C6 5967   5.669   1.607   9.586 -0.1826  0.0754 -0.0082
   48CHL1    H6 5968   5.751   1.559   9.639  1.2496  2.0681 -0.2898
   48CHL1    C7 5969   5.668   1.581   9.441  0.2889 -0.5130 -0.0172
   48CHL1   H7A 5970   5.771   1.574   9.399  0.1614 -2.0468 -0.1546
   48CHL1   H7B 5971   5.616   1.484   9.425  0.3738 -0.6763  0.6355
   48CHL1    C8 5972   5.604   1.697   9.356 -0.3012  0.8162  0.1124
   48CHL1    H8 5973   5.663   1.791   9.353 -0.6761  1.0367 -1.8900
   48CHL1   C14 5974   5.576   1.658   9.209 -0.3849  0.6705  0.1381
   48CHL1   H14 5975   5.523   1.560   9.212  0.4768  0.2014  0.6436
   48CHL1   C15 5976   5.694   1.625   9.120 -0.0298  0.0626 -0.6143
   48CHL1  H15A 5977   5.775   1.698   9.141  1.6616 -1.5637 -1.1885
   48CHL1  H15B 5978   5.744   1.527   9.134  0.3533  0.4398  0.7339
   48CHL1   C16 5979   5.639   1.636   8.975  0.4333  0.2035 -0.0115
   48CHL1  H16A 5980   5.704   1.703   8.915  0.2247 -1.0848 -1.7481
   48CHL1  H16B 5981   5.633   1.538   8.924  1.8186 -0.6473  1.3699
   48CHL1   C17 5982   5.494   1.688   8.987 -0.0069 -0.6589 -0.0793
   48CHL1   H17 5983   5.436   1.594   9.002 -2.0980  0.4175 -0.9379
   48CHL1   C13 5984   5.491   1.753   9.128 -0.5579 -0.2151 -0.2035
   48CHL1   C18 5985   5.566   1.887   9.107 -0.0363  0.2085  0.1574
   48CHL1  H18A 5986   5.503   1.947   9.037  0.6072 -1.1287 -1.6328
   48CHL1  H18B 5987   5.579   1.927   9.209 -0.6168  1.5760 -0.2808
   48CHL1  H18C 5988   5.669   1.873   9.067  0.0062  0.9528  0.0028
   48CHL1   C12 5989   5.354   1.770   9.194 -0.0748  1.0107 -0.0621
   48CHL1  H12A 5990   5.289   1.841   9.138 -2.2946 -0.5980  0.3392
   48CHL1  H12B 5991   5.301   1.673   9.198  0.1740  0.9129  0.9478
   48CHL1   C11 5992   5.375   1.821   9.333  0.1778 -0.1802  0.0307
   48CHL1  H11A 5993   5.414   1.925   9.328 -1.7789  0.6120  0.0884
   48CHL1  H11B 5994   5.278   1.825   9.388 -0.1035 -1.2741 -0.3482
   48CHL1    C9 5995   5.469   1.735   9.421 -0.4967  0.3452 -0.3438
   48CHL1    H9 5996   5.407   1.644   9.429  0.1592  0.0270  1.7454
   48CHL1   C10 5997   5.478   1.779   9.571 -0.0089  0.3618 -0.0915
   48CHL1   C19 5998   5.519   1.923   9.579 -1.0943 -0.0035 -0.4834
   48CHL1  H19A 5999   5.440   1.979   9.524 -1.0351 -0.3809 -0.9582
   48CHL1  H19B 6000   5.537   1.966   9.680  0.7976  0.9226 -1.1798
   48CHL1  H19C 6001   5.614   1.945   9.527 -0.3555 -2.2371 -0.1771
   48CHL1    C1 6002   5.337   1.750   9.642 -0.1208 -0.0733 -0.3672
   48CHL1   H1A 6003   5.256   1.819   9.609 -0.6965 -1.5707 -2.2383
   48CHL1   H1B 6004   5.307   1.646   9.618  3.6681 -1.7257  1.3315
   48CHL1    C2 6005   5.346   1.761   9.793 -0.2782  0.0010 -0.5354
   48CHL1   H2A 6006   5.248   1.746   9.843  0.7327  0.3982  1.6612
   48CHL1   H2B 6007   5.382   1.864   9.817  2.0860 -0.6058 -1.2258
   48CHL1   C20 6008   5.434   1.766   8.865 -0.2202 -0.0609  0.6817
   48CHL1   H20 6009   5.503   1.852   8.854 -0.1688  0.0134  1.4845
   48CHL1   C21 6010   5.294   1.825   8.887 -0.1487 -0.2327 -0.1479
   48CHL1  H21A 6011   5.222   1.753   8.931  0.6191 -1.9042 -1.5246
   48CHL1  H21B 6012   5.259   1.867   8.791  1.5053  2.3026  0.2446
   48CHL1  H21C 6013   5.307   1.913   8.955  2.0231 -0.3471 -0.3444
   48CHL1   C22 6014   5.439   1.677   8.733  0.2007  0.2361  0.1995
   48CHL1  H22A 6015   5.532   1.617   8.739  0.1706  0.1367 -0.2850
   48CHL1  H22B 6016   5.359   1.600   8.743  1.4262 -1.1784 -0.4855
   48CHL1   C23 6017   5.420   1.752   8.598 -0.5414 -0.1592  0.4204
   48CHL1  H23A 6018   5.317   1.793   8.586 -0.2892  0.6702  0.9835
   48CHL1  H23B 6019   5.494   1.832   8.575  0.4396 -1.4539 -1.1980
   48CHL1   C24 6020   5.461   1.661   8.491  0.0486  1.2891  0.3244
   48CHL1  H24A 6021   5.561   1.624   8.522  1.7546  1.5166 -4.1757
   48CHL1  H24B 6022   5.390   1.577   8.490  0.8355  0.6108  0.2687
   48CHL1   C25 6023   5.480   1.723   8.352 -0.0270  0.4973  0.7670
   48CHL1   H25 6024   5.562   1.793   8.378  1.7921 -0.9564 -0.7242
   48CHL1   C26 6025   5.521   1.627   8.244 -0.5425 -0.2041  0.3171
   48CHL1  H26A 6026   5.532   1.688   8.152  0.8676 -0.7471  0.1000
   48CHL1  H26B 6027   5.617   1.574   8.261 -1.3098 -1.1025  2.1480
   48CHL1  H26C 6028   5.446   1.550   8.215 -1.8395  0.9048  0.6339
   48CHL1   C27 6029   5.358   1.805   8.299 -0.2677 -0.9467 -0.6611
   48CHL1  H27A 6030   5.266   1.746   8.278 -0.9385  0.6070 -2.4144
   48CHL1  H27B 6031   5.330   1.880   8.376 -0.9754 -2.4666  0.6298
   48CHL1  H27C 6032   5.388   1.861   8.208  0.3785 -1.4327 -0.7522
   49CHL1    C3 6033   3.008   1.337  10.079 -0.9415 -0.3317 -0.3741
   49CHL1    H3 6034   3.114   1.350  10.050 -1.1910  1.4839 -0.5859
   49CHL1    O3 6035   2.996   1.299  10.216  0.0702 -0.1183 -0.0261
   49CHL1   H3' 6036   2.906   1.274  10.234 -0.0620  0.8430  0.6987
   49CHL1    C4 6037   2.937   1.467  10.034 -0.2355  0.0309 -0.2504
   49CHL1   H4A 6038   2.833   1.450  10.070  0.1155 -0.8754  0.3634
   49CHL1   H4B 6039   2.984   1.552  10.088 -0.1005  0.2920 -0.7714
   49CHL1    C5 6040   2.943   1.488   9.885  0.1524  0.8212  0.5409
   49CHL1    C6 6041   2.993   1.602   9.834 -0.0509  0.0118 -0.5468
   49CHL1    H6 6042   3.025   1.677   9.908  2.6904  1.0340 -2.5638
   49CHL1    C7 6043   3.030   1.626   9.688 -0.5055  0.2735 -0.1927
   49CHL1   H7A 6044   3.005   1.732   9.665  1.8508  0.6390 -1.2931
   49CHL1   H7B 6045   3.139   1.613   9.674  0.2212  3.5110  1.5232
   49CHL1    C8 6046   2.959   1.522   9.598 -0.2536  0.5939  1.1105
   49CHL1    H8 6047   2.853   1.553   9.593  0.2629  2.1708 -1.0843
   49CHL1   C14 6048   3.014   1.527   9.454  0.3727  0.1593 -0.7977
   49CHL1   H14 6049   3.113   1.478   9.469  0.3192 -0.2251 -1.6626
   49CHL1   C15 6050   3.050   1.662   9.394 -0.3875 -0.3111 -0.8436
   49CHL1  H15A 6051   2.981   1.747   9.416 -0.7422 -0.5169 -1.1548
   49CHL1  H15B 6052   3.151   1.693   9.428 -0.2379 -0.2157 -1.3610
   49CHL1   C16 6053   3.056   1.637   9.248  0.3917 -0.1157  0.3213
   49CHL1  H16A 6054   2.980   1.699   9.196  0.8471  0.7870  0.7084
   49CHL1  H16B 6055   3.154   1.665   9.204  0.2767  1.3782  0.9399
   49CHL1   C17 6056   3.018   1.486   9.227 -0.0350  0.1906 -0.0195
   49CHL1   H17 6057   3.117   1.437   9.241  0.2008  0.5758 -0.3410
   49CHL1   C13 6058   2.941   1.438   9.351  0.4503 -0.2419 -0.2686
   49CHL1   C18 6059   2.792   1.485   9.340  0.1764  0.6309  0.2580
   49CHL1  H18A 6060   2.729   1.454   9.254 -2.1142 -0.3134  2.1603
   49CHL1  H18B 6061   2.742   1.461   9.436 -0.8658  2.5873  0.2570
   49CHL1  H18C 6062   2.789   1.596   9.331  0.0027  0.5293 -1.1853
   49CHL1   C12 6063   2.959   1.294   9.401  0.9388  0.7760  0.0132
   49CHL1  H12A 6064   2.901   1.228   9.333  0.8804  1.8136 -0.9751
   49CHL1  H12B 6065   3.067   1.266   9.404  0.8751  0.5337  0.0454
   49CHL1   C11 6066   2.912   1.267   9.548  0.0982 -0.8373  0.4408
   49CHL1  H11A 6067   2.801   1.264   9.554 -0.2512  2.0493 -2.1335
   49CHL1  H11B 6068   2.953   1.173   9.592  0.7303  0.3571  2.5035
   49CHL1    C9 6069   2.967   1.375   9.648  0.2657 -0.5712 -0.2484
   49CHL1    H9 6070   3.072   1.346   9.669 -0.4334 -2.5619  0.6786
   49CHL1   C10 6071   2.911   1.367   9.791  0.4962  0.6071  0.0007
   49CHL1   C19 6072   2.758   1.343   9.792  0.0171 -0.5846  0.3061
   49CHL1  H19A 6073   2.705   1.370   9.887 -0.6658 -0.4966 -0.0904
   49CHL1  H19B 6074   2.709   1.414   9.721 -0.1104 -0.3437  0.6292
   49CHL1  H19C 6075   2.730   1.242   9.757  1.5090 -0.8523 -0.1421
   49CHL1    C1 6076   2.975   1.235   9.854 -0.3061  0.0620 -0.1514
   49CHL1   H1A 6077   2.926   1.155   9.794 -0.4562 -0.0021  0.0543
   49CHL1   H1B 6078   3.084   1.223   9.842  0.0284  0.8027  1.7102
   49CHL1    C2 6079   2.945   1.224  10.005 -0.2773 -0.0480 -0.1016
   49CHL1   H2A 6080   2.996   1.130  10.036 -2.2005 -0.8494  0.8383
   49CHL1   H2B 6081   2.841   1.199  10.035 -0.3994  1.4942  0.8326
   49CHL1   C20 6082   2.960   1.461   9.083  0.0465  0.3668 -0.4842
   49CHL1   H20 6083   2.869   1.523   9.069 -0.2547 -0.1085 -0.6678
   49CHL1   C21 6084   2.928   1.311   9.065 -0.2736  1.0406 -0.6074
   49CHL1  H21A 6085   2.895   1.287   8.961  0.6061 -0.7407 -0.5174
   49CHL1  H21B 6086   2.844   1.293   9.135 -0.6587 -0.6754 -1.4473
   49CHL1  H21C 6087   3.020   1.252   9.086 -0.5280  0.8619  0.0188
   49CHL1   C22 6088   3.048   1.518   8.968 -0.1001 -0.1468  0.2615
   49CHL1  H22A 6089   3.005   1.471   8.878  2.2743 -0.6534 -0.6973
   49CHL1  H22B 6090   3.019   1.625   8.978  1.4153  0.3101  0.1227
   49CHL1   C23 6091   3.209   1.504   8.979 -0.0943 -0.2832  0.1812
   49CHL1  H23A 6092   3.250   1.565   9.062 -0.9338 -1.5452  1.5705
   49CHL1  H23B 6093   3.236   1.398   8.999  2.6716  0.2972  0.0322
   49CHL1   C24 6094   3.280   1.545   8.839 -0.3797  0.1863 -0.6451
   49CHL1  H24A 6095   3.387   1.514   8.846 -0.3583 -0.4474 -2.9872
   49CHL1  H24B 6096   3.226   1.488   8.760 -0.6463  1.7156 -1.6014
   49CHL1   C25 6097   3.266   1.692   8.802  0.0913 -0.2830  0.2353
   49CHL1   H25 6098   3.157   1.708   8.790  0.0996  1.3110  1.9955
   49CHL1   C26 6099   3.309   1.785   8.911  0.4160  0.0370  0.5611
   49CHL1  H26A 6100   3.287   1.893   8.894  0.9683  0.1897  0.7931
   49CHL1  H26B 6101   3.268   1.765   9.013 -0.1377 -0.7867  0.1828
   49CHL1  H26C 6102   3.420   1.784   8.917  0.6575  0.3635 -2.5392
   49CHL1   C27 6103   3.338   1.722   8.672 -0.2187  0.2259  0.2577
   49CHL1  H27A 6104   3.442   1.682   8.676 -0.1405  0.2863 -0.9717
   49CHL1  H27B 6105   3.280   1.684   8.586 -1.2814  0.7738  0.7114
   49CHL1  H27C 6106   3.348   1.832   8.657 -0.9450  0.1694 -0.7165
   50CHL1    C3 6107   6.126   6.168  10.263  0.4636 -0.2660 -0.4544
   50CHL1    H3 6108   6.089   6.272  10.249  0.1536 -0.3846 -0.5297
   50CHL1    O3 6109   6.150   6.152  10.403  0.2660  0.4986 -0.6680
   50CHL1   H3' 6110   6.185   6.064  10.418 -3.3223 -0.9324  0.1248
   50CHL1    C4 6111   6.024   6.064  10.205  0.0491 -0.7380 -0.4609
   50CHL1   H4A 6112   6.055   5.962  10.238 -2.1891 -2.0320 -2.0831
   50CHL1   H4B 6113   5.929   6.078  10.260  0.6303  1.0512  0.1580
   50CHL1    C5 6114   6.005   6.066  10.059 -0.5194  0.4058  0.6104
   50CHL1    C6 6115   5.880   6.055  10.006  0.3071  0.7957 -0.5408
   50CHL1    H6 6116   5.796   6.049  10.077  1.9758  0.9550  1.5584
   50CHL1    C7 6117   5.864   6.044   9.858 -0.2342 -0.2251  0.0220
   50CHL1   H7A 6118   5.797   5.957   9.839  3.2179 -3.2308  0.4273
   50CHL1   H7B 6119   5.816   6.137   9.822  0.3761  0.7210  1.5600
   50CHL1    C8 6120   5.992   6.024   9.774 -0.3252  0.0158 -0.0944
   50CHL1    H8 6121   6.013   5.915   9.771 -1.6834 -0.4335  2.9683
   50CHL1   C14 6122   5.962   6.067   9.636 -0.7161  0.3801  1.1927
   50CHL1   H14 6123   5.931   6.174   9.641 -3.4639 -0.2678 -0.2312
   50CHL1   C15 6124   5.853   5.991   9.558 -0.1584  0.3666  0.1247
   50CHL1  H15A 6125   5.859   5.881   9.552 -1.0812  0.0446  3.2377
   50CHL1  H15B 6126   5.752   6.012   9.601 -0.6677 -0.6128 -0.5498
   50CHL1   C16 6127   5.866   6.048   9.418 -0.2893 -0.0917 -0.0987
   50CHL1  H16A 6128   5.863   5.961   9.349  1.8441  0.2836 -0.7388
   50CHL1  H16B 6129   5.784   6.119   9.399 -1.1544 -0.5312  1.7212
   50CHL1   C17 6130   6.010   6.117   9.416  0.9667  0.5427 -0.2656
   50CHL1   H17 6131   5.983   6.222   9.441 -1.8134  0.0667 -0.9371
   50CHL1   C13 6132   6.076   6.073   9.546  0.3410 -0.0947 -0.0711
   50CHL1   C18 6133   6.134   5.925   9.522  0.5275 -0.2633 -0.6109
   50CHL1  H18A 6134   6.190   5.877   9.605 -2.1859 -0.4898  1.2127
   50CHL1  H18B 6135   6.056   5.859   9.478  0.4876 -0.6088 -0.0194
   50CHL1  H18C 6136   6.216   5.945   9.450  0.3191  0.1110 -0.7463
   50CHL1   C12 6137   6.182   6.174   9.600  0.0054 -0.5170  0.2049
   50CHL1  H12A 6138   6.269   6.190   9.532 -0.9967 -0.6664 -1.1464
   50CHL1  H12B 6139   6.130   6.272   9.603 -0.2609 -0.6787  1.7840
   50CHL1   C11 6140   6.221   6.130   9.736 -0.1288 -0.0497 -0.2970
   50CHL1  H11A 6141   6.282   6.037   9.731  1.9140  1.1281  1.1884
   50CHL1  H11B 6142   6.285   6.212   9.774 -0.0216 -0.7151  1.0160
   50CHL1    C9 6143   6.103   6.118   9.833  0.7027  0.6711  0.5395
   50CHL1    H9 6144   6.054   6.217   9.834 -2.6013 -0.8050 -1.3617
   50CHL1   C10 6145   6.137   6.076   9.979  0.1930 -0.4544 -0.7609
   50CHL1   C19 6146   6.199   5.933   9.974 -0.3308 -0.2428  0.6477
   50CHL1  H19A 6147   6.163   5.871   9.889  1.5065  0.4729 -0.7341
   50CHL1  H19B 6148   6.306   5.946   9.951 -0.3821  0.9420  1.0138
   50CHL1  H19C 6149   6.203   5.887  10.075 -1.8180  1.6093  1.6332
   50CHL1    C1 6150   6.241   6.169  10.043 -0.6467  0.2011  0.2579
   50CHL1   H1A 6151   6.333   6.160   9.982 -1.5759 -2.8421 -0.8570
   50CHL1   H1B 6152   6.210   6.274  10.023 -0.2243  0.0161 -1.5646
   50CHL1    C2 6153   6.260   6.151  10.191  0.0712 -0.0538  0.3781
   50CHL1   H2A 6154   6.344   6.214  10.229 -2.3187  2.8736  1.2024
   50CHL1   H2B 6155   6.305   6.049  10.197 -0.5016 -0.6009 -2.7849
   50CHL1   C20 6156   6.088   6.121   9.289  0.1568 -0.4081  0.3795
   50CHL1   H20 6157   6.195   6.145   9.301 -0.1631  1.4961 -0.3116
   50CHL1   C21 6158   6.053   6.263   9.225 -0.0998  0.6563  0.7378
   50CHL1  H21A 6159   6.083   6.342   9.297 -1.0587  0.1518  1.7139
   50CHL1  H21B 6160   5.944   6.266   9.203 -0.3225  1.1497  1.8574
   50CHL1  H21C 6161   6.102   6.270   9.125 -0.2975 -4.3341  0.0637
   50CHL1   C22 6162   6.065   5.996   9.193 -0.5346 -0.4270  0.6276
   50CHL1  H22A 6163   6.104   5.912   9.254  0.5958 -0.3698  0.0160
   50CHL1  H22B 6164   5.962   5.983   9.154  0.0552 -1.3467 -0.6715
   50CHL1   C23 6165   6.152   5.997   9.062  0.3535  0.2636  0.5673
   50CHL1  H23A 6166   6.115   6.084   9.003  1.7655  1.3719  1.2562
   50CHL1  H23B 6167   6.261   6.009   9.075  0.1329  2.4397  0.7536
   50CHL1   C24 6168   6.141   5.871   8.974  0.3089  0.1827  0.1990
   50CHL1  H24A 6169   6.200   5.792   9.025 -0.4942  0.3827  1.4892
   50CHL1  H24B 6170   6.032   5.848   8.983  0.6435 -1.1486  1.2216
   50CHL1   C25 6171   6.191   5.884   8.825  0.4451  0.5792 -1.1971
   50CHL1   H25 6172   6.177   5.787   8.773  2.6590 -0.3634 -0.2098
   50CHL1   C26 6173   6.120   5.986   8.740 -0.0379  0.3497  0.1541
   50CHL1  H26A 6174   6.012   5.959   8.732 -0.3689  1.6898 -0.1853
   50CHL1  H26B 6175   6.132   6.091   8.774  0.5635  0.2319  0.3056
   50CHL1  H26C 6176   6.164   5.979   8.638  2.0880  2.8142  0.7951
   50CHL1   C27 6177   6.340   5.903   8.837 -0.0549  0.1186  0.7549
   50CHL1  H27A 6178   6.373   6.000   8.881  2.2662  0.9107 -2.3831
   50CHL1  H27B 6179   6.387   5.823   8.900  1.2905  1.2590  1.2485
   50CHL1  H27C 6180   6.384   5.889   8.736 -1.6197 -2.5455  0.3318
   51CHL1    C3 6181   4.567   0.597  10.126  0.7192 -0.5647  0.3374
   51CHL1    H3 6182   4.608   0.688  10.176 -1.5389  1.3800 -1.1114
   51CHL1    O3 6183   4.607   0.485  10.207 -0.0618 -0.5399  0.2595
   51CHL1   H3' 6184   4.600   0.419  10.138  0.0010 -0.0302 -0.2360
   51CHL1    C4 6185   4.411   0.610  10.116  1.1824  0.0701  0.0452
   51CHL1   H4A 6186   4.376   0.512  10.077  1.8653 -0.5021  0.8393
   51CHL1   H4B 6187   4.357   0.624  10.212 -0.6551 -1.0056 -0.7921
   51CHL1    C5 6188   4.371   0.721  10.023 -0.7101  0.3641  0.5977
   51CHL1    C6 6189   4.289   0.816  10.056  0.1345  0.1523 -0.6448
   51CHL1    H6 6190   4.241   0.824  10.154 -1.7470 -1.5571 -1.3451
   51CHL1    C7 6191   4.235   0.924   9.960  0.3696  0.5775  0.1242
   51CHL1   H7A 6192   4.124   0.926   9.970  0.2437 -3.0709  0.8247
   51CHL1   H7B 6193   4.278   1.024   9.981  1.2085 -0.0513  1.5363
   51CHL1    C8 6194   4.276   0.896   9.809  0.6083  0.1809 -0.7084
   51CHL1    H8 6195   4.212   0.811   9.776 -0.0780  0.1266  0.6685
   51CHL1   C14 6196   4.251   1.021   9.718  0.7595 -0.4710 -0.3908
   51CHL1   H14 6197   4.325   1.093   9.758  1.8331 -0.9205 -1.4989
   51CHL1   C15 6198   4.117   1.099   9.736  1.1880  0.0781 -0.0282
   51CHL1  H15A 6199   4.038   1.021   9.734 -0.1271  1.1707  2.9341
   51CHL1  H15B 6200   4.105   1.154   9.831 -3.0247  0.5530 -0.6522
   51CHL1   C16 6201   4.126   1.186   9.607  0.3842  0.6631  0.5304
   51CHL1  H16A 6202   4.031   1.165   9.552  1.2542 -1.7636 -0.1359
   51CHL1  H16B 6203   4.127   1.295   9.629  0.3493  0.7797 -0.0180
   51CHL1   C17 6204   4.250   1.146   9.517  1.0132  0.0796  0.5178
   51CHL1   H17 6205   4.329   1.216   9.551  2.5745 -0.5178 -1.6229
   51CHL1   C13 6206   4.289   1.008   9.571  0.0940  0.4523  0.4742
   51CHL1   C18 6207   4.199   0.907   9.499 -0.2161  0.7395  0.0238
   51CHL1  H18A 6208   4.233   0.888   9.395 -2.5214  0.3708 -0.7363
   51CHL1  H18B 6209   4.198   0.810   9.553 -2.9924  1.9664  2.4958
   51CHL1  H18C 6210   4.089   0.928   9.500 -0.7607 -1.4708 -2.6280
   51CHL1   C12 6211   4.436   0.960   9.569 -0.1612  0.1571  0.3131
   51CHL1  H12A 6212   4.476   0.953   9.466 -1.2752  0.0196 -0.1292
   51CHL1  H12B 6213   4.491   1.042   9.620 -2.7320  1.5929  0.9825
   51CHL1   C11 6214   4.456   0.835   9.645  0.3824  0.3632 -0.2161
   51CHL1  H11A 6215   4.392   0.756   9.602 -0.3618  1.5902 -1.4594
   51CHL1  H11B 6216   4.558   0.795   9.626  0.0614 -0.1243 -0.9189
   51CHL1    C9 6217   4.416   0.847   9.798  0.0459 -0.2625  0.3372
   51CHL1    H9 6218   4.484   0.927   9.836 -0.1328 -0.6773  1.5746
   51CHL1   C10 6219   4.442   0.720   9.889 -0.2677 -0.3433  0.4665
   51CHL1   C19 6220   4.386   0.595   9.813  0.8324 -0.2367  0.1105
   51CHL1  H19A 6221   4.276   0.591   9.803  0.6142  0.6328  1.8289
   51CHL1  H19B 6222   4.429   0.597   9.711 -0.4208  0.8426 -0.4310
   51CHL1  H19C 6223   4.427   0.505   9.863 -0.9348 -1.9189 -1.3090
   51CHL1    C1 6224   4.601   0.707   9.906 -0.4816 -0.1732  0.2229
   51CHL1   H1A 6225   4.649   0.702   9.806  1.0559  1.6944  0.7839
   51CHL1   H1B 6226   4.626   0.799   9.964  0.5076 -0.3824  0.1481
   51CHL1    C2 6227   4.639   0.589   9.995 -0.6617 -0.5425 -0.0414
   51CHL1   H2A 6228   4.746   0.601  10.024 -0.6230 -1.5366  0.2858
   51CHL1   H2B 6229   4.631   0.494   9.939 -2.7506 -0.9094  0.8034
   51CHL1   C20 6230   4.224   1.159   9.367  0.9999  0.1828  0.3296
   51CHL1   H20 6231   4.137   1.099   9.331  1.4972 -0.8613  0.8244
   51CHL1   C21 6232   4.353   1.115   9.287  0.2574 -0.6157 -0.6416
   51CHL1  H21A 6233   4.356   1.004   9.295  3.0362 -0.4333  3.0301
   51CHL1  H21B 6234   4.449   1.158   9.321  0.0480  0.7534 -1.7121
   51CHL1  H21C 6235   4.337   1.146   9.181  1.9125  2.3423 -0.1386
   51CHL1   C22 6236   4.198   1.305   9.326  0.2700  0.2873  0.1472
   51CHL1  H22A 6237   4.116   1.348   9.388 -0.7910  0.8812 -1.5918
   51CHL1  H22B 6238   4.285   1.365   9.360  0.4778  0.1290 -0.1081
   51CHL1   C23 6239   4.153   1.339   9.182  1.2955  0.3015  0.0094
   51CHL1  H23A 6240   4.219   1.299   9.102  0.1363 -0.0345 -0.7980
   51CHL1  H23B 6241   4.066   1.271   9.176  0.4872  1.2101  1.0293
   51CHL1   C24 6242   4.124   1.483   9.163 -0.3470  0.0302  0.1942
   51CHL1  H24A 6243   4.059   1.506   9.250 -3.0448 -0.9830 -1.4032
   51CHL1  H24B 6244   4.216   1.544   9.174  0.8233 -1.2243 -1.9001
   51CHL1   C25 6245   4.041   1.519   9.038  0.0906 -0.0892 -0.8181
   51CHL1   H25 6246   3.950   1.456   9.032 -0.0135  0.1734 -2.6884
   51CHL1   C26 6247   4.013   1.672   9.032  0.0850 -0.7667  0.6676
   51CHL1  H26A 6248   4.102   1.737   9.044 -0.3463  0.1152 -0.7112
   51CHL1  H26B 6249   3.953   1.710   8.946  1.2524  2.3169  1.1122
   51CHL1  H26C 6250   3.950   1.693   9.121  2.2007  2.2834  1.5935
   51CHL1   C27 6251   4.125   1.473   8.911 -0.3159  0.0784 -0.1806
   51CHL1  H27A 6252   4.221   1.526   8.895  0.3686 -1.0222  0.1469
   51CHL1  H27B 6253   4.158   1.367   8.914  1.0244  0.4907  0.5827
   51CHL1  H27C 6254   4.058   1.488   8.824 -2.0350  3.2275  1.5148
   52CHL1    C3 6255   2.785   0.895   9.897  0.2783 -0.8621 -0.1950
   52CHL1    H3 6256   2.834   0.995   9.891  0.9010 -1.1116  0.5491
   52CHL1    O3 6257   2.765   0.870  10.034 -0.2041 -0.0912  0.0933
   52CHL1   H3' 6258   2.719   0.948  10.067  1.0699  0.6114  0.2980
   52CHL1    C4 6259   2.649   0.905   9.828 -0.1695 -0.3262  0.9832
   52CHL1   H4A 6260   2.594   0.811   9.850  0.0540 -0.1247  2.4966
   52CHL1   H4B 6261   2.591   0.996   9.856  1.4249  1.9564 -2.3787
   52CHL1    C5 6262   2.653   0.925   9.672  0.1849 -0.4855 -0.2811
   52CHL1    C6 6263   2.599   1.035   9.611  0.3580  0.6614 -0.2713
   52CHL1    H6 6264   2.535   1.113   9.655  0.9115  2.0490 -1.8001
   52CHL1    C7 6265   2.613   1.055   9.462 -0.1615 -0.4707  0.0644
   52CHL1   H7A 6266   2.517   1.089   9.417  0.9307 -1.1655 -3.0771
   52CHL1   H7B 6267   2.689   1.131   9.436 -1.3156  0.9302  0.6419
   52CHL1    C8 6268   2.652   0.924   9.383 -0.1208 -0.7259 -0.4407
   52CHL1    H8 6269   2.567   0.853   9.370 -0.8425 -0.0183  0.2734
   52CHL1   C14 6270   2.696   0.955   9.246 -0.6147 -0.1937  0.4869
   52CHL1   H14 6271   2.780   1.027   9.260 -0.4353 -0.3523  0.2166
   52CHL1   C15 6272   2.605   1.051   9.160  0.0224  0.4936  0.8213
   52CHL1  H15A 6273   2.502   1.025   9.192 -0.0902  0.1390  0.1710
   52CHL1  H15B 6274   2.632   1.156   9.187 -3.1030  2.0455 -1.4717
   52CHL1   C16 6275   2.640   1.020   9.010 -0.0322 -0.5881  0.2246
   52CHL1  H16A 6276   2.557   0.962   8.964 -0.2459  0.1538 -0.3406
   52CHL1  H16B 6277   2.666   1.109   8.949  0.3527 -0.2231  0.9095
   52CHL1   C17 6278   2.758   0.915   9.020 -0.0007 -0.1411 -0.0013
   52CHL1   H17 6279   2.855   0.967   9.037 -0.1547  0.3710 -0.6406
   52CHL1   C13 6280   2.738   0.836   9.155  0.0884 -0.3066  0.8574
   52CHL1   C18 6281   2.626   0.735   9.128 -0.2080  0.3046  0.2479
   52CHL1  H18A 6282   2.656   0.646   9.069 -0.2789 -0.1226  0.8486
   52CHL1  H18B 6283   2.569   0.701   9.217  0.1843  1.6079  1.0348
   52CHL1  H18C 6284   2.542   0.783   9.073  0.8935  1.6653 -0.3126
   52CHL1   C12 6285   2.854   0.765   9.220 -0.2453 -0.1432 -0.2821
   52CHL1  H12A 6286   2.871   0.668   9.169  1.1316  0.2903 -0.6939
   52CHL1  H12B 6287   2.948   0.823   9.217 -0.0247 -0.4054  0.9594
   52CHL1   C11 6288   2.810   0.729   9.365  0.2265  0.4711 -0.1807
   52CHL1  H11A 6289   2.727   0.656   9.358 -0.0076  0.4997  1.7578
   52CHL1  H11B 6290   2.891   0.670   9.413  0.4062  2.1836  1.7608
   52CHL1    C9 6291   2.764   0.851   9.455 -0.2043  0.2291  0.2587
   52CHL1    H9 6292   2.853   0.917   9.455  1.1220 -1.4625  1.6887
   52CHL1   C10 6293   2.739   0.816   9.603  0.1246 -0.1933 -0.4353
   52CHL1   C19 6294   2.667   0.684   9.611 -0.7849  0.2429 -0.1269
   52CHL1  H19A 6295   2.640   0.664   9.716  0.7650  0.5659  0.3649
   52CHL1  H19B 6296   2.571   0.693   9.556 -1.7331  0.1590  1.4840
   52CHL1  H19C 6297   2.736   0.600   9.585 -0.9192 -0.2443  1.0565
   52CHL1    C1 6298   2.879   0.808   9.676  0.8932 -0.2957 -0.2085
   52CHL1   H1A 6299   2.934   0.720   9.634 -1.0978 -1.1587 -1.1889
   52CHL1   H1B 6300   2.938   0.899   9.651 -0.2391  0.5474  0.1221
   52CHL1    C2 6301   2.870   0.787   9.824  0.1472  0.2623  0.5322
   52CHL1   H2A 6302   2.967   0.791   9.878  0.5039  4.3764 -0.0680
   52CHL1   H2B 6303   2.819   0.690   9.842 -1.7377  1.1266  0.1545
   52CHL1   C20 6304   2.783   0.839   8.882 -0.5971  0.0845  0.0562
   52CHL1   H20 6305   2.693   0.774   8.871  0.2803 -1.5240  1.6936
   52CHL1   C21 6306   2.909   0.746   8.906 -0.2398  0.4118  0.2676
   52CHL1  H21A 6307   2.876   0.653   8.957 -1.9091  0.3075 -0.9453
   52CHL1  H21B 6308   2.990   0.791   8.968 -0.4003 -1.1715  1.7061
   52CHL1  H21C 6309   2.955   0.702   8.815 -1.6284 -1.1283  0.2679
   52CHL1   C22 6310   2.797   0.929   8.757 -0.4563  0.0297  0.1710
   52CHL1  H22A 6311   2.810   0.851   8.678 -1.6205  0.9424 -0.9552
   52CHL1  H22B 6312   2.700   0.980   8.743  0.2282  1.5041  0.6131
   52CHL1   C23 6313   2.902   1.038   8.763  0.8852 -1.1746  0.5275
   52CHL1  H23A 6314   2.867   1.131   8.812 -1.0226  0.5926 -3.6248
   52CHL1  H23B 6315   2.992   1.008   8.821  1.2019 -1.6252 -0.1793
   52CHL1   C24 6316   2.933   1.079   8.616  0.4315  0.1337 -0.1563
   52CHL1  H24A 6317   2.996   1.005   8.561  0.1049  0.1269 -0.5251
   52CHL1  H24B 6318   2.834   1.085   8.566  0.7667  0.2630 -0.8214
   52CHL1   C25 6319   2.997   1.225   8.608 -0.1221  0.0638  0.8651
   52CHL1   H25 6320   3.064   1.220   8.696  0.3524  1.2352  0.5827
   52CHL1   C26 6321   3.085   1.237   8.484  0.1664 -0.5050  0.3459
   52CHL1  H26A 6322   3.033   1.240   8.386  0.5494 -2.2662  0.0386
   52CHL1  H26B 6323   3.143   1.332   8.482 -0.9811  0.1930 -0.5364
   52CHL1  H26C 6324   3.157   1.152   8.481  1.7627  0.8332 -0.7858
   52CHL1   C27 6325   2.893   1.338   8.626  0.1037  0.2501 -0.4385
   52CHL1  H27A 6326   2.933   1.441   8.636 -1.3996  0.9247 -1.0781
   52CHL1  H27B 6327   2.818   1.337   8.544  0.7631  1.8778 -1.0942
   52CHL1  H27C 6328   2.819   1.319   8.708  1.6895  0.8030  1.1971
   53CHL1    C3 6329   5.295   5.456  10.329  0.4795  0.2363  0.2681
   53CHL1    H3 6330   5.321   5.563  10.313 -2.5051  0.7265 -2.1936
   53CHL1    O3 6331   5.308   5.420  10.468  0.4861 -0.5285 -0.0465
   53CHL1   H3' 6332   5.296   5.325  10.478 -2.2455 -0.2768 -0.0114
   53CHL1    C4 6333   5.146   5.447  10.286 -0.0403  0.0697 -1.0573
   53CHL1   H4A 6334   5.109   5.347  10.319  3.5233 -0.5391  1.6521
   53CHL1   H4B 6335   5.088   5.525  10.341  0.0806 -0.4636 -0.1575
   53CHL1    C5 6336   5.131   5.460  10.138 -0.4224 -0.3198  0.5913
   53CHL1    C6 6337   5.040   5.550  10.091  0.1330  0.7407 -0.3761
   53CHL1    H6 6338   4.961   5.596  10.152 -1.8728 -2.4511 -0.2773
   53CHL1    C7 6339   5.019   5.577   9.945  0.0091  0.5934  0.2783
   53CHL1   H7A 6340   4.912   5.583   9.916  0.3810 -0.3103 -1.4252
   53CHL1   H7B 6341   5.072   5.669   9.911  1.9307 -0.9149 -0.9816
   53CHL1    C8 6342   5.070   5.459   9.855 -0.1129  0.4922 -0.0189
   53CHL1    H8 6343   5.004   5.370   9.865 -1.8358  1.5942 -1.1971
   53CHL1   C14 6344   5.079   5.518   9.712  0.2854  0.1735 -0.6006
   53CHL1   H14 6345   5.143   5.608   9.719  2.0788 -1.1001  0.4227
   53CHL1   C15 6346   4.950   5.560   9.631  0.5360  0.4177  0.0231
   53CHL1  H15A 6347   4.867   5.487   9.624 -0.0843  1.2395 -1.7909
   53CHL1  H15B 6348   4.899   5.653   9.664 -0.3562 -0.2836  0.6893
   53CHL1   C16 6349   5.004   5.577   9.485  0.6785  0.1317 -0.2549
   53CHL1  H16A 6350   4.934   5.542   9.405  2.7518 -1.9367 -1.2705
   53CHL1  H16B 6351   5.023   5.684   9.463 -2.0736  0.6311 -0.6139
   53CHL1   C17 6352   5.141   5.495   9.473 -0.1102 -0.4874  0.1429
   53CHL1   H17 6353   5.217   5.574   9.461  0.1049 -0.5108  1.2416
   53CHL1   C13 6354   5.152   5.426   9.615 -0.4660  0.0051  1.0322
   53CHL1   C18 6355   5.071   5.293   9.602  0.2473  0.2970 -1.0650
   53CHL1  H18A 6356   4.966   5.306   9.570 -1.4696 -0.0852  3.6479
   53CHL1  H18B 6357   5.120   5.212   9.543  1.8634  0.5900 -0.1775
   53CHL1  H18C 6358   5.058   5.247   9.702  1.3614 -1.1318 -1.5297
   53CHL1   C12 6359   5.302   5.410   9.664 -0.2743  0.7485 -0.0049
   53CHL1  H12A 6360   5.358   5.347   9.592  1.2373  1.0578  0.8744
   53CHL1  H12B 6361   5.345   5.512   9.668  3.1912 -0.5281 -1.4232
   53CHL1   C11 6362   5.301   5.342   9.801 -0.3650  0.1282  0.5327
   53CHL1  H11A 6363   5.258   5.239   9.806  0.8113 -0.4962 -1.3365
   53CHL1  H11B 6364   5.404   5.338   9.842 -0.0676  0.2143 -0.1918
   53CHL1    C9 6365   5.217   5.423   9.902 -0.1186 -0.4284 -0.7260
   53CHL1    H9 6366   5.268   5.522   9.909  1.7764 -1.2347 -2.1849
   53CHL1   C10 6367   5.221   5.378  10.053 -0.6232  0.4546  1.3143
   53CHL1   C19 6368   5.170   5.229  10.057  0.3677  0.1986  0.0845
   53CHL1  H19A 6369   5.234   5.168   9.990 -0.4269  0.3853 -0.8733
   53CHL1  H19B 6370   5.175   5.177  10.155 -0.1318 -0.3477 -0.1687
   53CHL1  H19C 6371   5.060   5.223  10.040  0.7991 -2.6886 -2.5288
   53CHL1    C1 6372   5.363   5.383  10.103 -0.3046 -0.4526 -0.4373
   53CHL1   H1A 6373   5.438   5.312  10.062  1.0285 -0.2514  1.5226
   53CHL1   H1B 6374   5.406   5.485  10.095 -0.5691 -0.1349  1.6425
   53CHL1    C2 6375   5.374   5.352  10.253  0.1025 -0.0342 -0.9977
   53CHL1   H2A 6376   5.481   5.364  10.280 -0.3103 -0.1542  0.8186
   53CHL1   H2B 6377   5.343   5.247  10.276 -0.5492  0.4366  0.4068
   53CHL1   C20 6378   5.138   5.408   9.345 -0.5303 -0.5696  0.2032
   53CHL1   H20 6379   5.055   5.335   9.357 -0.2799 -0.7009  1.2022
   53CHL1   C21 6380   5.269   5.332   9.328 -0.3341  0.4042  0.4544
   53CHL1  H21A 6381   5.275   5.249   9.402  1.3130 -0.4284 -0.5254
   53CHL1  H21B 6382   5.352   5.404   9.343  0.3465 -0.8704  3.4272
   53CHL1  H21C 6383   5.263   5.292   9.224 -1.7999  0.4514  0.5020
   53CHL1   C22 6384   5.115   5.494   9.220 -0.3161  0.0228  0.1166
   53CHL1  H22A 6385   5.050   5.580   9.244 -1.3002 -0.8896  0.8184
   53CHL1  H22B 6386   5.215   5.512   9.176 -0.2154  1.4139  0.8763
   53CHL1   C23 6387   5.040   5.421   9.115 -0.9251 -0.4053  0.3771
   53CHL1  H23A 6388   5.097   5.329   9.089  1.3739  1.0508 -0.0189
   53CHL1  H23B 6389   4.939   5.384   9.144 -1.6158  0.4567 -0.8310
   53CHL1   C24 6390   5.031   5.504   8.981 -0.7130  0.3126  0.0302
   53CHL1  H24A 6391   4.967   5.591   9.007  0.0959  0.8886  0.1304
   53CHL1  H24B 6392   5.129   5.544   8.947 -1.3710  0.8763 -1.2545
   53CHL1   C25 6393   4.973   5.430   8.859 -0.2690 -0.0751 -0.1951
   53CHL1   H25 6394   4.879   5.382   8.895 -1.6328  1.4395 -1.5767
   53CHL1   C26 6395   4.935   5.532   8.754 -0.3770  1.3389 -0.2378
   53CHL1  H26A 6396   5.023   5.588   8.717 -1.5432  2.8805 -0.7844
   53CHL1  H26B 6397   4.884   5.477   8.672  1.4858 -1.5727  0.3841
   53CHL1  H26C 6398   4.855   5.595   8.800 -0.5496  0.7091  0.3476
   53CHL1   C27 6399   5.066   5.315   8.811 -0.4947  0.1667  0.4986
   53CHL1  H27A 6400   5.164   5.352   8.774  0.2052  0.2172  2.2981
   53CHL1  H27B 6401   5.095   5.245   8.892 -0.9936 -0.1127  0.4414
   53CHL1  H27C 6402   5.021   5.247   8.735  1.0939  1.0437 -1.3277
   54CHL1    C3 6403   5.985   0.857   9.975 -0.3223 -0.1082 -0.1265
   54CHL1    H3 6404   5.875   0.861   9.986 -0.3537 -0.3375 -0.3593
   54CHL1    O3 6405   6.043   0.903  10.100  0.0420 -0.0537 -0.1718
   54CHL1   H3' 6406   5.975   0.955  10.143  1.1294 -0.0204  1.5938
   54CHL1    C4 6407   6.043   0.713   9.951  0.1264 -0.6325  0.3955
   54CHL1   H4A 6408   6.153   0.723   9.937 -0.2521  1.9319 -1.2109
   54CHL1   H4B 6409   6.021   0.640  10.033 -2.5676 -0.7504 -0.3595
   54CHL1    C5 6410   5.990   0.656   9.824  0.1539 -1.3200  0.1652
   54CHL1    C6 6411   5.922   0.537   9.812  0.0210 -0.3194  0.1869
   54CHL1    H6 6412   5.901   0.480   9.904  0.4122  0.2556  0.6377
   54CHL1    C7 6413   5.871   0.479   9.690  0.1239  0.6135 -0.1980
   54CHL1   H7A 6414   5.890   0.370   9.691  1.9597  0.7931 -2.9131
   54CHL1   H7B 6415   5.761   0.494   9.691 -0.0363 -0.4347 -0.7982
   54CHL1    C8 6416   5.911   0.553   9.560  0.2142  0.0394  0.2584
   54CHL1    H8 6417   6.015   0.523   9.537 -0.0215 -0.4800 -0.1734
   54CHL1   C14 6418   5.821   0.524   9.439  0.5386 -0.5344  0.2320
   54CHL1   H14 6419   5.725   0.573   9.464  0.0710 -0.9292 -0.7550
   54CHL1   C15 6420   5.772   0.378   9.409 -0.0729  0.1264  0.4873
   54CHL1  H15A 6421   5.857   0.308   9.396 -2.3442 -2.7611 -0.1111
   54CHL1  H15B 6422   5.693   0.339   9.477  0.7151 -2.8815 -0.1486
   54CHL1   C16 6423   5.731   0.387   9.263 -0.2596  0.5933 -0.0081
   54CHL1  H16A 6424   5.791   0.313   9.206 -0.9650  0.4942 -0.6557
   54CHL1  H16B 6425   5.624   0.359   9.253 -0.8231  1.9169  1.8199
   54CHL1   C17 6426   5.754   0.539   9.217  0.2312 -0.0774 -0.1481
   54CHL1   H17 6427   5.662   0.592   9.247  0.4549 -0.0254  0.4649
   54CHL1   C13 6428   5.870   0.592   9.307  0.2816 -0.8402  0.0038
   54CHL1   C18 6429   6.008   0.534   9.267  0.0496 -0.1768 -0.3698
   54CHL1  H18A 6430   6.012   0.425   9.285  0.5104 -0.1212 -0.1132
   54CHL1  H18B 6431   6.051   0.570   9.171 -0.2367 -1.7373 -1.1121
   54CHL1  H18C 6432   6.071   0.578   9.347 -0.3808 -1.4362  0.7000
   54CHL1   C12 6433   5.863   0.742   9.318  0.4028  0.4553 -0.3627
   54CHL1  H12A 6434   5.901   0.786   9.224  0.3510 -1.8231 -1.4996
   54CHL1  H12B 6435   5.760   0.785   9.325  1.2752  2.6831 -0.4561
   54CHL1   C11 6436   5.938   0.795   9.447  0.1455 -0.0205  0.3087
   54CHL1  H11A 6437   6.044   0.807   9.416  0.8306 -0.0103  2.4967
   54CHL1  H11B 6438   5.903   0.895   9.482 -3.3575 -1.5610  1.5899
   54CHL1    C9 6439   5.922   0.708   9.580  0.2463 -1.1752  0.5155
   54CHL1    H9 6440   5.818   0.727   9.612  0.8277 -1.2075  2.5815
   54CHL1   C10 6441   6.013   0.754   9.697  0.4359  0.9922  0.0808
   54CHL1   C19 6442   6.160   0.731   9.652 -0.4040 -0.1631 -0.2567
   54CHL1  H19A 6443   6.235   0.769   9.725  0.7203 -1.7206 -0.5467
   54CHL1  H19B 6444   6.182   0.622   9.651 -1.7098 -0.4356 -0.7119
   54CHL1  H19C 6445   6.180   0.767   9.549  3.7587 -0.4132  0.3002
   54CHL1    C1 6446   5.988   0.901   9.727 -0.2006 -0.0005  0.7171
   54CHL1   H1A 6447   6.041   0.963   9.652  1.7942 -0.4788  1.6647
   54CHL1   H1B 6448   5.879   0.922   9.720  0.0387  1.3128  0.6429
   54CHL1    C2 6449   6.040   0.948   9.864  0.0121 -0.3281 -0.4395
   54CHL1   H2A 6450   5.997   1.048   9.890  0.7019 -0.2194  0.3072
   54CHL1   H2B 6451   6.150   0.939   9.864  0.0985  0.4968 -1.2411
   54CHL1   C20 6452   5.775   0.562   9.066  0.4653  0.0644 -0.1210
   54CHL1   H20 6453   5.834   0.656   9.059  1.5505 -0.6230 -0.5534
   54CHL1   C21 6454   5.631   0.601   9.014  0.5578  0.5156  0.0287
   54CHL1  H21A 6455   5.643   0.623   8.906 -0.2663 -3.1817 -0.9635
   54CHL1  H21B 6456   5.584   0.692   9.057  0.5259  1.6879 -2.3324
   54CHL1  H21C 6457   5.567   0.510   9.017  1.7853 -0.4906 -2.2139
   54CHL1   C22 6458   5.844   0.451   8.983  0.4195 -0.8987  0.0114
   54CHL1  H22A 6459   5.952   0.455   9.010  0.1929  1.4970  0.7777
   54CHL1  H22B 6460   5.795   0.353   9.002 -0.4701 -0.1083  2.0850
   54CHL1   C23 6461   5.830   0.472   8.834 -0.8413  0.4627 -0.2766
   54CHL1  H23A 6462   5.738   0.427   8.793  0.2866 -1.4785 -0.7792
   54CHL1  H23B 6463   5.827   0.581   8.813 -0.3552  0.0436 -2.7988
   54CHL1   C24 6464   5.939   0.422   8.741  0.2714 -0.2002  0.0347
   54CHL1  H24A 6465   5.945   0.311   8.736  1.1855 -0.1736  0.3372
   54CHL1  H24B 6466   5.913   0.457   8.638  0.8749  0.8356  0.2144
   54CHL1   C25 6467   6.086   0.475   8.770  0.1070 -0.2052 -0.0961
   54CHL1   H25 6468   6.106   0.437   8.872 -0.3881 -0.2148  0.0007
   54CHL1   C26 6469   6.192   0.413   8.677 -0.3021 -0.4485  0.4737
   54CHL1  H26A 6470   6.206   0.304   8.692  0.6063 -0.8136 -2.4247
   54CHL1  H26B 6471   6.147   0.414   8.575 -0.6822  1.4809  0.6180
   54CHL1  H26C 6472   6.289   0.466   8.674 -0.2229 -0.4253  2.4563
   54CHL1   C27 6473   6.094   0.631   8.766  0.1613  0.2983  0.5242
   54CHL1  H27A 6474   6.035   0.684   8.844  1.0376  0.2440  1.2362
   54CHL1  H27B 6475   6.193   0.679   8.778 -0.4606  1.6010  0.6642
   54CHL1  H27C 6476   6.068   0.658   8.661 -0.3013 -2.4622 -0.1493
   55CHL1    C3 6477   4.927   4.893   9.932 -0.4357 -0.3114  0.1055
   55CHL1    H3 6478   4.943   4.784   9.938 -0.5797 -0.2955  1.0185
   55CHL1    O3 6479   4.940   4.951  10.059 -0.4896 -0.2694 -0.2016
   55CHL1   H3' 6480   4.884   5.029  10.066 -0.4450 -0.3718  1.5552
   55CHL1    C4 6481   5.031   4.958   9.842  0.4814  0.5557  0.1301
   55CHL1   H4A 6482   5.013   5.068   9.845 -0.0700  0.4441  1.1664
   55CHL1   H4B 6483   5.137   4.949   9.875  0.6527  0.7607 -0.3412
   55CHL1    C5 6484   5.018   4.905   9.701  0.2530  0.4733 -0.0188
   55CHL1    C6 6485   5.122   4.862   9.631  0.1624  0.0858 -0.2637
   55CHL1    H6 6486   5.221   4.874   9.677  0.4530  4.6705 -1.6411
   55CHL1    C7 6487   5.113   4.829   9.491 -0.4440 -0.0097  0.0063
   55CHL1   H7A 6488   5.207   4.851   9.436  0.3776  0.7777  1.6609
   55CHL1   H7B 6489   5.103   4.718   9.495 -2.2584  0.1452  0.8122
   55CHL1    C8 6490   4.986   4.867   9.410  0.3708 -0.9838 -0.3148
   55CHL1    H8 6491   5.010   4.974   9.391  0.6858 -0.9096  0.4528
   55CHL1   C14 6492   4.974   4.811   9.276  0.7823 -0.1260  0.0846
   55CHL1   H14 6493   4.962   4.705   9.308  0.2179  0.4760  2.0048
   55CHL1   C15 6494   5.091   4.820   9.180 -0.1122 -0.5637 -0.1640
   55CHL1  H15A 6495   5.150   4.913   9.185 -0.3145 -0.4422  0.0041
   55CHL1  H15B 6496   5.162   4.738   9.202 -0.0805 -0.0456  1.8427
   55CHL1   C16 6497   5.031   4.810   9.037  0.4123  0.5166  0.1594
   55CHL1  H16A 6498   5.056   4.901   8.978  1.2476  0.4938  0.4593
   55CHL1  H16B 6499   5.075   4.721   8.988 -3.4884 -1.6405  0.2597
   55CHL1   C17 6500   4.875   4.797   9.059  0.4678  0.2866  0.3210
   55CHL1   H17 6501   4.855   4.688   9.069  0.0346 -0.1111 -3.3971
   55CHL1   C13 6502   4.844   4.858   9.197 -0.6750 -0.3951 -0.4720
   55CHL1   C18 6503   4.837   5.012   9.179  0.2913 -0.1335  0.8360
   55CHL1  H18A 6504   4.740   5.029   9.127 -0.3138 -1.0932  1.6402
   55CHL1  H18B 6505   4.821   5.064   9.276  2.8780 -3.5858  3.3386
   55CHL1  H18C 6506   4.916   5.054   9.113 -0.7348  1.5014  0.5720
   55CHL1   C12 6507   4.727   4.809   9.279  0.5121  0.3738  0.6334
   55CHL1  H12A 6508   4.635   4.852   9.236  0.8117  2.1223  1.6419
   55CHL1  H12B 6509   4.736   4.699   9.267  0.6400  0.3719  0.7371
   55CHL1   C11 6510   4.733   4.855   9.430  0.0407 -0.3411 -0.2655
   55CHL1  H11A 6511   4.716   4.965   9.433 -1.2238 -0.5441  0.5527
   55CHL1  H11B 6512   4.642   4.818   9.481  0.6328 -2.4818 -0.6713
   55CHL1    C9 6513   4.867   4.833   9.498  0.1387  0.1624 -0.4998
   55CHL1    H9 6514   4.876   4.723   9.511 -2.5130  0.0355  1.0289
   55CHL1   C10 6515   4.877   4.905   9.644 -0.3713 -1.1368  0.5487
   55CHL1   C19 6516   4.845   5.059   9.623  0.1228 -0.3301  0.5581
   55CHL1  H19A 6517   4.740   5.071   9.590 -0.1500 -1.3804  0.9898
   55CHL1  H19B 6518   4.867   5.120   9.713 -0.0124  0.5223  0.0230
   55CHL1  H19C 6519   4.909   5.094   9.539  0.7981 -3.7574 -0.5563
   55CHL1    C1 6520   4.776   4.838   9.741  0.3014 -0.1738  0.6938
   55CHL1   H1A 6521   4.673   4.840   9.700  1.4660  1.9871 -2.5970
   55CHL1   H1B 6522   4.804   4.730   9.743  1.0220 -0.0048  0.2708
   55CHL1    C2 6523   4.782   4.895   9.883 -0.3350  0.6783  0.2727
   55CHL1   H2A 6524   4.725   4.834   9.955 -0.1997  0.3013  0.0619
   55CHL1   H2B 6525   4.746   5.000   9.876  1.1681  1.1348 -1.7805
   55CHL1   C20 6526   4.797   4.838   8.931 -0.2134  0.4049 -0.2306
   55CHL1   H20 6527   4.821   4.944   8.907 -2.0604  1.4984  2.2631
   55CHL1   C21 6528   4.645   4.831   8.950  0.0916 -0.1723  0.0314
   55CHL1  H21A 6529   4.594   4.827   8.851 -1.1026 -0.0968  0.6277
   55CHL1  H21B 6530   4.608   4.922   9.001  1.5492  1.2102 -1.2759
   55CHL1  H21C 6531   4.616   4.742   9.011  0.0846  1.5947  2.7759
   55CHL1   C22 6532   4.834   4.755   8.805  0.4084  0.1637 -0.0290
   55CHL1  H22A 6533   4.782   4.801   8.718 -0.8583 -0.6898  0.2617
   55CHL1  H22B 6534   4.944   4.758   8.787  0.7198 -0.6896  1.5764
   55CHL1   C23 6535   4.794   4.608   8.802 -0.1676  0.2910 -0.5290
   55CHL1  H23A 6536   4.844   4.570   8.893 -0.5446  2.3717  0.6130
   55CHL1  H23B 6537   4.686   4.601   8.825  0.0369  0.7801  0.6135
   55CHL1   C24 6538   4.819   4.535   8.677  0.4909  0.7018  0.1655
   55CHL1  H24A 6539   4.787   4.595   8.588  1.1521 -1.0426 -1.3176
   55CHL1  H24B 6540   4.929   4.523   8.664  0.2971 -0.2875 -0.6924
   55CHL1   C25 6541   4.758   4.391   8.660 -1.0713 -0.1646  0.8199
   55CHL1   H25 6542   4.770   4.332   8.754  0.1490 -0.2951  0.6073
   55CHL1   C26 6543   4.604   4.396   8.634 -0.4599  0.3694  0.2326
   55CHL1  H26A 6544   4.542   4.411   8.725 -0.5403 -1.3622  0.4922
   55CHL1  H26B 6545   4.593   4.470   8.552  0.1066 -0.1655 -0.3318
   55CHL1  H26C 6546   4.572   4.299   8.589 -0.8887  0.1829  0.9279
   55CHL1   C27 6547   4.838   4.319   8.552 -0.3256 -0.2385  0.3829
   55CHL1  H27A 6548   4.948   4.331   8.568 -0.2261 -0.6131 -0.0133
   55CHL1  H27B 6549   4.817   4.211   8.565 -0.8029 -0.2737 -0.6125
   55CHL1  H27C 6550   4.801   4.352   8.453 -1.3652  0.1225  0.8811
   56CHL1    C3 6551   3.813   0.908  10.024 -0.6285  0.2274 -1.0577
   56CHL1    H3 6552   3.901   0.960   9.982 -1.0991  1.4263 -0.5849
   56CHL1    O3 6553   3.808   0.916  10.167 -0.2117  0.5047 -0.1868
   56CHL1   H3' 6554   3.814   1.008  10.192 -0.2224 -0.0798  2.3220
   56CHL1    C4 6555   3.690   0.965   9.959 -0.2477  0.2236  0.1363
   56CHL1   H4A 6556   3.596   0.916   9.991 -0.4118  0.1451 -0.4524
   56CHL1   H4B 6557   3.686   1.071   9.992  1.6416  0.2007  0.5746
   56CHL1    C5 6558   3.710   0.959   9.808 -0.1839  0.4429  0.3369
   56CHL1    C6 6559   3.705   1.063   9.727 -0.1555 -0.6311 -0.5491
   56CHL1    H6 6560   3.681   1.161   9.771  0.7313 -0.7656  0.2683
   56CHL1    C7 6561   3.710   1.069   9.575  0.4852  0.2185  0.1658
   56CHL1   H7A 6562   3.617   1.115   9.537  0.1951 -2.1693 -2.3268
   56CHL1   H7B 6563   3.792   1.125   9.525 -0.8936  0.4645 -1.9559
   56CHL1    C8 6564   3.712   0.925   9.514 -0.5762  0.1487 -0.3746
   56CHL1    H8 6565   3.609   0.883   9.507 -1.4813  2.3875 -1.4697
   56CHL1   C14 6566   3.765   0.924   9.366  0.5203 -0.0385  0.1086
   56CHL1   H14 6567   3.867   0.967   9.362  1.2464 -1.7142 -0.4774
   56CHL1   C15 6568   3.695   1.014   9.266  0.0071 -0.7631 -0.2660
   56CHL1  H15A 6569   3.586   1.007   9.286  0.0580  1.9356  1.6105
   56CHL1  H15B 6570   3.736   1.115   9.291  1.4522 -1.4457  0.2211
   56CHL1   C16 6571   3.735   0.960   9.130  0.0996  0.5337 -0.2493
   56CHL1  H16A 6572   3.639   0.955   9.075  1.3677  0.3917 -2.5925
   56CHL1  H16B 6573   3.806   1.022   9.071  1.2482  0.5292  1.0856
   56CHL1   C17 6574   3.805   0.823   9.156 -0.0049  0.2004  0.2887
   56CHL1   H17 6575   3.914   0.841   9.159 -0.1850  1.3429  0.5366
   56CHL1   C13 6576   3.769   0.786   9.299  0.6492  0.6997 -0.2621
   56CHL1   C18 6577   3.627   0.713   9.313 -0.1890  0.1596  0.8613
   56CHL1  H18A 6578   3.611   0.674   9.416  0.9722 -2.0369  0.2904
   56CHL1  H18B 6579   3.547   0.787   9.295 -0.5121  0.0543  1.8503
   56CHL1  H18C 6580   3.624   0.626   9.243  1.6178 -0.3341  1.3461
   56CHL1   C12 6581   3.878   0.708   9.380 -0.0313 -0.2051  0.2679
   56CHL1  H12A 6582   3.892   0.605   9.340  0.0218  0.3615 -1.2422
   56CHL1  H12B 6583   3.978   0.751   9.361 -0.0711 -1.3240 -2.9835
   56CHL1   C11 6584   3.846   0.701   9.534 -0.1829 -0.0681 -0.4013
   56CHL1  H11A 6585   3.760   0.631   9.544 -0.9320  0.6536 -1.5023
   56CHL1  H11B 6586   3.943   0.676   9.581 -0.3592 -0.4992 -0.2618
   56CHL1    C9 6587   3.807   0.838   9.602  0.0393 -0.0947  0.3175
   56CHL1    H9 6588   3.903   0.893   9.611  0.6327 -0.8576 -1.0691
   56CHL1   C10 6589   3.756   0.821   9.750  0.2076  0.0262  0.2443
   56CHL1   C19 6590   3.622   0.739   9.748  0.3313 -0.1133  0.3042
   56CHL1  H19A 6591   3.620   0.640   9.698  0.3696 -2.2726  4.1418
   56CHL1  H19B 6592   3.594   0.720   9.854 -2.1687 -0.2771 -0.3162
   56CHL1  H19C 6593   3.539   0.804   9.713 -1.1159 -1.8700  0.3638
   56CHL1    C1 6594   3.868   0.747   9.833 -0.0847  0.0205 -0.7246
   56CHL1   H1A 6595   3.871   0.637   9.818  0.4656  0.1091 -1.3141
   56CHL1   H1B 6596   3.967   0.795   9.816  0.5291 -1.5447 -1.8891
   56CHL1    C2 6597   3.835   0.761   9.983  0.1819  0.2300 -0.9494
   56CHL1   H2A 6598   3.914   0.727  10.053  0.8112  1.8362 -0.8469
   56CHL1   H2B 6599   3.742   0.706  10.012  0.5415  0.3239  0.4711
   56CHL1   C20 6600   3.781   0.728   9.047 -0.1382  0.8849  0.2255
   56CHL1   H20 6601   3.673   0.706   9.031  0.6232 -1.9353 -1.9674
   56CHL1   C21 6602   3.844   0.586   9.077  0.4534 -0.4296  0.3353
   56CHL1  H21A 6603   3.842   0.523   8.986 -0.1587 -1.3508  0.9725
   56CHL1  H21B 6604   3.800   0.531   9.163 -0.9950  1.6944  1.0333
   56CHL1  H21C 6605   3.951   0.610   9.098  0.2692  0.0244  0.7755
   56CHL1   C22 6606   3.834   0.775   8.904  0.6097 -0.1863 -0.3323
   56CHL1  H22A 6607   3.809   0.691   8.836  1.4288 -1.3964  0.8120
   56CHL1  H22B 6608   3.769   0.858   8.870  0.2394 -0.1136  0.5248
   56CHL1   C23 6609   3.980   0.821   8.890  0.9755  0.1231  0.3801
   56CHL1  H23A 6610   4.001   0.890   8.974  1.1309  0.1030  0.3588
   56CHL1  H23B 6611   4.046   0.732   8.890  2.4251  1.1698  0.6555
   56CHL1   C24 6612   3.992   0.898   8.764 -0.0562  0.5203  0.3631
   56CHL1  H24A 6613   3.953   0.837   8.680 -0.2876  0.2833  0.6374
   56CHL1  H24B 6614   3.915   0.977   8.765  0.1875  0.7556  0.8581
   56CHL1   C25 6615   4.135   0.944   8.738  1.2251 -0.5388  0.5610
   56CHL1   H25 6616   4.200   0.859   8.768  3.2699  0.7104 -0.1086
   56CHL1   C26 6617   4.152   0.982   8.587  0.8756 -0.1136  0.4661
   56CHL1  H26A 6618   4.085   1.064   8.553  0.4399 -0.7016 -0.1294
   56CHL1  H26B 6619   4.258   1.011   8.570  0.2085  1.8968 -0.7121
   56CHL1  H26C 6620   4.123   0.901   8.517 -0.6866  1.4921 -0.8286
   56CHL1   C27 6621   4.186   1.058   8.821 -0.4918  0.0135 -0.0875
   56CHL1  H27A 6622   4.184   1.041   8.931  0.6408 -0.8217 -0.1757
   56CHL1  H27B 6623   4.295   1.077   8.805 -0.4056  0.5006  0.9418
   56CHL1  H27C 6624   4.118   1.143   8.799 -0.4349  0.4094  1.1714
   57CHL1    C3 6625   2.888   6.231  10.167  0.3302  0.1039 -0.2352
   57CHL1    H3 6626   2.912   6.337  10.146  0.8682  0.0085 -0.1023
   57CHL1    O3 6627   2.887   6.208  10.300 -0.3998  0.3341 -0.9489
   57CHL1   H3' 6628   2.840   6.125  10.311  1.8175 -0.7791  0.8497
   57CHL1    C4 6629   2.744   6.210  10.114  0.4133 -0.1594  0.1503
   57CHL1   H4A 6630   2.695   6.111  10.125 -1.9900  0.6667 -2.0041
   57CHL1   H4B 6631   2.677   6.285  10.163  2.1285  1.1521  0.5625
   57CHL1    C5 6632   2.745   6.233   9.965  0.0933 -1.1560  0.1358
   57CHL1    C6 6633   2.672   6.331   9.915 -0.1639 -0.4369  0.2697
   57CHL1    H6 6634   2.626   6.405   9.983  3.0703  1.3835  0.7225
   57CHL1    C7 6635   2.673   6.366   9.773  0.7564  0.5666 -0.0276
   57CHL1   H7A 6636   2.572   6.392   9.732  0.9848  0.5283 -0.6285
   57CHL1   H7B 6637   2.742   6.451   9.756  0.8459  0.2123 -1.5600
   57CHL1    C8 6638   2.730   6.249   9.680 -0.7353  0.3659  0.1891
   57CHL1    H8 6639   2.649   6.173   9.680 -0.6479  0.2544  1.2631
   57CHL1   C14 6640   2.756   6.310   9.541  0.5169  0.2567  0.9485
   57CHL1   H14 6641   2.834   6.388   9.554  0.6338 -0.0098  1.8884
   57CHL1   C15 6642   2.647   6.394   9.475 -0.0272 -0.1184 -0.4475
   57CHL1  H15A 6643   2.555   6.332   9.481  0.3762 -0.6018  1.7292
   57CHL1  H15B 6644   2.627   6.495   9.517 -0.7385 -0.7242  0.7427
   57CHL1   C16 6645   2.687   6.399   9.324 -0.0231  0.2991 -0.2432
   57CHL1  H16A 6646   2.595   6.378   9.266  0.6381 -2.1505 -0.5233
   57CHL1  H16B 6647   2.737   6.496   9.306  2.7078 -1.0379 -0.3877
   57CHL1   C17 6648   2.794   6.287   9.305 -0.4711 -0.3909 -0.3600
   57CHL1   H17 6649   2.894   6.333   9.319 -0.6599 -0.6921  2.4373
   57CHL1   C13 6650   2.795   6.202   9.437 -0.3434 -0.1418 -0.0767
   57CHL1   C18 6651   2.676   6.098   9.422 -0.3722 -0.1577 -0.2058
   57CHL1  H18A 6652   2.632   6.069   9.520 -1.5346  1.8202 -0.0883
   57CHL1  H18B 6653   2.593   6.141   9.362  0.3370 -1.5154 -2.2629
   57CHL1  H18C 6654   2.718   6.003   9.382 -1.7197 -1.0913  0.5398
   57CHL1   C12 6655   2.923   6.140   9.490 -0.4437  0.7740 -0.3320
   57CHL1  H12A 6656   2.959   6.052   9.432  2.0482  2.6054 -1.7861
   57CHL1  H12B 6657   3.005   6.215   9.486 -0.6177  1.1339  1.7045
   57CHL1   C11 6658   2.904   6.085   9.636 -0.2934 -0.0350 -0.7194
   57CHL1  H11A 6659   2.819   6.012   9.633 -0.1047 -0.3353  0.5695
   57CHL1  H11B 6660   3.004   6.045   9.664 -0.3784  1.1851  1.5908
   57CHL1    C9 6661   2.852   6.191   9.743 -0.4006  0.1193 -0.1925
   57CHL1    H9 6662   2.936   6.262   9.742 -0.5339  0.2781 -0.4492
   57CHL1   C10 6663   2.846   6.142   9.888 -0.3271 -0.2930  0.4270
   57CHL1   C19 6664   2.780   6.004   9.889 -0.0628 -0.5298 -0.1658
   57CHL1  H19A 6665   2.839   5.938   9.822 -0.4254 -1.1801  0.1405
   57CHL1  H19B 6666   2.781   5.965   9.993  0.7722  1.0274  0.4396
   57CHL1  H19C 6667   2.675   6.002   9.854 -0.6936 -2.1162  1.6011
   57CHL1    C1 6668   2.987   6.146   9.951 -0.6099  0.5225 -0.7286
   57CHL1   H1A 6669   3.051   6.074   9.897 -1.1754 -0.5626  0.0030
   57CHL1   H1B 6670   3.048   6.237   9.932  0.8661 -0.4536 -0.7731
   57CHL1    C2 6671   2.976   6.125  10.104 -0.3388  0.6409  0.3581
   57CHL1   H2A 6672   3.080   6.139  10.142  0.3013  0.2508 -1.1726
   57CHL1   H2B 6673   2.947   6.022  10.135  2.1173 -0.2612 -0.0622
   57CHL1   C20 6674   2.785   6.220   9.172 -0.3768 -0.1266  0.0886
   57CHL1   H20 6675   2.686   6.170   9.166 -0.5611  0.1898  0.4522
   57CHL1   C21 6676   2.899   6.108   9.160  0.1524  0.0114 -0.1740
   57CHL1  H21A 6677   2.918   6.077   9.055  1.4782 -0.9702  0.3191
   57CHL1  H21B 6678   2.863   6.017   9.213 -3.3578  0.8124 -0.9413
   57CHL1  H21C 6679   2.994   6.142   9.208  0.4760 -0.8216 -0.2063
   57CHL1   C22 6680   2.790   6.314   9.051 -0.0131  0.4622 -0.1838
   57CHL1  H22A 6681   2.734   6.407   9.073  0.0059  0.5656 -0.5651
   57CHL1  H22B 6682   2.893   6.338   9.019  1.1442 -3.3466  0.2088
   57CHL1   C23 6683   2.718   6.245   8.934  0.0944 -0.5461 -0.4403
   57CHL1  H23A 6684   2.787   6.163   8.908  0.0815 -0.6798 -0.0659
   57CHL1  H23B 6685   2.618   6.207   8.967 -0.1527  0.7937  0.4548
   57CHL1   C24 6686   2.710   6.344   8.815  0.2565  0.0868  0.2412
   57CHL1  H24A 6687   2.629   6.417   8.836 -0.4940 -0.0761 -1.8947
   57CHL1  H24B 6688   2.802   6.406   8.822 -1.1527  2.3002  0.3632
   57CHL1   C25 6689   2.693   6.278   8.675 -0.2221  0.0261  0.2819
   57CHL1   H25 6690   2.682   6.355   8.596 -0.9982  0.5670  0.9147
   57CHL1   C26 6691   2.826   6.198   8.635  0.3338  0.0740  0.0488
   57CHL1  H26A 6692   2.908   6.274   8.635  2.6483 -2.2845  0.1289
   57CHL1  H26B 6693   2.850   6.133   8.721  0.2167  0.2362  0.2048
   57CHL1  H26C 6694   2.825   6.150   8.535 -1.4568  1.0391 -0.4449
   57CHL1   C27 6695   2.569   6.178   8.662 -0.5687  0.2185 -0.5877
   57CHL1  H27A 6696   2.569   6.107   8.747 -2.0217 -0.2574 -0.9637
   57CHL1  H27B 6697   2.471   6.230   8.656 -0.0592  1.0706 -3.3619
   57CHL1  H27C 6698   2.568   6.110   8.574  1.7181  0.5649 -0.9648
   58CHL1    C3 6699   1.821   1.610   9.965  0.2126 -0.2485  0.8077
   58CHL1    H3 6700   1.893   1.691   9.940 -0.5344  1.1409  2.9804
   58CHL1    O3 6701   1.783   1.624  10.100  0.5831 -0.0712 -0.0556
   58CHL1   H3' 6702   1.737   1.542  10.121  1.1429  0.2136  2.6023
   58CHL1    C4 6703   1.699   1.625   9.874 -0.0328 -0.0829  0.7842
   58CHL1   H4A 6704   1.616   1.554   9.894 -1.0842  0.9929  0.3707
   58CHL1   H4B 6705   1.656   1.726   9.894 -1.6799 -0.9179  1.7701
   58CHL1    C5 6706   1.726   1.602   9.723  0.6939 -0.8896 -0.4782
   58CHL1    C6 6707   1.695   1.695   9.634 -0.1257  0.8311  0.0382
   58CHL1    H6 6708   1.661   1.789   9.678  1.5303  0.5191  2.1722
   58CHL1    C7 6709   1.706   1.678   9.483  0.2223  0.6850  0.3634
   58CHL1   H7A 6710   1.615   1.701   9.424  1.1907  0.7050 -1.1964
   58CHL1   H7B 6711   1.774   1.750   9.432 -0.6204  0.6164 -0.9055
   58CHL1    C8 6712   1.745   1.534   9.447 -0.6759 -0.0520  0.3109
   58CHL1    H8 6713   1.647   1.482   9.438 -0.2695 -1.1604  1.7863
   58CHL1   C14 6714   1.797   1.528   9.303 -0.4899 -0.2288  0.0140
   58CHL1   H14 6715   1.900   1.570   9.304  0.1606 -1.7616 -0.0414
   58CHL1   C15 6716   1.720   1.595   9.183 -0.2036  0.5585 -0.0547
   58CHL1  H15A 6717   1.615   1.560   9.193 -0.6362  1.8937  0.2501
   58CHL1  H15B 6718   1.740   1.704   9.188  3.0002  0.1802 -1.5247
   58CHL1   C16 6719   1.795   1.544   9.059 -0.2550 -0.4365 -0.0830
   58CHL1  H16A 6720   1.726   1.505   8.982  2.2536 -4.1906 -0.7173
   58CHL1  H16B 6721   1.858   1.624   9.015 -2.0521  1.5538  0.8149
   58CHL1   C17 6722   1.885   1.428   9.109  0.3952  0.2347  0.4650
   58CHL1   H17 6723   1.986   1.475   9.104 -0.4376  1.9681 -0.9425
   58CHL1   C13 6724   1.830   1.392   9.251  0.3665  0.0974  0.2566
   58CHL1   C18 6725   1.706   1.301   9.239 -0.0868  0.0775 -0.5941
   58CHL1  H18A 6726   1.734   1.197   9.212  1.9142  0.5179 -0.3696
   58CHL1  H18B 6727   1.648   1.292   9.332  0.4908  0.0249 -0.2324
   58CHL1  H18C 6728   1.636   1.335   9.160 -0.2706 -0.0603 -0.4870
   58CHL1   C12 6729   1.937   1.318   9.349 -0.8005  0.0275  0.1488
   58CHL1  H12A 6730   1.952   1.213   9.318 -0.8537  0.6362 -2.0965
   58CHL1  H12B 6731   2.030   1.379   9.355  0.2591 -1.5636  0.2542
   58CHL1   C11 6732   1.879   1.314   9.495 -0.1721  0.2348 -0.0110
   58CHL1  H11A 6733   1.794   1.243   9.492 -1.2410  1.5113 -1.0467
   58CHL1  H11B 6734   1.953   1.280   9.571  0.5222  3.2579  0.8096
   58CHL1    C9 6735   1.834   1.458   9.547 -0.1991  0.2288  0.0097
   58CHL1    H9 6736   1.926   1.521   9.541 -0.7801  1.0796 -0.0798
   58CHL1   C10 6737   1.796   1.469   9.693 -0.2762  0.0353 -0.6007
   58CHL1   C19 6738   1.688   1.350   9.719  0.1678  0.1303  0.5916
   58CHL1  H19A 6739   1.724   1.245   9.713 -0.9350 -0.4569  3.0685
   58CHL1  H19B 6740   1.648   1.359   9.822 -0.3349  0.4043  0.3748
   58CHL1  H19C 6741   1.607   1.362   9.644  0.8288  2.9096  0.2357
   58CHL1    C1 6742   1.918   1.449   9.792 -0.3925 -0.3143 -0.1976
   58CHL1   H1A 6743   1.954   1.344   9.779 -0.6271 -0.2981 -0.9782
   58CHL1   H1B 6744   1.999   1.514   9.752 -1.2020  1.3821  0.8175
   58CHL1    C2 6745   1.881   1.474   9.938 -0.5328  0.0413 -0.1578
   58CHL1   H2A 6746   1.963   1.457  10.010 -0.7957 -0.8120 -0.0476
   58CHL1   H2B 6747   1.804   1.397   9.962 -1.1013  0.1317 -1.5607
   58CHL1   C20 6748   1.884   1.316   9.005  0.2470  0.0662  0.1641
   58CHL1   H20 6749   1.779   1.286   8.988 -1.3478  3.5194  2.8812
   58CHL1   C21 6750   1.968   1.202   9.057 -0.5936  0.2044 -0.3038
   58CHL1  H21A 6751   1.911   1.131   9.121 -1.4285 -0.9287 -2.2453
   58CHL1  H21B 6752   2.060   1.225   9.115 -0.2215  1.7124 -1.4324
   58CHL1  H21C 6753   2.015   1.141   8.978 -0.5669 -0.7581  0.4365
   58CHL1   C22 6754   1.954   1.368   8.867  0.5527  0.7189 -1.0409
   58CHL1  H22A 6755   1.901   1.449   8.812  0.1117  1.7015  0.7571
   58CHL1  H22B 6756   2.051   1.418   8.888  0.1474  1.2684 -0.4260
   58CHL1   C23 6757   1.979   1.269   8.750 -0.4966 -0.2461 -0.6440
   58CHL1  H23A 6758   2.011   1.334   8.666  4.1119 -0.3411  0.7870
   58CHL1  H23B 6759   2.063   1.198   8.759 -0.2038  0.0623 -0.9568
   58CHL1   C24 6760   1.854   1.191   8.714 -0.1984 -0.3339 -0.1101
   58CHL1  H24A 6761   1.819   1.125   8.796 -0.6890  0.8042  0.6214
   58CHL1  H24B 6762   1.780   1.268   8.685  0.5753  0.6650  0.4936
   58CHL1   C25 6763   1.875   1.090   8.597  0.1317 -0.1129 -0.4728
   58CHL1   H25 6764   1.772   1.056   8.569 -0.4130 -0.4604  1.7363
   58CHL1   C26 6765   1.924   1.154   8.466 -0.1146 -0.2934  0.5760
   58CHL1  H26A 6766   1.935   1.065   8.400 -1.3087  0.8632 -1.2524
   58CHL1  H26B 6767   1.842   1.217   8.426 -0.1251  0.0083  1.0653
   58CHL1  H26C 6768   2.022   1.205   8.471 -1.5351  2.5209  2.5666
   58CHL1   C27 6769   1.959   0.973   8.647 -0.9636 -0.1864 -0.2849
   58CHL1  H27A 6770   2.068   0.995   8.640 -1.1346  0.4310 -1.2375
   58CHL1  H27B 6771   1.930   0.946   8.751 -1.2901 -0.3076 -0.4065
   58CHL1  H27C 6772   1.949   0.879   8.589  0.1895 -2.6241  3.1304
   59CHL1    C3 6773   3.461   3.425  10.382 -0.6268 -0.2427 -0.4540
   59CHL1    H3 6774   3.376   3.359  10.353 -0.1073 -1.4100  0.5547
   59CHL1    O3 6775   3.519   3.397  10.513  0.0349  0.2197  0.0831
   59CHL1   H3' 6776   3.572   3.320  10.493  0.4895  0.3751  0.6418
   59CHL1    C4 6777   3.584   3.403  10.285 -0.0385  0.6658 -0.1431
   59CHL1   H4A 6778   3.674   3.455  10.324  0.7694 -0.7777  0.0141
   59CHL1   H4B 6779   3.617   3.297  10.290  0.7665  0.9420  0.6989
   59CHL1    C5 6780   3.556   3.445  10.145 -0.0253 -0.1752  0.3939
   59CHL1    C6 6781   3.565   3.371  10.031  0.2266  0.0761  0.0383
   59CHL1    H6 6782   3.610   3.271  10.032  1.7033  0.6792 -1.5656
   59CHL1    C7 6783   3.553   3.428   9.892 -0.1211 -0.2054 -0.4285
   59CHL1   H7A 6784   3.628   3.392   9.818 -0.6383  2.2418 -2.2731
   59CHL1   H7B 6785   3.452   3.406   9.852 -0.1607 -1.0561  0.1130
   59CHL1    C8 6786   3.568   3.586   9.892  1.0772  0.1575  0.2492
   59CHL1    H8 6787   3.676   3.606   9.907  1.5309  0.6883 -3.0017
   59CHL1   C14 6788   3.510   3.632   9.756 -0.5147 -0.6747  0.4045
   59CHL1   H14 6789   3.407   3.589   9.751 -0.5279 -0.8894  2.0236
   59CHL1   C15 6790   3.584   3.576   9.631 -0.3760 -0.3774  0.5132
   59CHL1  H15A 6791   3.692   3.560   9.653  0.3141 -0.6321 -2.6874
   59CHL1  H15B 6792   3.548   3.473   9.609 -1.0211 -0.4777  1.9318
   59CHL1   C16 6793   3.568   3.685   9.520  0.1864 -0.1499  0.2539
   59CHL1  H16A 6794   3.667   3.732   9.501  0.4326 -0.3765  0.9169
   59CHL1  H16B 6795   3.516   3.643   9.432 -1.6326  0.3418  1.0381
   59CHL1   C17 6796   3.484   3.793   9.582 -0.1000  0.2787 -0.7277
   59CHL1   H17 6797   3.380   3.759   9.563 -0.9710  1.1202  2.0567
   59CHL1   C13 6798   3.517   3.782   9.734 -0.2448 -0.3943 -0.9927
   59CHL1   C18 6799   3.661   3.847   9.758 -0.3062 -0.0577  0.3636
   59CHL1  H18A 6800   3.740   3.797   9.698  0.9321  1.2371  0.8700
   59CHL1  H18B 6801   3.666   3.955   9.736  1.8892 -0.3923 -1.1489
   59CHL1  H18C 6802   3.695   3.822   9.861  0.5101 -0.2142  0.0659
   59CHL1   C12 6803   3.418   3.837   9.839  0.2900 -0.6473 -0.1260
   59CHL1  H12A 6804   3.400   3.946   9.821 -2.8469 -1.1043 -0.2387
   59CHL1  H12B 6805   3.322   3.787   9.814  0.6710 -0.5926 -1.8918
   59CHL1   C11 6806   3.463   3.799   9.982 -0.6418  0.1035 -0.1625
   59CHL1  H11A 6807   3.563   3.843  10.002 -0.4705 -0.2742 -0.1691
   59CHL1  H11B 6808   3.393   3.841  10.058  1.0996  1.1565  0.9384
   59CHL1    C9 6809   3.481   3.641  10.003 -0.3823  0.4482  0.2146
   59CHL1    H9 6810   3.384   3.591   9.984  0.4069 -0.2037 -2.6525
   59CHL1   C10 6811   3.521   3.594  10.144  0.1413 -0.4212 -0.6357
   59CHL1   C19 6812   3.639   3.682  10.188 -0.7236 -0.7558  0.1381
   59CHL1  H19A 6813   3.619   3.790  10.207 -0.8838 -1.1033  2.1332
   59CHL1  H19B 6814   3.683   3.652  10.286 -0.1861 -1.2505 -0.2461
   59CHL1  H19C 6815   3.722   3.679  10.114 -0.0327 -0.4226  0.8906
   59CHL1    C1 6816   3.392   3.616  10.232  0.1950  0.9560  0.9371
   59CHL1   H1A 6817   3.358   3.721  10.217 -0.9195  0.3670 -1.1091
   59CHL1   H1B 6818   3.314   3.557  10.179 -1.2585  0.7618  3.1899
   59CHL1    C2 6819   3.415   3.568  10.377 -0.4762 -0.2572  0.5646
   59CHL1   H2A 6820   3.322   3.574  10.437  0.5431  1.2990  2.1106
   59CHL1   H2B 6821   3.491   3.639  10.417  1.0996 -1.1030 -0.7973
   59CHL1   C20 6822   3.501   3.932   9.511  0.5746 -0.1984  0.5939
   59CHL1   H20 6823   3.607   3.965   9.525  0.6143 -0.1610  0.2046
   59CHL1   C21 6824   3.399   4.043   9.561 -0.7071  1.1393  1.0620
   59CHL1  H21A 6825   3.412   4.075   9.666 -1.8853 -2.8945  2.6445
   59CHL1  H21B 6826   3.299   3.996   9.548 -0.0149  0.0772 -0.8545
   59CHL1  H21C 6827   3.403   4.136   9.500 -1.1244  0.8663  0.6075
   59CHL1   C22 6828   3.480   3.916   9.350  0.1059 -0.3269  0.3777
   59CHL1  H22A 6829   3.495   4.016   9.305  0.3274 -0.0083  1.1420
   59CHL1  H22B 6830   3.557   3.855   9.298  1.0367  0.8615  0.3122
   59CHL1   C23 6831   3.340   3.873   9.302 -0.3780  0.0402  0.0854
   59CHL1  H23A 6832   3.329   3.767   9.333 -0.7013 -0.3741 -1.3898
   59CHL1  H23B 6833   3.255   3.929   9.346 -0.8210 -1.1408  0.7819
   59CHL1   C24 6834   3.337   3.866   9.149  0.1589 -0.5731 -0.0516
   59CHL1  H24A 6835   3.347   3.970   9.111 -1.3840  0.2347  1.5841
   59CHL1  H24B 6836   3.417   3.803   9.105 -0.5046 -1.2120 -0.3684
   59CHL1   C25 6837   3.205   3.801   9.113  0.6986 -0.3586 -0.5765
   59CHL1   H25 6838   3.128   3.843   9.182  0.9755 -0.3409 -0.2749
   59CHL1   C26 6839   3.164   3.830   8.970  0.5219  0.1893  0.0632
   59CHL1  H26A 6840   3.215   3.769   8.892  1.0554  1.9205 -0.9908
   59CHL1  H26B 6841   3.057   3.807   8.954  1.1184 -3.1971  0.1145
   59CHL1  H26C 6842   3.185   3.935   8.940  2.4599 -0.7098 -2.1016
   59CHL1   C27 6843   3.217   3.651   9.121  0.0275 -0.7227  0.0640
   59CHL1  H27A 6844   3.179   3.609   9.217 -3.9989 -0.9511 -1.4344
   59CHL1  H27B 6845   3.151   3.603   9.046  1.1427  1.5785 -2.5653
   59CHL1  H27C 6846   3.314   3.607   9.089 -0.6331 -1.6506 -0.7538
   60CHL1    C3 6847   2.241   4.798  10.255 -0.2217 -0.2794 -0.9120
   60CHL1    H3 6848   2.226   4.688  10.255  2.6080 -0.8261  2.0078
   60CHL1    O3 6849   2.242   4.841  10.392 -0.3312  0.1692  0.2324
   60CHL1   H3' 6850   2.285   4.926  10.385 -0.7147  0.4012  0.6111
   60CHL1    C4 6851   2.374   4.827  10.184  0.2660 -0.6554  0.8604
   60CHL1   H4A 6852   2.397   4.935  10.192 -3.0655  0.4926 -2.0831
   60CHL1   H4B 6853   2.452   4.768  10.236  2.7747  1.5490 -0.1707
   60CHL1    C5 6854   2.362   4.796  10.034  0.3634  0.1481 -0.5493
   60CHL1    C6 6855   2.453   4.709   9.985 -0.3284  0.9233  0.6953
   60CHL1    H6 6856   2.531   4.672  10.053 -0.5302  0.3583  0.6223
   60CHL1    C7 6857   2.457   4.682   9.836  0.0411  0.3000  0.8940
   60CHL1   H7A 6858   2.563   4.676   9.802 -0.4376  0.1432 -0.6572
   60CHL1   H7B 6859   2.408   4.588   9.802  2.5523  0.1477 -3.0408
   60CHL1    C8 6860   2.395   4.801   9.758  0.2981  0.1037 -0.5206
   60CHL1    H8 6861   2.458   4.892   9.766  0.9103 -0.3543  0.0269
   60CHL1   C14 6862   2.380   4.767   9.612  0.3770  0.3380  0.8178
   60CHL1   H14 6863   2.303   4.686   9.614  0.8932 -0.1422  1.6786
   60CHL1   C15 6864   2.509   4.727   9.547  0.6406 -0.0521  0.3059
   60CHL1  H15A 6865   2.597   4.783   9.584  0.2214  2.1611 -1.7869
   60CHL1  H15B 6866   2.538   4.620   9.553  1.7867  0.1510 -0.9586
   60CHL1   C16 6867   2.495   4.752   9.397  0.0772  0.3481 -0.6997
   60CHL1  H16A 6868   2.566   4.828   9.358 -0.3120  1.1669  0.1473
   60CHL1  H16B 6869   2.497   4.664   9.330  0.8735  2.3947 -3.6030
   60CHL1   C17 6870   2.346   4.800   9.385  0.1725  0.1180 -0.7422
   60CHL1   H17 6871   2.289   4.705   9.377 -0.0598  0.1333  0.4335
   60CHL1   C13 6872   2.324   4.869   9.520  0.0289  0.1258  0.6124
   60CHL1   C18 6873   2.405   5.007   9.530 -0.6149  0.4916 -0.1365
   60CHL1  H18A 6874   2.381   5.054   9.627 -2.8439 -0.5136 -0.1446
   60CHL1  H18B 6875   2.515   4.989   9.528 -0.8924 -1.3869 -0.2236
   60CHL1  H18C 6876   2.376   5.065   9.439 -0.3871  1.6135  0.4915
   60CHL1   C12 6877   2.178   4.886   9.574 -0.3522 -0.0286 -0.0138
   60CHL1  H12A 6878   2.128   4.969   9.519  0.7240  0.2474 -0.6102
   60CHL1  H12B 6879   2.118   4.793   9.560 -0.2175 -0.6222  2.7539
   60CHL1   C11 6880   2.168   4.923   9.720  0.4195 -0.6899 -0.2562
   60CHL1  H11A 6881   2.207   5.027   9.725 -1.9679  0.2291  0.5704
   60CHL1  H11B 6882   2.061   4.926   9.750  0.7075  4.1926  1.1914
   60CHL1    C9 6883   2.255   4.829   9.811 -0.2204 -0.4276  0.2665
   60CHL1    H9 6884   2.213   4.727   9.819 -1.6117  0.2851  3.8934
   60CHL1   C10 6885   2.259   4.876   9.962  0.8725 -0.0984  0.2771
   60CHL1   C19 6886   2.293   5.029   9.966  0.3992 -0.3677 -0.2305
   60CHL1  H19A 6887   2.212   5.094   9.926  0.0484 -0.7549 -0.1589
   60CHL1  H19B 6888   2.323   5.069  10.065 -2.7100  0.1326  0.6067
   60CHL1  H19C 6889   2.383   5.043   9.902 -0.0532  0.0412 -0.7775
   60CHL1    C1 6890   2.117   4.850  10.040  0.3194 -0.4928  0.3004
   60CHL1   H1A 6891   2.040   4.921  10.004 -0.6564 -1.3547  0.6634
   60CHL1   H1B 6892   2.087   4.745  10.018 -0.4861 -0.6595  2.0697
   60CHL1    C2 6893   2.122   4.872  10.192 -0.2611  0.4767 -0.3161
   60CHL1   H2A 6894   2.030   4.827  10.236 -0.7179  0.3179 -1.4068
   60CHL1   H2B 6895   2.125   4.979  10.220  0.0183 -0.3896  3.6484
   60CHL1   C20 6896   2.322   4.881   9.251 -0.1248  0.2439 -0.6419
   60CHL1   H20 6897   2.412   4.945   9.236 -0.9849  1.0195 -2.9405
   60CHL1   C21 6898   2.192   4.970   9.256 -0.1418  0.2935 -0.1696
   60CHL1  H21A 6899   2.186   5.030   9.349 -1.0477  0.4696 -0.3344
   60CHL1  H21B 6900   2.101   4.907   9.266  0.4265 -0.1971  2.7319
   60CHL1  H21C 6901   2.177   5.036   9.168 -2.2167  2.0719  1.4311
   60CHL1   C22 6902   2.335   4.785   9.129 -0.2090 -0.0913 -0.1037
   60CHL1  H22A 6903   2.428   4.725   9.129  0.2034  0.4656  1.9954
   60CHL1  H22B 6904   2.258   4.705   9.132  1.8282 -2.2252 -1.4353
   60CHL1   C23 6905   2.321   4.864   9.001 -0.2845 -0.4914  0.4178
   60CHL1  H23A 6906   2.234   4.934   8.991 -0.2666 -0.6828 -1.3838
   60CHL1  H23B 6907   2.408   4.933   8.995 -0.1207 -0.6331  1.1123
   60CHL1   C24 6908   2.317   4.778   8.872  0.6435 -0.3745  0.2693
   60CHL1  H24A 6909   2.409   4.717   8.869  0.1118 -1.3242  1.9533
   60CHL1  H24B 6910   2.239   4.700   8.886 -0.5861  0.2839 -2.2748
   60CHL1   C25 6911   2.307   4.861   8.743 -0.4505  0.7304  0.7431
   60CHL1   H25 6912   2.300   4.789   8.659  1.5158  2.2018 -0.7861
   60CHL1   C26 6913   2.185   4.950   8.727  0.7328  0.0392  0.3488
   60CHL1  H26A 6914   2.181   5.035   8.798 -2.2817  0.8537 -0.6251
   60CHL1  H26B 6915   2.161   4.987   8.625  0.1863 -1.9094 -0.2848
   60CHL1  H26C 6916   2.092   4.892   8.749  1.1408 -0.5986  0.4112
   60CHL1   C27 6917   2.432   4.938   8.715  0.1859  0.5655 -0.6702
   60CHL1  H27A 6918   2.425   4.988   8.616  0.2685  1.5298 -0.1949
   60CHL1  H27B 6919   2.451   5.025   8.781 -0.2507 -1.2156  1.9332
   60CHL1  H27C 6920   2.528   4.883   8.706 -0.2503 -0.6420  1.4701
   61CHL1    C3 6921   2.890   3.499  10.293  0.1819  0.0235 -0.3298
   61CHL1    H3 6922   2.845   3.417  10.233  1.1601  0.2390 -1.4064
   61CHL1    O3 6923   2.901   3.453  10.429 -0.6980 -0.0985  0.6475
   61CHL1   H3' 6924   2.911   3.537  10.475 -0.6558  1.1419 -1.4829
   61CHL1    C4 6925   3.030   3.540  10.240 -0.3553 -0.4755  0.0367
   61CHL1   H4A 6926   3.069   3.626  10.299  1.0851 -0.8935 -0.2804
   61CHL1   H4B 6927   3.095   3.452  10.258  0.2855  0.2724  1.5797
   61CHL1    C5 6928   3.028   3.569  10.090  0.2103  0.8630 -0.0388
   61CHL1    C6 6929   3.088   3.491   9.995  0.0405 -0.6620 -0.3560
   61CHL1    H6 6930   3.159   3.415  10.032  1.4681 -0.0797 -1.7644
   61CHL1    C7 6931   3.090   3.528   9.846  0.3770  1.3096  0.3092
   61CHL1   H7A 6932   3.194   3.541   9.810  0.0773 -0.0702 -1.1646
   61CHL1   H7B 6933   3.042   3.442   9.795  0.4848  1.6744 -0.4246
   61CHL1    C8 6934   3.018   3.664   9.816 -0.2111  0.1599 -0.0606
   61CHL1    H8 6935   3.095   3.744   9.809 -0.6858  0.7387  1.0518
   61CHL1   C14 6936   2.955   3.651   9.672  0.2166  0.6980  0.0865
   61CHL1   H14 6937   2.880   3.570   9.680  0.0904  0.7938 -0.1154
   61CHL1   C15 6938   3.051   3.605   9.561 -0.0681 -0.4177 -0.2241
   61CHL1  H15A 6939   3.154   3.647   9.565 -0.3335  0.3305 -1.0699
   61CHL1  H15B 6940   3.068   3.495   9.564  0.9416 -0.3061 -1.1134
   61CHL1   C16 6941   2.986   3.659   9.436 -0.1675 -0.4353  0.3002
   61CHL1  H16A 6942   3.045   3.724   9.369 -1.9578 -0.4190 -1.3288
   61CHL1  H16B 6943   2.962   3.576   9.367 -0.1664 -0.7308  0.6539
   61CHL1   C17 6944   2.860   3.745   9.483  0.4082 -0.0805 -0.3152
   61CHL1   H17 6945   2.776   3.673   9.478  0.2178 -0.0215  1.3477
   61CHL1   C13 6946   2.891   3.781   9.625 -0.3322 -0.8999 -1.0898
   61CHL1   C18 6947   2.993   3.896   9.626  0.6671  0.4257 -0.1781
   61CHL1  H18A 6948   3.074   3.881   9.552 -1.6329 -2.3462 -2.3326
   61CHL1  H18B 6949   2.934   3.988   9.605 -1.8794 -1.8010 -3.5555
   61CHL1  H18C 6950   3.039   3.911   9.727  0.7103  1.0210 -0.2828
   61CHL1   C12 6951   2.774   3.812   9.721 -0.1971  0.2299  0.2908
   61CHL1  H12A 6952   2.729   3.910   9.697  0.1964 -0.1414 -2.2463
   61CHL1  H12B 6953   2.694   3.734   9.714  0.8376 -0.8091 -0.4020
   61CHL1   C11 6954   2.818   3.814   9.870  1.0089  0.3861 -0.3398
   61CHL1  H11A 6955   2.871   3.910   9.888  2.2927 -0.6104  1.5427
   61CHL1  H11B 6956   2.726   3.823   9.932  1.5914 -1.9602  0.9863
   61CHL1    C9 6957   2.907   3.692   9.912 -0.2523  0.3385  0.5919
   61CHL1    H9 6958   2.844   3.604   9.887 -0.5008  1.1408 -1.8116
   61CHL1   C10 6959   2.933   3.680  10.064  0.1416 -1.1875  0.2953
   61CHL1   C19 6960   2.998   3.823  10.109  0.5271  0.0869 -0.1269
   61CHL1  H19A 6961   3.098   3.834  10.063  0.9280  1.7507  1.0387
   61CHL1  H19B 6962   2.922   3.902  10.089 -0.2294 -0.4552  0.5025
   61CHL1  H19C 6963   3.018   3.816  10.218  0.1042 -3.5367 -0.1354
   61CHL1    C1 6964   2.803   3.666  10.136  0.0834 -0.0902  0.7952
   61CHL1   H1A 6965   2.758   3.768  10.138  0.0594 -0.1082  1.2055
   61CHL1   H1B 6966   2.735   3.609  10.069  1.1827  0.6676 -1.0470
   61CHL1    C2 6967   2.806   3.620  10.280  0.5193  0.5359 -0.4934
   61CHL1   H2A 6968   2.701   3.606  10.312  0.2230 -1.2627 -2.0714
   61CHL1   H2B 6969   2.864   3.696  10.337  1.7944 -0.3620 -0.5468
   61CHL1   C20 6970   2.823   3.854   9.379  0.4021 -0.2419  0.1215
   61CHL1   H20 6971   2.910   3.922   9.366  0.8173 -0.9085 -0.6126
   61CHL1   C21 6972   2.704   3.930   9.437 -0.1910 -0.0293  0.0724
   61CHL1  H21A 6973   2.738   3.986   9.527  1.4323  0.1848 -0.6479
   61CHL1  H21B 6974   2.632   3.851   9.467  1.1900 -0.7666  1.6087
   61CHL1  H21C 6975   2.664   4.003   9.364  0.7445 -1.2841 -1.7467
   61CHL1   C22 6976   2.790   3.799   9.242 -0.5516  0.0152 -0.0997
   61CHL1  H22A 6977   2.856   3.718   9.203  1.0251  0.4029  1.6346
   61CHL1  H22B 6978   2.686   3.762   9.254 -0.4912 -0.7545 -1.6362
   61CHL1   C23 6979   2.793   3.895   9.120 -0.0030 -0.1432  0.0196
   61CHL1  H23A 6980   2.751   3.995   9.142 -0.0353 -0.5196  1.8150
   61CHL1  H23B 6981   2.900   3.915   9.101  0.3082 -2.1440 -0.6297
   61CHL1   C24 6982   2.731   3.836   8.983 -0.0653 -0.2397 -0.3755
   61CHL1  H24A 6983   2.788   3.745   8.956  0.8686  0.4516 -0.7858
   61CHL1  H24B 6984   2.625   3.803   8.993 -1.5068  3.1019 -2.5492
   61CHL1   C25 6985   2.721   3.931   8.859  0.6891 -0.0302  0.3303
   61CHL1   H25 6986   2.824   3.964   8.834  0.1499 -0.5612 -2.9477
   61CHL1   C26 6987   2.680   3.876   8.722 -0.3136  0.6129 -0.2600
   61CHL1  H26A 6988   2.706   3.938   8.634 -0.2143 -0.3368 -0.9190
   61CHL1  H26B 6989   2.716   3.772   8.704 -2.9690 -0.4436 -0.0289
   61CHL1  H26C 6990   2.569   3.864   8.717 -0.0707 -1.9983 -2.1974
   61CHL1   C27 6991   2.638   4.057   8.880 -0.4292  0.6504  0.5842
   61CHL1  H27A 6992   2.644   4.106   8.780  0.8816 -0.7058 -0.0426
   61CHL1  H27B 6993   2.532   4.035   8.905 -0.5877 -0.7166 -1.0583
   61CHL1  H27C 6994   2.701   4.120   8.946 -0.6928  2.0936 -0.4936
   62CHL1    C3 6995   5.986   5.068   9.937  0.3782  0.0666 -0.0683
   62CHL1    H3 6996   5.906   5.134   9.897 -0.9675 -1.4034  0.1197
   62CHL1    O3 6997   5.969   5.051  10.079 -0.3434 -0.6319  0.2702
   62CHL1   H3' 6998   6.044   5.077  10.132  0.0119  1.5362 -1.1564
   62CHL1    C4 6999   5.969   4.935   9.873 -0.1648  0.0825  0.7859
   62CHL1   H4A 7000   6.027   4.853   9.921  0.7155 -0.7391 -1.5263
   62CHL1   H4B 7001   5.865   4.900   9.893  0.7089 -3.1904  0.2060
   62CHL1    C5 7002   5.992   4.935   9.722  0.2693  0.4743  0.1010
   62CHL1    C6 7003   5.892   4.903   9.636  0.0496 -0.2284 -0.3466
   62CHL1    H6 7004   5.792   4.865   9.664 -0.6527  0.4994 -1.7384
   62CHL1    C7 7005   5.911   4.899   9.490 -0.8468  0.3616 -0.1130
   62CHL1   H7A 7006   5.875   4.800   9.457  0.7730 -0.7731  1.3158
   62CHL1   H7B 7007   5.849   4.984   9.453 -1.6894  1.4936  3.4665
   62CHL1    C8 7008   6.062   4.924   9.448  0.9689  0.1238 -0.4128
   62CHL1    H8 7009   6.111   4.825   9.463  0.5340  0.3369  3.4301
   62CHL1   C14 7010   6.071   4.969   9.296 -0.1553 -0.2737  0.5933
   62CHL1   H14 7011   6.023   5.069   9.296  0.5516  0.0737 -0.1660
   62CHL1   C15 7012   5.997   4.901   9.190 -0.3515 -0.3366  0.6867
   62CHL1  H15A 7013   6.011   4.791   9.199  2.7026 -0.2189 -1.1458
   62CHL1  H15B 7014   5.888   4.923   9.190 -0.6551 -1.7372  0.3407
   62CHL1   C16 7015   6.067   4.937   9.059  0.5983 -0.6630 -0.6209
   62CHL1  H16A 7016   6.092   4.843   9.005 -1.5947 -0.2376 -2.5376
   62CHL1  H16B 7017   5.989   4.978   8.991 -0.9815  0.6008  1.8127
   62CHL1   C17 7018   6.187   5.027   9.103 -0.3414 -0.7843 -0.7257
   62CHL1   H17 7019   6.162   5.136   9.106  2.9871  0.0765 -0.4410
   62CHL1   C13 7020   6.215   4.982   9.250 -0.4643 -0.5266  0.9023
   62CHL1   C18 7021   6.294   4.849   9.254 -0.6293 -0.3692  0.1841
   62CHL1  H18A 7022   6.391   4.853   9.200 -0.1098 -0.8698  1.0531
   62CHL1  H18B 7023   6.301   4.804   9.355 -2.4496 -1.4992 -0.1425
   62CHL1  H18C 7024   6.223   4.775   9.211  0.6782 -0.3284 -2.2363
   62CHL1   C12 7025   6.281   5.095   9.333  0.2601 -0.0806 -0.0960
   62CHL1  H12A 7026   6.388   5.104   9.305  0.5794  0.5120  1.2776
   62CHL1  H12B 7027   6.230   5.193   9.320  2.3792  1.2478  0.9798
   62CHL1   C11 7028   6.274   5.067   9.481  0.8755  0.0827 -0.2196
   62CHL1  H11A 7029   6.338   4.979   9.504 -1.0781 -1.7683 -1.3872
   62CHL1  H11B 7030   6.299   5.149   9.552 -2.5285 -0.0923  1.3969
   62CHL1    C9 7031   6.127   5.025   9.529 -1.0811  0.5174  0.2779
   62CHL1    H9 7032   6.070   5.120   9.516  2.2712  2.7167  0.6220
   62CHL1   C10 7033   6.126   4.982   9.684  0.4574  0.2701  0.6985
   62CHL1   C19 7034   6.230   4.866   9.707  0.4019  0.1388  0.0713
   62CHL1  H19A 7035   6.330   4.911   9.694  0.2164 -0.0858 -2.6697
   62CHL1  H19B 7036   6.234   4.828   9.812  0.4578  0.4980  0.1991
   62CHL1  H19C 7037   6.221   4.774   9.645  1.6773 -0.6141  0.9650
   62CHL1    C1 7038   6.161   5.111   9.771  0.3089  0.8990  0.1804
   62CHL1   H1A 7039   6.268   5.134   9.755 -0.0206  0.6517 -3.2429
   62CHL1   H1B 7040   6.103   5.195   9.728  1.5195  2.2628  1.1524
   62CHL1    C2 7041   6.123   5.110   9.920  0.0526 -0.0571 -0.7183
   62CHL1   H2A 7042   6.127   5.212   9.963 -0.8987 -1.3534  2.7467
   62CHL1   H2B 7043   6.199   5.054   9.978  0.6133  1.1306 -0.2814
   62CHL1   C20 7044   6.317   5.034   9.014  0.1345  0.0271  0.1025
   62CHL1   H20 7045   6.406   5.016   9.078 -0.7660  1.2376  1.7824
   62CHL1   C21 7046   6.321   5.171   8.951 -0.4810 -1.0922 -0.3555
   62CHL1  H21A 7047   6.244   5.187   8.871 -1.0976 -1.1843  0.2090
   62CHL1  H21B 7048   6.419   5.183   8.900 -0.9450 -1.0721 -1.2785
   62CHL1  H21C 7049   6.326   5.251   9.027 -0.0690 -0.9252 -0.5584
   62CHL1   C22 7050   6.326   4.930   8.898  0.3427  0.0932 -0.1146
   62CHL1  H22A 7051   6.303   4.829   8.937  2.4441 -0.7115 -0.7862
   62CHL1  H22B 7052   6.254   4.939   8.814  2.0351 -1.1560 -1.7731
   62CHL1   C23 7053   6.470   4.916   8.833  0.3379 -0.1862  0.2681
   62CHL1  H23A 7054   6.505   4.993   8.761 -1.3592 -0.3526 -0.7814
   62CHL1  H23B 7055   6.546   4.898   8.912  0.9834  0.8495 -0.0976
   62CHL1   C24 7056   6.468   4.799   8.736 -0.5244  0.7955 -0.0086
   62CHL1  H24A 7057   6.442   4.716   8.806 -0.0240  0.6880  0.0588
   62CHL1  H24B 7058   6.385   4.801   8.663  0.8031  1.1400 -1.5645
   62CHL1   C25 7059   6.604   4.766   8.662  0.2170  0.0216  0.3310
   62CHL1   H25 7060   6.680   4.758   8.743  0.0503 -0.7852  0.4079
   62CHL1   C26 7061   6.598   4.629   8.594  0.5438  0.4482  0.5263
   62CHL1  H26A 7062   6.550   4.552   8.657  0.8633  0.0752  0.3160
   62CHL1  H26B 7063   6.541   4.631   8.498  1.9522 -0.7926 -0.3818
   62CHL1  H26C 7064   6.699   4.596   8.561  0.5013  1.6535 -0.9237
   62CHL1   C27 7065   6.649   4.868   8.559  0.0107  0.3325  0.3889
   62CHL1  H27A 7066   6.733   4.838   8.493 -0.7320  0.9000 -0.8563
   62CHL1  H27B 7067   6.553   4.886   8.507 -0.1781 -1.8402 -0.0958
   62CHL1  H27C 7068   6.677   4.966   8.605  0.2560  0.4160  0.0636
   63CHL1    C3 7069   3.569   1.983  10.204 -0.0334 -0.1422 -0.1152
   63CHL1    H3 7070   3.482   2.051  10.212 -2.2539 -2.8347  0.0386
   63CHL1    O3 7071   3.608   1.924  10.328 -0.0415 -0.0084 -0.3344
   63CHL1   H3' 7072   3.697   1.893  10.314  1.7860  3.0541  2.8215
   63CHL1    C4 7073   3.517   1.866  10.123  0.5774  0.3517 -0.2612
   63CHL1   H4A 7074   3.591   1.784  10.126  1.0919  0.8195  1.6920
   63CHL1   H4B 7075   3.431   1.828  10.182  0.7486  0.9663  0.4034
   63CHL1    C5 7076   3.490   1.905   9.978 -0.3882  0.3636  0.3523
   63CHL1    C6 7077   3.366   1.904   9.927 -0.2605  0.3975  0.1215
   63CHL1    H6 7078   3.289   1.865   9.995  2.1848 -2.7634  1.3592
   63CHL1    C7 7079   3.339   1.941   9.782  0.4222  0.1309 -0.3554
   63CHL1   H7A 7080   3.263   1.886   9.722 -0.7619  1.4533 -0.1264
   63CHL1   H7B 7081   3.307   2.047   9.785 -1.7402 -0.4786  0.4132
   63CHL1    C8 7082   3.470   1.931   9.694  0.5794  0.6887 -0.0389
   63CHL1    H8 7083   3.505   1.826   9.683  1.0866  0.5865  2.2079
   63CHL1   C14 7084   3.433   1.986   9.550 -0.1238 -0.3200  0.6835
   63CHL1   H14 7085   3.406   2.093   9.563  1.0294  0.2664 -1.3503
   63CHL1   C15 7086   3.319   1.924   9.463 -0.0498  0.5839 -0.3465
   63CHL1  H15A 7087   3.330   1.813   9.462 -0.7743  0.4098  2.2626
   63CHL1  H15B 7088   3.219   1.962   9.493  1.3259  2.8883  1.6834
   63CHL1   C16 7089   3.347   1.977   9.322 -1.4715  0.3103 -0.2045
   63CHL1  H16A 7090   3.355   1.891   9.252  0.7731 -0.2206  0.6099
   63CHL1  H16B 7091   3.267   2.035   9.272 -2.2856 -1.8143 -1.5058
   63CHL1   C17 7092   3.487   2.050   9.337 -0.1290 -0.0249  0.6971
   63CHL1   H17 7093   3.456   2.153   9.363 -2.2894 -0.9511  2.0808
   63CHL1   C13 7094   3.558   1.993   9.463 -0.0778  0.2725  0.2480
   63CHL1   C18 7095   3.619   1.855   9.428  0.4361  0.3836  0.3489
   63CHL1  H18A 7096   3.716   1.861   9.375  0.0698  0.3393 -0.3475
   63CHL1  H18B 7097   3.631   1.807   9.527  1.2155 -3.3226 -1.3763
   63CHL1  H18C 7098   3.557   1.795   9.358  2.1912 -0.9428 -0.1301
   63CHL1   C12 7099   3.671   2.085   9.523 -0.2131  0.1739 -0.2386
   63CHL1  H12A 7100   3.768   2.087   9.468  0.9821 -1.2076  1.7175
   63CHL1  H12B 7101   3.653   2.194   9.526  1.9430  0.5532  1.1680
   63CHL1   C11 7102   3.704   2.032   9.663 -0.1226 -0.0867 -0.5879
   63CHL1  H11A 7103   3.770   1.945   9.643  1.5915  0.8273  0.7531
   63CHL1  H11B 7104   3.774   2.106   9.708 -0.3550 -0.5814  0.6261
   63CHL1    C9 7105   3.579   2.015   9.756  0.4184 -0.1860 -0.0208
   63CHL1    H9 7106   3.537   2.117   9.764 -0.2897 -0.4335 -0.4842
   63CHL1   C10 7107   3.613   1.964   9.897 -0.4481  0.4410 -0.1057
   63CHL1   C19 7108   3.720   1.852   9.882  0.6810 -0.3880  0.1993
   63CHL1  H19A 7109   3.680   1.770   9.819 -2.4672  0.0663  1.3930
   63CHL1  H19B 7110   3.814   1.896   9.843 -0.9474  4.3027  0.8320
   63CHL1  H19C 7111   3.745   1.812   9.983  1.2478  0.5358  0.4442
   63CHL1    C1 7112   3.657   2.084   9.987  0.2278  0.1629  0.0790
   63CHL1   H1A 7113   3.754   2.119   9.947  0.1595  0.8950  0.5326
   63CHL1   H1B 7114   3.582   2.166   9.985  0.3793  0.2987  0.0010
   63CHL1    C2 7115   3.691   2.049  10.135  0.1067 -0.5730  0.0747
   63CHL1   H2A 7116   3.724   2.133  10.201  0.2359 -1.8580  1.7181
   63CHL1   H2B 7117   3.768   1.970  10.123  1.4407  0.8209 -0.8379
   63CHL1   C20 7118   3.568   2.058   9.210 -0.4878  0.4164  0.2354
   63CHL1   H20 7119   3.602   1.957   9.180 -0.8351  0.4361 -0.2328
   63CHL1   C21 7120   3.686   2.160   9.222  0.5664  0.0118 -0.1394
   63CHL1  H21A 7121   3.773   2.116   9.276 -0.0641 -0.2411  0.6735
   63CHL1  H21B 7122   3.648   2.250   9.273 -0.5957 -1.4940  1.7834
   63CHL1  H21C 7123   3.720   2.178   9.117 -1.3933 -0.0250 -0.8123
   63CHL1   C22 7124   3.470   2.095   9.095 -0.6423 -0.3118  0.0622
   63CHL1  H22A 7125   3.386   2.023   9.081  1.6795 -3.2113  0.0617
   63CHL1  H22B 7126   3.429   2.194   9.126  0.6506 -0.0112  0.8947
   63CHL1   C23 7127   3.532   2.112   8.954 -0.0845  0.2900 -0.5770
   63CHL1  H23A 7128   3.619   2.181   8.943  0.7223 -0.1111  2.3062
   63CHL1  H23B 7129   3.570   2.015   8.915 -0.5191  0.7773 -2.2898
   63CHL1   C24 7130   3.425   2.164   8.857 -0.2443  1.3075  0.4006
   63CHL1  H24A 7131   3.348   2.086   8.841  1.4492 -0.8928  2.3852
   63CHL1  H24B 7132   3.364   2.245   8.905 -1.3690  0.3518  0.6305
   63CHL1   C25 7133   3.487   2.195   8.720  0.0556 -0.1398 -0.5951
   63CHL1   H25 7134   3.556   2.278   8.746  2.5887 -2.5661  0.9949
   63CHL1   C26 7135   3.573   2.085   8.652  0.5234  0.8707  0.8084
   63CHL1  H26A 7136   3.509   1.997   8.630  1.2516  0.3107  0.9327
   63CHL1  H26B 7137   3.620   2.119   8.557 -0.6724  0.6768  0.1207
   63CHL1  H26C 7138   3.657   2.049   8.714 -0.2128 -2.1532  0.1840
   63CHL1   C27 7139   3.377   2.243   8.626  0.2360 -0.1169  0.2831
   63CHL1  H27A 7140   3.379   2.354   8.617  2.5387 -0.1472 -0.3083
   63CHL1  H27B 7141   3.388   2.193   8.527 -1.3610 -1.0219  0.5442
   63CHL1  H27C 7142   3.279   2.207   8.662  0.6911 -0.8037  0.8570
   64CHL1    C3 7143   0.662   2.040  10.010  0.2245 -0.8325  0.8044
   64CHL1    H3 7144   0.690   2.147  10.025  1.0286 -0.9280  0.0292
   64CHL1    O3 7145   0.668   1.972  10.132  0.6328  0.1708 -0.2444
   64CHL1   H3' 7146   0.576   1.985  10.158  0.4053 -2.0525  0.2873
   64CHL1    C4 7147   0.521   2.031   9.953 -0.3478  0.1594 -0.2004
   64CHL1   H4A 7148   0.498   1.924   9.937 -2.4891  0.8961 -2.9835
   64CHL1   H4B 7149   0.456   2.088  10.022  2.1072  1.0340  1.5336
   64CHL1    C5 7150   0.518   2.098   9.814  0.2461 -0.5060  0.7103
   64CHL1    C6 7151   0.454   2.217   9.790 -0.8859 -0.4305  0.5008
   64CHL1    H6 7152   0.407   2.266   9.876 -0.4242 -0.4116  0.7460
   64CHL1    C7 7153   0.447   2.276   9.654  0.3486  0.4080  0.0036
   64CHL1   H7A 7154   0.343   2.307   9.633  0.9769  1.5424 -1.5738
   64CHL1   H7B 7155   0.509   2.369   9.656 -0.9404  1.3078 -0.5011
   64CHL1    C8 7156   0.495   2.190   9.536  0.2313 -0.1437  0.5305
   64CHL1    H8 7157   0.410   2.117   9.535  0.0830  0.0033 -1.2749
   64CHL1   C14 7158   0.516   2.272   9.400 -0.3897  1.0286  0.4483
   64CHL1   H14 7159   0.595   2.347   9.422  0.1124  0.4931  0.4986
   64CHL1   C15 7160   0.395   2.340   9.340  0.1924 -0.5038  0.5638
   64CHL1  H15A 7161   0.306   2.274   9.333 -1.9272  2.0525  1.6200
   64CHL1  H15B 7162   0.381   2.435   9.395  1.8877  1.1727 -1.7046
   64CHL1   C16 7163   0.453   2.378   9.208 -0.1999 -0.8479  0.4258
   64CHL1  H16A 7164   0.370   2.393   9.135 -0.7244 -2.0022  0.7657
   64CHL1  H16B 7165   0.508   2.474   9.223 -0.1262 -0.6841 -0.8292
   64CHL1   C17 7166   0.567   2.281   9.169  0.0800  0.8083 -0.7980
   64CHL1   H17 7167   0.665   2.331   9.163 -0.0821  1.0544 -1.5148
   64CHL1   C13 7168   0.575   2.183   9.283  0.5629  0.3640 -0.2159
   64CHL1   C18 7169   0.472   2.066   9.251  0.0531 -0.2719 -0.1349
   64CHL1  H18A 7170   0.385   2.099   9.190  0.2411 -0.3711 -0.4606
   64CHL1  H18B 7171   0.531   1.990   9.195  0.4985  1.2251 -1.7655
   64CHL1  H18C 7172   0.440   2.019   9.347 -0.2071  0.2648  0.0432
   64CHL1   C12 7173   0.713   2.135   9.332  0.3685  0.3786  0.1640
   64CHL1  H12A 7174   0.757   2.075   9.249  2.0679 -0.9971  1.9757
   64CHL1  H12B 7175   0.776   2.225   9.349  2.6135 -0.8624 -1.1551
   64CHL1   C11 7176   0.705   2.046   9.458  0.7083  0.6661  0.1617
   64CHL1  H11A 7177   0.647   1.959   9.421  2.0193 -1.6871  3.2245
   64CHL1  H11B 7178   0.806   2.011   9.488 -0.4877 -3.4385  0.0554
   64CHL1    C9 7179   0.627   2.113   9.575  0.6608  0.1096  0.4481
   64CHL1    H9 7180   0.692   2.197   9.608  0.0839  0.1894  1.4190
   64CHL1   C10 7181   0.607   2.031   9.704 -0.0577 -0.6209  0.3213
   64CHL1   C19 7182   0.540   1.901   9.673  0.2670 -0.0415  0.3797
   64CHL1  H19A 7183   0.572   1.820   9.742  0.6315 -1.5698 -1.4975
   64CHL1  H19B 7184   0.429   1.909   9.662  0.2462  0.3394  0.8644
   64CHL1  H19C 7185   0.581   1.855   9.580  0.6246 -0.3420  0.6866
   64CHL1    C1 7186   0.742   2.012   9.766 -0.0301  0.5519 -0.6957
   64CHL1   H1A 7187   0.792   1.931   9.708 -1.2648 -0.2721 -0.6308
   64CHL1   H1B 7188   0.794   2.109   9.751 -3.1055  2.5555  0.7772
   64CHL1    C2 7189   0.749   1.968   9.917 -0.2059 -0.1320  1.0306
   64CHL1   H2A 7190   0.857   1.968   9.943  0.2096 -1.9637 -0.4782
   64CHL1   H2B 7191   0.724   1.860   9.910 -1.0669  0.0596  0.9855
   64CHL1   C20 7192   0.562   2.229   9.021  0.1288 -0.5178 -0.3286
   64CHL1   H20 7193   0.467   2.171   9.016  0.1495 -0.5692 -0.1119
   64CHL1   C21 7194   0.688   2.147   8.976  0.2203 -0.4726  0.0177
   64CHL1  H21A 7195   0.717   2.070   9.051 -0.3987 -0.5928  0.1363
   64CHL1  H21B 7196   0.781   2.205   8.959  1.4166 -1.7747  1.7800
   64CHL1  H21C 7197   0.664   2.105   8.876 -2.3002  2.5382 -0.8127
   64CHL1   C22 7198   0.537   2.347   8.930 -0.0622  0.7211  0.5406
   64CHL1  H22A 7199   0.488   2.433   8.981  2.8711  1.4053  2.4290
   64CHL1  H22B 7200   0.632   2.391   8.892  0.6642  0.8783  2.4481
   64CHL1   C23 7201   0.465   2.302   8.803  0.1045 -0.6631  0.6796
   64CHL1  H23A 7202   0.519   2.219   8.754  1.4883 -0.4238  1.7340
   64CHL1  H23B 7203   0.357   2.280   8.818  0.4035 -3.6517 -0.8723
   64CHL1   C24 7204   0.460   2.425   8.705  0.2463 -0.5187  0.0660
   64CHL1  H24A 7205   0.416   2.515   8.753  0.2346  1.4828 -3.3846
   64CHL1  H24B 7206   0.557   2.460   8.665  0.8572 -0.9489  1.1062
   64CHL1   C25 7207   0.370   2.391   8.591 -0.3471 -0.6004 -0.3202
   64CHL1   H25 7208   0.273   2.355   8.631 -0.7201  1.0794  0.3898
   64CHL1   C26 7209   0.329   2.508   8.504 -0.2492  0.7506 -0.8445
   64CHL1  H26A 7210   0.273   2.471   8.416  1.2965 -0.6388 -1.3045
   64CHL1  H26B 7211   0.261   2.570   8.567  1.1738  0.0702  1.5040
   64CHL1  H26C 7212   0.406   2.584   8.479 -0.1709  0.8499 -0.3274
   64CHL1   C27 7213   0.440   2.295   8.500 -0.8654 -0.0107  0.5219
   64CHL1  H27A 7214   0.463   2.200   8.552  0.4463 -0.1648 -0.2813
   64CHL1  H27B 7215   0.363   2.261   8.427 -1.1651  4.3438 -1.4958
   64CHL1  H27C 7216   0.531   2.336   8.451 -0.5207 -0.9913  0.3304
   65CHL1    C3 7217   3.725   2.787  10.133 -0.1820 -0.3258  0.4360
   65CHL1    H3 7218   3.701   2.685  10.096  1.0426  0.2352 -2.2227
   65CHL1    O3 7219   3.703   2.807  10.268  0.0276  0.6540  0.5934
   65CHL1   H3' 7220   3.650   2.886  10.276  1.9710  2.0308  0.5532
   65CHL1    C4 7221   3.876   2.819  10.084  1.1471  0.5766 -1.3542
   65CHL1   H4A 7222   3.889   2.925  10.115  0.4155  0.7831 -1.7294
   65CHL1   H4B 7223   3.955   2.762  10.136  1.1323 -1.2827 -3.2396
   65CHL1    C5 7224   3.895   2.814   9.937  0.4905 -0.4446 -0.1845
   65CHL1    C6 7225   3.992   2.736   9.881 -0.5387 -0.1258  0.2473
   65CHL1    H6 7226   4.049   2.669   9.948 -2.5990 -1.8901  0.3536
   65CHL1    C7 7227   4.018   2.737   9.738 -0.8333  0.1659  0.5101
   65CHL1   H7A 7228   4.125   2.727   9.710 -0.6790  1.9705  0.3419
   65CHL1   H7B 7229   3.965   2.652   9.692  1.2192  0.3039 -2.4318
   65CHL1    C8 7230   3.964   2.861   9.664 -0.1274  0.1258 -0.0737
   65CHL1    H8 7231   4.039   2.942   9.680 -0.3682  0.5216 -0.8515
   65CHL1   C14 7232   3.962   2.826   9.515 -0.2728  0.2379  0.3061
   65CHL1   H14 7233   3.885   2.746   9.512  0.0279 -0.2567  3.0345
   65CHL1   C15 7234   4.096   2.783   9.446  0.7286 -0.7432  0.4022
   65CHL1  H15A 7235   4.182   2.844   9.478 -0.9603  2.5299 -0.8553
   65CHL1  H15B 7236   4.113   2.676   9.471  0.7613 -1.0539 -0.8868
   65CHL1   C16 7237   4.076   2.799   9.297  0.9595 -0.6625  0.1868
   65CHL1  H16A 7238   4.157   2.857   9.249  0.3996 -1.3880 -1.7278
   65CHL1  H16B 7239   4.070   2.699   9.248  0.7513 -0.0032 -1.1550
   65CHL1   C17 7240   3.927   2.858   9.287 -0.1813 -0.0794  1.0302
   65CHL1   H17 7241   3.857   2.772   9.290 -1.2395  0.7902  1.8388
   65CHL1   C13 7242   3.903   2.931   9.419  1.1171  0.2311 -0.8969
   65CHL1   C18 7243   3.973   3.065   9.449 -0.3556  0.0196 -0.0139
   65CHL1  H18A 7244   3.940   3.137   9.371 -2.6190  0.4778  1.2935
   65CHL1  H18B 7245   3.955   3.111   9.549  0.7930  0.4868 -0.0070
   65CHL1  H18C 7246   4.083   3.050   9.450 -0.3376 -0.4711  3.8782
   65CHL1   C12 7247   3.750   2.936   9.466 -0.3623 -0.3479 -0.0043
   65CHL1  H12A 7248   3.685   3.011   9.415 -1.2842  0.0525  1.6881
   65CHL1  H12B 7249   3.713   2.832   9.451  0.9340 -0.5883 -1.9708
   65CHL1   C11 7250   3.734   2.983   9.617  0.5472  0.1124  0.3102
   65CHL1  H11A 7251   3.762   3.090   9.628  0.0193  0.1972  0.8814
   65CHL1  H11B 7252   3.624   2.984   9.627  0.4565  1.5027 -0.6475
   65CHL1    C9 7253   3.815   2.888   9.709  0.4314 -0.0619 -0.4454
   65CHL1    H9 7254   3.765   2.790   9.696 -1.7387  0.8009  0.6909
   65CHL1   C10 7255   3.806   2.908   9.859  0.2565  0.2051 -0.6720
   65CHL1   C19 7256   3.871   3.048   9.884 -0.0408  0.2520  0.2625
   65CHL1  H19A 7257   3.823   3.132   9.828  0.8417  0.7894  0.2894
   65CHL1  H19B 7258   3.875   3.087   9.988 -0.5155  2.6975 -0.5716
   65CHL1  H19C 7259   3.974   3.051   9.843  0.5985  0.7886  1.8614
   65CHL1    C1 7260   3.662   2.884   9.920 -0.2147 -0.4603  0.5865
   65CHL1   H1A 7261   3.599   2.958   9.866 -0.7066 -2.2205 -1.4084
   65CHL1   H1B 7262   3.614   2.793   9.878  0.4818 -0.2493 -0.7241
   65CHL1    C2 7263   3.639   2.884  10.067  0.6395 -0.0588 -0.1707
   65CHL1   H2A 7264   3.530   2.877  10.086  0.4047  2.3756 -0.3962
   65CHL1   H2B 7265   3.680   2.983  10.095  1.6715 -0.5386  0.0767
   65CHL1   C20 7266   3.900   2.940   9.158  0.5239  0.2275 -0.1993
   65CHL1   H20 7267   3.816   3.007   9.183  0.0015 -0.5608  0.1958
   65CHL1   C21 7268   3.866   2.834   9.052  0.6120 -0.4452 -0.2353
   65CHL1  H21A 7269   3.957   2.795   9.001 -0.4995 -3.8671  0.2034
   65CHL1  H21B 7270   3.795   2.883   8.982 -0.6838 -2.2055 -0.2228
   65CHL1  H21C 7271   3.803   2.752   9.092 -1.8714  1.4045 -0.0699
   65CHL1   C22 7272   4.022   3.034   9.118 -0.4152  0.0905  0.7514
   65CHL1  H22A 7273   4.081   3.083   9.198  0.8028 -2.9577  1.8795
   65CHL1  H22B 7274   4.096   2.968   9.068 -1.7556 -1.2429  0.4642
   65CHL1   C23 7275   3.983   3.133   9.009 -0.0899 -0.1989 -0.4133
   65CHL1  H23A 7276   3.924   3.084   8.929 -1.3279 -0.8311  0.8545
   65CHL1  H23B 7277   3.912   3.205   9.055  0.3411 -0.2856  0.4164
   65CHL1   C24 7278   4.097   3.202   8.940 -1.1332  0.0792  0.5637
   65CHL1  H24A 7279   4.139   3.290   8.992  1.2677 -2.1891  2.8000
   65CHL1  H24B 7280   4.174   3.124   8.919 -2.0869 -0.5218 -0.9333
   65CHL1   C25 7281   4.061   3.248   8.797  0.1888 -0.0641  0.2366
   65CHL1   H25 7282   4.039   3.158   8.735  0.4784  1.6925 -2.5963
   65CHL1   C26 7283   3.926   3.322   8.786 -0.1457  0.4794  0.0173
   65CHL1  H26A 7284   3.907   3.333   8.677 -0.4088  4.1810  0.3125
   65CHL1  H26B 7285   3.840   3.273   8.835  0.7843 -0.1395  1.0676
   65CHL1  H26C 7286   3.932   3.427   8.822 -0.8063  0.6605 -0.3890
   65CHL1   C27 7287   4.172   3.344   8.730  0.4426 -0.1953 -0.5180
   65CHL1  H27A 7288   4.131   3.363   8.629 -2.0021  0.3415  0.5077
   65CHL1  H27B 7289   4.182   3.441   8.784 -0.4116 -0.5017  0.2141
   65CHL1  H27C 7290   4.267   3.287   8.723 -0.8940 -2.3458 -3.8363
   66CHL1    C3 7291   3.395   2.354  10.345  0.5175  0.5788  0.3738
   66CHL1    H3 7292   3.419   2.247  10.331 -1.8602  0.1387 -0.9079
   66CHL1    O3 7293   3.383   2.379  10.486  0.0192  0.0094  0.3282
   66CHL1   H3' 7294   3.385   2.475  10.484  0.1258  0.0003 -0.6361
   66CHL1    C4 7295   3.503   2.437  10.279 -0.3869 -0.0671  0.1486
   66CHL1   H4A 7296   3.492   2.545  10.306  1.6763 -0.1914  1.7565
   66CHL1   H4B 7297   3.602   2.415  10.324 -0.7468  0.0957  1.0644
   66CHL1    C5 7298   3.505   2.441  10.131 -0.7449 -0.1252  0.1149
   66CHL1    C6 7299   3.623   2.426  10.078 -0.2858 -0.3032  1.2421
   66CHL1    H6 7300   3.715   2.425  10.138  0.1919 -1.0758  0.5245
   66CHL1    C7 7301   3.643   2.454   9.930 -0.5640  0.0583 -0.1953
   66CHL1   H7A 7302   3.717   2.536   9.919  0.8957 -1.3265 -1.0986
   66CHL1   H7B 7303   3.699   2.367   9.890 -0.5626 -0.4786  0.9298
   66CHL1    C8 7304   3.516   2.488   9.851 -0.1788  0.6440 -0.6335
   66CHL1    H8 7305   3.512   2.599   9.850  0.5547  0.7147  1.0503
   66CHL1   C14 7306   3.531   2.450   9.700  0.2258 -0.2742  0.5150
   66CHL1   H14 7307   3.515   2.341   9.694 -0.2687 -0.1287 -3.5945
   66CHL1   C15 7308   3.652   2.505   9.630 -0.1678  0.0780  0.7874
   66CHL1  H15A 7309   3.668   2.611   9.661 -1.2703  0.6126 -0.3832
   66CHL1  H15B 7310   3.736   2.435   9.648 -2.3387 -3.0262 -0.3661
   66CHL1   C16 7311   3.620   2.511   9.479 -0.2869 -0.1997  0.6125
   66CHL1  H16A 7312   3.635   2.613   9.438 -2.0224 -0.5839 -1.0924
   66CHL1  H16B 7313   3.667   2.430   9.419  1.1062  0.5974  0.5677
   66CHL1   C17 7314   3.465   2.475   9.472  0.1558 -0.4244  0.7899
   66CHL1   H17 7315   3.455   2.365   9.459  0.1386 -0.3508  0.1712
   66CHL1   C13 7316   3.411   2.504   9.617  0.0349 -0.2830 -0.1328
   66CHL1   C18 7317   3.390   2.661   9.632 -0.5538 -0.3639  0.4144
   66CHL1  H18A 7318   3.365   2.699   9.733  1.4902  0.0788  0.8158
   66CHL1  H18B 7319   3.464   2.734   9.592 -0.8829  0.3624  1.1064
   66CHL1  H18C 7320   3.302   2.688   9.571  0.7616  3.5183 -0.0107
   66CHL1   C12 7321   3.283   2.430   9.663  0.1138  0.6231 -0.1109
   66CHL1  H12A 7322   3.200   2.474   9.605  0.4702  1.2980 -0.1260
   66CHL1  H12B 7323   3.292   2.321   9.647  0.3032  0.3632  1.5761
   66CHL1   C11 7324   3.256   2.454   9.818  0.8073 -0.1146  0.6904
   66CHL1  H11A 7325   3.234   2.562   9.815  0.2731 -0.2330 -1.1895
   66CHL1  H11B 7326   3.169   2.394   9.853  1.3589 -1.1189  0.4095
   66CHL1    C9 7327   3.383   2.425   9.909  0.1914  0.1474 -0.3520
   66CHL1    H9 7328   3.399   2.316   9.898  1.6806  0.3411 -0.3654
   66CHL1   C10 7329   3.371   2.460  10.057 -0.2496  0.4320 -0.0852
   66CHL1   C19 7330   3.344   2.614  10.073 -0.2713  0.0345  0.1713
   66CHL1  H19A 7331   3.428   2.670  10.025 -1.0905 -0.2906 -1.7610
   66CHL1  H19B 7332   3.243   2.651  10.047  0.0920  1.7394  1.0565
   66CHL1  H19C 7333   3.359   2.639  10.180 -0.5290  0.5069  0.1019
   66CHL1    C1 7334   3.254   2.381  10.127  0.0211 -0.0095  0.5222
   66CHL1   H1A 7335   3.156   2.419  10.092 -0.0796 -1.7478 -1.2284
   66CHL1   H1B 7336   3.267   2.280  10.083 -0.2670 -0.0055  0.4272
   66CHL1    C2 7337   3.260   2.381  10.284  0.0874  1.0913  0.3970
   66CHL1   H2A 7338   3.184   2.310  10.324  0.5297  0.1647 -0.3466
   66CHL1   H2B 7339   3.245   2.489  10.303  1.3969  2.0002 -2.9758
   66CHL1   C20 7340   3.400   2.544   9.353 -0.2036 -0.0147 -0.3743
   66CHL1   H20 7341   3.377   2.651   9.369 -2.6533 -0.8329  2.6441
   66CHL1   C21 7342   3.267   2.474   9.317 -0.1820 -0.2582 -0.3137
   66CHL1  H21A 7343   3.294   2.379   9.266 -0.9527 -0.3329 -0.5892
   66CHL1  H21B 7344   3.210   2.533   9.242 -0.2515  2.5341  1.7891
   66CHL1  H21C 7345   3.213   2.450   9.412  0.7267 -1.3669 -0.0513
   66CHL1   C22 7346   3.485   2.532   9.221  0.0269 -0.5152 -0.2721
   66CHL1  H22A 7347   3.589   2.570   9.230 -0.3227  0.4596 -0.2271
   66CHL1  H22B 7348   3.494   2.423   9.203  0.3391 -0.6308  0.5418
   66CHL1   C23 7349   3.431   2.609   9.106  1.0729  0.3442  0.2441
   66CHL1  H23A 7350   3.328   2.576   9.080  0.8094  2.4383 -1.5988
   66CHL1  H23B 7351   3.419   2.717   9.128  2.4815  0.8885 -1.4649
   66CHL1   C24 7352   3.518   2.592   8.973  0.0365 -0.1114 -1.2397
   66CHL1  H24A 7353   3.605   2.655   9.004 -1.9167  1.8742  0.6110
   66CHL1  H24B 7354   3.538   2.483   8.963  2.4125  0.1210  0.1479
   66CHL1   C25 7355   3.440   2.649   8.850  0.3262 -0.4276 -0.0771
   66CHL1   H25 7356   3.403   2.744   8.894 -0.8059 -1.7883  2.1357
   66CHL1   C26 7357   3.529   2.672   8.723  0.5497 -0.8134 -0.1203
   66CHL1  H26A 7358   3.565   2.573   8.688  2.5167 -0.3518  0.4482
   66CHL1  H26B 7359   3.479   2.721   8.637 -1.0249 -0.8649  0.7428
   66CHL1  H26C 7360   3.618   2.737   8.737  1.6207 -1.9684 -1.2909
   66CHL1   C27 7361   3.316   2.565   8.809  0.4516 -0.0609  0.1989
   66CHL1  H27A 7362   3.238   2.574   8.888 -0.6428  0.3730 -0.9129
   66CHL1  H27B 7363   3.281   2.594   8.708 -1.5254 -2.1715  0.2196
   66CHL1  H27C 7364   3.345   2.459   8.797 -1.9298 -0.8164  0.6753
   67CHL1    C3 7365   5.041   0.991  10.049  0.7074 -0.4523  0.1433
   67CHL1    H3 7366   5.075   1.096  10.038 -2.0777  0.4790 -0.4834
   67CHL1    O3 7367   5.061   0.955  10.184 -0.1033 -0.5306  0.0987
   67CHL1   H3' 7368   5.045   0.861  10.188  1.1546 -0.7502  0.2760
   67CHL1    C4 7369   4.893   0.994  10.000  0.4918  0.4506  0.0037
   67CHL1   H4A 7370   4.863   0.888  10.012 -1.0621  1.1542  3.4739
   67CHL1   H4B 7371   4.830   1.050  10.072  1.1461 -0.0243  0.9738
   67CHL1    C5 7372   4.885   1.044   9.854 -0.9103 -0.4958  0.3894
   67CHL1    C6 7373   4.804   1.142   9.824 -0.1336 -0.0418  0.9543
   67CHL1    H6 7374   4.747   1.205   9.894 -0.1450  0.1873  0.7408
   67CHL1    C7 7375   4.781   1.163   9.675 -0.0791 -1.2758 -0.4348
   67CHL1   H7A 7376   4.672   1.180   9.666  0.0331  0.5179  1.1066
   67CHL1   H7B 7377   4.839   1.254   9.649 -1.0821 -0.1203  1.2264
   67CHL1    C8 7378   4.828   1.064   9.566 -0.4150 -0.4050 -0.2949
   67CHL1    H8 7379   4.761   0.975   9.564 -0.3076 -0.4790 -0.7664
   67CHL1   C14 7380   4.837   1.119   9.429 -0.0667  0.0928  0.1053
   67CHL1   H14 7381   4.914   1.199   9.430  0.9019 -0.8197  0.9696
   67CHL1   C15 7382   4.708   1.188   9.371 -0.1504 -0.3303 -0.4109
   67CHL1  H15A 7383   4.625   1.125   9.409 -1.9896  0.3692 -3.0112
   67CHL1  H15B 7384   4.714   1.288   9.420  0.5297 -0.1753 -0.7845
   67CHL1   C16 7385   4.728   1.181   9.221  0.3513 -0.2412 -0.1517
   67CHL1  H16A 7386   4.637   1.128   9.187 -0.2177  0.3983  0.3560
   67CHL1  H16B 7387   4.733   1.269   9.153  0.7410 -1.4948 -1.8182
   67CHL1   C17 7388   4.860   1.100   9.194  0.5147 -0.2807  0.0110
   67CHL1   H17 7389   4.941   1.174   9.208  1.3291 -1.6214  3.5405
   67CHL1   C13 7390   4.881   1.018   9.321  0.1858 -0.4303 -0.6065
   67CHL1   C18 7391   4.772   0.904   9.317  0.2252 -0.3572  0.6436
   67CHL1  H18A 7392   4.666   0.937   9.309  0.6962  0.7459 -2.2666
   67CHL1  H18B 7393   4.794   0.836   9.231  0.5148  0.2122  0.2580
   67CHL1  H18C 7394   4.783   0.837   9.405  0.1032 -1.0871  0.1158
   67CHL1   C12 7395   5.025   0.978   9.354 -0.1558  0.4707  0.0574
   67CHL1  H12A 7396   5.069   0.903   9.285 -2.5161 -0.2010 -0.8172
   67CHL1  H12B 7397   5.086   1.070   9.346  1.2958 -0.4259  0.4465
   67CHL1   C11 7398   5.031   0.923   9.498 -0.9105 -0.5248 -0.0966
   67CHL1  H11A 7399   4.978   0.826   9.505 -2.3156  0.2909  1.5075
   67CHL1  H11B 7400   5.135   0.903   9.529 -0.8879  0.6143  0.6526
   67CHL1    C9 7401   4.970   1.016   9.608 -0.1909 -0.5537  0.3591
   67CHL1    H9 7402   5.033   1.107   9.615 -0.3084 -0.4454  0.0302
   67CHL1   C10 7403   4.972   0.954   9.755  1.6256  0.0551  0.1229
   67CHL1   C19 7404   4.908   0.813   9.757 -0.4607  0.2783 -0.0620
   67CHL1  H19A 7405   4.804   0.820   9.718 -1.1436 -1.0627  1.4314
   67CHL1  H19B 7406   4.960   0.738   9.693 -0.0049 -0.9617  1.6839
   67CHL1  H19C 7407   4.906   0.763   9.856  1.1965  1.2750  0.5185
   67CHL1    C1 7408   5.114   0.951   9.811  0.3170 -0.5416  0.2754
   67CHL1   H1A 7409   5.182   0.907   9.734 -0.5470 -1.8810  0.2623
   67CHL1   H1B 7410   5.152   1.056   9.813  1.3736 -0.8961 -0.2072
   67CHL1    C2 7411   5.123   0.902   9.955 -0.0083 -0.3991 -0.4982
   67CHL1   H2A 7412   5.229   0.906   9.990  0.7438 -2.6410 -2.2981
   67CHL1   H2B 7413   5.105   0.793   9.964  2.2991 -0.7244  1.1039
   67CHL1   C20 7414   4.868   1.030   9.057  0.1038  0.5682  0.8940
   67CHL1   H20 7415   4.837   0.923   9.068  0.3460  0.3718 -0.1998
   67CHL1   C21 7416   5.018   1.026   9.021  0.2559  0.2600  0.3645
   67CHL1  H21A 7417   5.045   1.119   8.967  1.8300  0.1949  0.9804
   67CHL1  H21B 7418   5.034   0.939   8.954 -2.3885 -0.8660  1.0674
   67CHL1  H21C 7419   5.066   1.016   9.121 -2.0651 -0.6494  1.4710
   67CHL1   C22 7420   4.783   1.087   8.938 -0.0975  0.3403 -0.2092
   67CHL1  H22A 7421   4.678   1.112   8.962 -0.3012  0.9587 -1.6534
   67CHL1  H22B 7422   4.833   1.183   8.914 -0.3377  0.5896  0.2907
   67CHL1   C23 7423   4.777   1.003   8.805  0.2658  0.4763  1.0366
   67CHL1  H23A 7424   4.879   0.973   8.772  0.1210 -1.6066  2.3164
   67CHL1  H23B 7425   4.726   0.907   8.828 -0.5624  0.0199 -2.2743
   67CHL1   C24 7426   4.702   1.081   8.707 -0.6476 -0.6320 -0.4157
   67CHL1  H24A 7427   4.600   1.111   8.738 -0.5454 -0.5992 -0.0978
   67CHL1  H24B 7428   4.761   1.174   8.688 -1.1756 -0.6387 -2.2039
   67CHL1   C25 7429   4.675   1.023   8.567 -0.7396 -0.3492  0.4362
   67CHL1   H25 7430   4.615   0.931   8.586  0.6496 -1.5381 -0.7370
   67CHL1   C26 7431   4.591   1.125   8.485  0.1811 -0.1673  0.3824
   67CHL1  H26A 7432   4.560   1.083   8.387  1.1788  0.4299 -0.2111
   67CHL1  H26B 7433   4.504   1.156   8.546  0.8500  0.1243  1.2068
   67CHL1  H26C 7434   4.650   1.213   8.453 -1.2499  0.2560 -1.2405
   67CHL1   C27 7435   4.800   0.992   8.484 -0.7204 -0.2797 -0.2852
   67CHL1  H27A 7436   4.774   0.983   8.377 -0.7228 -0.2792 -0.2852
   67CHL1  H27B 7437   4.882   1.068   8.486 -0.7298 -0.2747  0.8960
   67CHL1  H27C 7438   4.839   0.892   8.513  0.6356  0.5724  0.9688
   68CHL1    C3 7439   2.854   2.544  10.075 -0.0756 -0.1255 -0.0655
   68CHL1    H3 7440   2.965   2.546  10.071 -0.0554  3.0344 -0.0100
   68CHL1    O3 7441   2.822   2.513  10.211  0.1754 -0.4702 -0.0822
   68CHL1   H3' 7442   2.792   2.421  10.212 -0.8865 -0.1309  0.8226
   68CHL1    C4 7443   2.813   2.680  10.032  0.1842 -0.5799 -0.0560
   68CHL1   H4A 7444   2.702   2.672  10.033  0.1675 -0.3876  1.5508
   68CHL1   H4B 7445   2.839   2.755  10.110  1.0681 -1.0635  0.1173
   68CHL1    C5 7446   2.854   2.697   9.892  0.4973 -0.4578 -0.2611
   68CHL1    C6 7447   2.941   2.795   9.861 -0.0107  0.0558 -0.6389
   68CHL1    H6 7448   2.981   2.861   9.939  0.0317 -1.4409  0.6493
   68CHL1    C7 7449   2.986   2.831   9.719 -0.3542 -0.4677 -0.5702
   68CHL1   H7A 7450   2.980   2.942   9.715 -0.8024 -0.4613  0.1084
   68CHL1   H7B 7451   3.089   2.793   9.708 -0.1109  0.0496 -0.1226
   68CHL1    C8 7452   2.894   2.766   9.616  0.0329 -0.1036  0.1784
   68CHL1    H8 7453   2.797   2.819   9.611 -1.4295 -2.7043 -0.7892
   68CHL1   C14 7454   2.963   2.777   9.476  0.3055  0.0719 -0.7167
   68CHL1   H14 7455   3.059   2.721   9.483  0.7147  0.7818 -0.4716
   68CHL1   C15 7456   3.011   2.923   9.439 -0.2109 -0.8553 -0.3199
   68CHL1  H15A 7457   2.934   2.994   9.474 -0.0603 -1.1055  0.5571
   68CHL1  H15B 7458   3.107   2.960   9.481  0.4160  0.4633 -2.7310
   68CHL1   C16 7459   3.019   2.909   9.287 -0.8305 -0.3013  0.1275
   68CHL1  H16A 7460   2.976   2.991   9.226  0.0540 -1.5930 -2.3635
   68CHL1  H16B 7461   3.125   2.924   9.255 -0.9179  0.6832  0.2682
   68CHL1   C17 7462   2.962   2.773   9.243  0.0821 -0.0107 -0.2952
   68CHL1   H17 7463   3.055   2.713   9.250  0.2740  0.3245  0.1202
   68CHL1   C13 7464   2.885   2.721   9.360  0.4408 -0.8219  0.2605
   68CHL1   C18 7465   2.739   2.779   9.347  0.4498 -0.0249 -1.0595
   68CHL1  H18A 7466   2.738   2.884   9.312  0.6915 -0.1265 -1.3748
   68CHL1  H18B 7467   2.695   2.710   9.273 -3.7985  1.9492 -0.6694
   68CHL1  H18C 7468   2.680   2.767   9.441  0.0033 -0.0739 -1.3462
   68CHL1   C12 7469   2.874   2.569   9.383 -0.1485 -0.3317 -0.0120
   68CHL1  H12A 7470   2.829   2.519   9.294 -0.7797  0.2441 -0.0297
   68CHL1  H12B 7471   2.978   2.531   9.386 -0.3584 -0.8516  1.3952
   68CHL1   C11 7472   2.810   2.543   9.520 -0.3197 -0.4180 -1.0174
   68CHL1  H11A 7473   2.700   2.544   9.506 -0.1962 -1.8245 -2.3003
   68CHL1  H11B 7474   2.821   2.435   9.545 -0.1507 -0.2126 -0.1528
   68CHL1    C9 7475   2.878   2.618   9.639 -0.0577 -0.1795 -0.5931
   68CHL1    H9 7476   2.981   2.578   9.647  0.0980  0.4156  0.6922
   68CHL1   C10 7477   2.811   2.596   9.781  0.3100  0.7526  0.0624
   68CHL1   C19 7478   2.657   2.595   9.757  0.4354 -0.5084  0.8820
   68CHL1  H19A 7479   2.605   2.578   9.854  2.0828 -1.7647  1.6030
   68CHL1  H19B 7480   2.626   2.685   9.700 -1.0904 -0.1665  2.1889
   68CHL1  H19C 7481   2.643   2.505   9.693  2.4242 -0.5337  0.3969
   68CHL1    C1 7482   2.847   2.460   9.839  0.0142 -0.2153 -0.2587
   68CHL1   H1A 7483   2.803   2.380   9.776  1.4820 -1.5670  0.3837
   68CHL1   H1B 7484   2.957   2.448   9.831 -0.1266 -0.9618 -1.2054
   68CHL1    C2 7485   2.792   2.439   9.986 -0.6866 -0.2138  0.5532
   68CHL1   H2A 7486   2.823   2.337  10.017 -1.8037 -0.8012 -0.1982
   68CHL1   H2B 7487   2.682   2.448   9.988 -0.7874 -0.5017 -1.5070
   68CHL1   C20 7488   2.901   2.768   9.098  0.4047  0.6165 -0.1543
   68CHL1   H20 7489   2.811   2.833   9.103  0.7819  1.1506 -0.0801
   68CHL1   C21 7490   2.875   2.625   9.056 -0.0462  0.3875 -0.2301
   68CHL1  H21A 7491   2.789   2.579   9.108  0.3740 -1.9286 -1.4436
   68CHL1  H21B 7492   2.968   2.566   9.068 -0.0938  0.3289 -0.1505
   68CHL1  H21C 7493   2.849   2.630   8.948  0.7442 -0.7758 -0.4897
   68CHL1   C22 7494   3.001   2.831   9.001 -0.2270  0.1475  0.0882
   68CHL1  H22A 7495   3.042   2.925   9.044  0.0283  0.0139  0.1390
   68CHL1  H22B 7496   3.080   2.753   9.001  0.8406  1.1915  0.9083
   68CHL1   C23 7497   2.950   2.865   8.864  0.0380  0.5318  0.3529
   68CHL1  H23A 7498   2.876   2.786   8.835  2.1805 -1.7069  0.6387
   68CHL1  H23B 7499   2.903   2.965   8.856  0.2146  0.4711 -2.5197
   68CHL1   C24 7500   3.049   2.852   8.749  0.7918  0.5956  0.4020
   68CHL1  H24A 7501   3.118   2.938   8.766  1.3818  0.4993 -1.2470
   68CHL1  H24B 7502   3.098   2.752   8.752 -0.3855 -0.0482 -0.9508
   68CHL1   C25 7503   2.988   2.855   8.609 -0.6077 -0.5306 -0.5539
   68CHL1   H25 7504   2.925   2.763   8.604  0.5465 -1.3584 -0.2151
   68CHL1   C26 7505   2.908   2.982   8.579  0.0132 -0.4805  0.7009
   68CHL1  H26A 7506   2.818   2.991   8.642 -1.2745  0.2480 -1.1474
   68CHL1  H26B 7507   2.986   3.060   8.591 -1.3264  1.1827 -0.8705
   68CHL1  H26C 7508   2.881   2.984   8.471  2.3687  0.3193  0.0561
   68CHL1   C27 7509   3.098   2.853   8.500 -0.6743 -0.0382  0.5015
   68CHL1  H27A 7510   3.162   2.943   8.508  1.6829 -1.6717  0.9860
   68CHL1  H27B 7511   3.171   2.769   8.507  1.3503  1.7369  1.7299
   68CHL1  H27C 7512   3.075   2.847   8.392  1.4536 -1.6506  0.0797
   69CHL1    C3 7513   2.335   1.817   6.720 -0.4824 -0.8434  0.5042
   69CHL1    H3 7514   2.249   1.760   6.762 -1.1682  0.1216  0.4394
   69CHL1    O3 7515   2.332   1.829   6.580  0.2998 -0.3424  0.1052
   69CHL1   H3' 7516   2.328   1.743   6.538 -0.9057 -1.5349  2.4718
   69CHL1    C4 7517   2.335   1.961   6.772 -0.3579 -0.2819  0.7530
   69CHL1   H4A 7518   2.413   2.029   6.733  1.5170 -1.2134  2.6408
   69CHL1   H4B 7519   2.232   1.992   6.746  0.9887  2.0833 -2.2757
   69CHL1    C5 7520   2.344   1.971   6.921 -0.4493  0.1294  0.6598
   69CHL1    C6 7521   2.259   2.038   6.990  0.1405  0.4969 -0.5889
   69CHL1    H6 7522   2.190   2.106   6.937  0.1159  1.5201  0.6982
   69CHL1    C7 7523   2.258   2.060   7.133 -0.5245  0.3227 -0.2526
   69CHL1   H7A 7524   2.235   2.168   7.141  0.8814  0.7120 -1.1657
   69CHL1   H7B 7525   2.184   1.987   7.174 -1.6525  1.2142 -0.6438
   69CHL1    C8 7526   2.395   2.033   7.192  0.0184  0.9773  0.1713
   69CHL1    H8 7527   2.469   2.112   7.165  0.7321 -0.7555 -3.8359
   69CHL1   C14 7528   2.387   2.035   7.343 -0.5048 -0.7614 -0.1116
   69CHL1   H14 7529   2.314   1.956   7.371 -0.7320 -0.0476  1.4468
   69CHL1   C15 7530   2.331   2.163   7.405 -0.2692  0.3810 -0.2038
   69CHL1  H15A 7531   2.390   2.252   7.371  0.1688  1.0760  2.1810
   69CHL1  H15B 7532   2.222   2.163   7.389 -0.5045 -0.0072  1.2813
   69CHL1   C16 7533   2.375   2.147   7.553 -0.0672  0.2401  0.1101
   69CHL1  H16A 7534   2.441   2.232   7.583  1.2319  0.0547 -2.0455
   69CHL1  H16B 7535   2.294   2.150   7.629  1.0437  1.5514  1.3315
   69CHL1   C17 7536   2.472   2.025   7.562  0.3827  0.0976  0.9153
   69CHL1   H17 7537   2.410   1.935   7.577  2.8546 -2.0811 -0.9673
   69CHL1   C13 7538   2.520   2.010   7.415  0.6109  0.8416  0.3650
   69CHL1   C18 7539   2.634   2.111   7.382 -0.0706  0.1467  0.7438
   69CHL1  H18A 7540   2.728   2.072   7.425  0.2942 -0.2379 -0.3740
   69CHL1  H18B 7541   2.643   2.117   7.271 -1.6146 -0.1610  0.5773
   69CHL1  H18C 7542   2.617   2.211   7.429 -1.0247 -0.8528  2.6296
   69CHL1   C12 7543   2.566   1.866   7.380 -0.5260 -0.0681  0.3593
   69CHL1  H12A 7544   2.668   1.841   7.416  0.0487  0.7100 -0.6778
   69CHL1  H12B 7545   2.488   1.796   7.417 -1.1991  0.4719 -0.0029
   69CHL1   C11 7546   2.583   1.855   7.227 -0.4467  0.1660  0.4037
   69CHL1  H11A 7547   2.668   1.923   7.203 -1.9886  2.3949  0.9583
   69CHL1  H11B 7548   2.615   1.753   7.196 -1.0740 -0.1759  0.8690
   69CHL1    C9 7549   2.452   1.894   7.143  0.3861 -0.0225 -0.1968
   69CHL1    H9 7550   2.384   1.812   7.175 -1.1622  0.9262 -0.9588
   69CHL1   C10 7551   2.459   1.893   6.992 -0.2961 -0.5582  0.4102
   69CHL1   C19 7552   2.600   1.953   6.961 -0.7118 -0.6784  0.0440
   69CHL1  H19A 7553   2.605   1.984   6.854  1.1868  0.0500  0.3008
   69CHL1  H19B 7554   2.619   2.051   7.010 -0.3182  0.1675 -1.6983
   69CHL1  H19C 7555   2.684   1.887   6.989  1.7219  1.9871 -0.4444
   69CHL1    C1 7556   2.467   1.749   6.935 -0.2044  0.2322 -0.0567
   69CHL1   H1A 7557   2.562   1.703   6.969  1.4251  2.6886 -0.9837
   69CHL1   H1B 7558   2.378   1.686   6.960 -0.5698  0.2846 -1.1577
   69CHL1    C2 7559   2.461   1.752   6.779  0.7541  0.0023  0.7226
   69CHL1   H2A 7560   2.454   1.645   6.753 -0.5451 -0.1361  1.5084
   69CHL1   H2B 7561   2.555   1.781   6.727 -0.7542  3.8503 -0.2614
   69CHL1   C20 7562   2.570   2.036   7.681 -0.1015 -0.4771 -0.5216
   69CHL1   H20 7563   2.636   2.125   7.665  1.1000 -0.8924  1.6803
   69CHL1   C21 7564   2.671   1.920   7.678 -0.3961 -0.4264  0.2364
   69CHL1  H21A 7565   2.633   1.817   7.661 -1.3657  0.0919 -0.9211
   69CHL1  H21B 7566   2.729   1.913   7.772  1.4975  0.5240 -0.8202
   69CHL1  H21C 7567   2.745   1.940   7.598 -1.5440  0.3844 -0.6621
   69CHL1   C22 7568   2.509   2.053   7.822 -0.2004 -0.0088  0.0221
   69CHL1  H22A 7569   2.421   2.120   7.815 -0.5720 -0.3806  1.0100
   69CHL1  H22B 7570   2.466   1.957   7.859 -0.6762 -0.1480 -0.8615
   69CHL1   C23 7571   2.597   2.111   7.929  0.0222 -0.9944  0.7626
   69CHL1  H23A 7572   2.697   2.062   7.923  1.6377  2.1255 -0.2782
   69CHL1  H23B 7573   2.615   2.216   7.895 -0.7507 -1.5028 -1.3682
   69CHL1   C24 7574   2.546   2.108   8.068 -0.4028  0.2479  0.0006
   69CHL1  H24A 7575   2.439   2.138   8.069  0.0312  1.8656  1.0348
   69CHL1  H24B 7576   2.548   2.007   8.114  0.3890  0.8017  1.2439
   69CHL1   C25 7577   2.619   2.200   8.164  0.1407  0.4427  0.9893
   69CHL1   H25 7578   2.605   2.297   8.112  0.0713 -1.0215 -1.9003
   69CHL1   C26 7579   2.552   2.189   8.300  0.2802 -0.4921  0.6532
   69CHL1  H26A 7580   2.573   2.089   8.343  0.5605 -0.3623  0.8188
   69CHL1  H26B 7581   2.595   2.254   8.378 -0.4063 -1.9664  2.3448
   69CHL1  H26C 7582   2.445   2.219   8.299  0.3212 -0.3009 -0.8269
   69CHL1   C27 7583   2.773   2.178   8.179 -0.4367 -0.7153 -0.7735
   69CHL1  H27A 7584   2.833   2.166   8.086  1.6418 -0.8056  0.5197
   69CHL1  H27B 7585   2.811   2.263   8.239 -0.1968 -0.6938 -0.9549
   69CHL1  H27C 7586   2.796   2.083   8.231 -0.8368 -0.8263 -0.7945
   70CHL1    C3 7587   2.404   5.303   7.058 -0.1528 -0.2995  0.3135
   70CHL1    H3 7588   2.331   5.224   7.087 -1.1461 -0.0027 -1.2675
   70CHL1    O3 7589   2.454   5.281   6.924  0.0304  0.3971 -0.4769
   70CHL1   H3' 7590   2.429   5.364   6.883  0.0589  1.0045  0.7036
   70CHL1    C4 7591   2.317   5.431   7.065  0.5018  0.5907 -0.4220
   70CHL1   H4A 7592   2.382   5.509   7.018  1.0552  0.3760 -0.0265
   70CHL1   H4B 7593   2.234   5.435   6.992  0.0730  1.9340  0.0976
   70CHL1    C5 7594   2.279   5.465   7.206  0.4406 -0.0081 -0.4059
   70CHL1    C6 7595   2.155   5.497   7.241  0.4317  0.8789  0.3714
   70CHL1    H6 7596   2.077   5.464   7.171  1.4269  0.1089 -0.3989
   70CHL1    C7 7597   2.110   5.539   7.376  0.2842  0.7118 -1.1145
   70CHL1   H7A 7598   2.030   5.615   7.366  2.3376  3.6756  2.3188
   70CHL1   H7B 7599   2.060   5.458   7.432 -1.3585  1.5542 -1.3168
   70CHL1    C8 7600   2.229   5.593   7.465  0.2873  0.1376  0.4177
   70CHL1    H8 7601   2.261   5.692   7.426 -0.6680 -0.4795 -2.1432
   70CHL1   C14 7602   2.187   5.593   7.607  0.1411 -0.3223 -0.2727
   70CHL1   H14 7603   2.146   5.492   7.627 -4.1778  1.5317  1.5228
   70CHL1   C15 7604   2.073   5.689   7.644  0.1611  0.3147 -0.1443
   70CHL1  H15A 7605   2.094   5.790   7.603  1.7232 -0.0289 -0.2290
   70CHL1  H15B 7606   1.976   5.649   7.608  0.0627  0.7833 -0.4008
   70CHL1   C16 7607   2.076   5.681   7.803  0.0549  0.9919  0.1856
   70CHL1  H16A 7608   2.046   5.783   7.835 -0.4181  1.3508 -1.3259
   70CHL1  H16B 7609   1.995   5.610   7.830  0.3169  1.7014  3.1781
   70CHL1   C17 7610   2.224   5.628   7.847 -0.1242  0.1159 -0.0879
   70CHL1   H17 7611   2.220   5.527   7.892 -1.8972 -0.2247 -0.9416
   70CHL1   C13 7612   2.300   5.626   7.713 -0.1219  0.3377  0.6037
   70CHL1   C18 7613   2.366   5.760   7.683  0.2603 -0.1243 -0.2574
   70CHL1  H18A 7614   2.462   5.758   7.739  0.3520 -1.7649 -0.4233
   70CHL1  H18B 7615   2.403   5.767   7.578 -2.8110  0.4278 -1.4040
   70CHL1  H18C 7616   2.300   5.847   7.704 -0.2112 -0.8233  1.2984
   70CHL1   C12 7617   2.409   5.513   7.703  0.3007 -0.0457  0.5429
   70CHL1  H12A 7618   2.496   5.536   7.768 -0.2685  1.2667  0.8818
   70CHL1  H12B 7619   2.357   5.419   7.731 -0.2515 -0.0884 -0.5690
   70CHL1   C11 7620   2.462   5.502   7.553  0.2162  0.1184  0.9695
   70CHL1  H11A 7621   2.528   5.588   7.529 -1.7748  1.3325 -0.3956
   70CHL1  H11B 7622   2.514   5.404   7.552 -1.1517 -0.6438  1.1809
   70CHL1    C9 7623   2.344   5.496   7.448 -0.0178 -0.0636  0.0275
   70CHL1    H9 7624   2.295   5.403   7.483 -1.9083  0.6556 -0.5907
   70CHL1   C10 7625   2.396   5.482   7.301  0.0348  0.4524  0.0548
   70CHL1   C19 7626   2.482   5.604   7.259 -0.6848 -0.2809 -0.2179
   70CHL1  H19A 7627   2.495   5.615   7.149  0.1685  1.3715  0.0116
   70CHL1  H19B 7628   2.432   5.694   7.301 -0.2612  0.6880 -1.7150
   70CHL1  H19C 7629   2.580   5.598   7.311 -0.9265  1.9249  0.5799
   70CHL1    C1 7630   2.480   5.347   7.292 -0.7092 -0.5828 -0.1882
   70CHL1   H1A 7631   2.572   5.358   7.353 -0.6568 -0.7117 -0.2428
   70CHL1   H1B 7632   2.427   5.262   7.341  0.8443 -1.2788  0.3473
   70CHL1    C2 7633   2.518   5.307   7.153 -0.8536 -0.2419 -0.5174
   70CHL1   H2A 7634   2.569   5.208   7.153 -2.0449 -0.9012 -2.2612
   70CHL1   H2B 7635   2.596   5.382   7.126  1.2323 -2.0442  0.1609
   70CHL1   C20 7636   2.289   5.711   7.963  0.1974  0.5240  0.5484
   70CHL1   H20 7637   2.322   5.808   7.921 -0.2887  0.3857 -0.1728
   70CHL1   C21 7638   2.422   5.640   8.014  0.3443  0.3197  0.1648
   70CHL1  H21A 7639   2.455   5.692   8.106  0.5399 -2.4052  1.7362
   70CHL1  H21B 7640   2.503   5.647   7.939  0.3424  0.1566  0.1469
   70CHL1  H21C 7641   2.413   5.534   8.047 -1.0665 -0.7283 -3.1574
   70CHL1   C22 7642   2.194   5.722   8.077 -0.1815 -0.1117  0.4647
   70CHL1  H22A 7643   2.113   5.798   8.060  0.2794  1.4322  4.1882
   70CHL1  H22B 7644   2.142   5.625   8.091  1.8647 -1.2416  0.6073
   70CHL1   C23 7645   2.256   5.757   8.215  0.2670  0.6778 -0.3428
   70CHL1  H23A 7646   2.313   5.669   8.253  1.4451  1.8176  0.5757
   70CHL1  H23B 7647   2.327   5.841   8.205  0.7838  0.3673  0.5727
   70CHL1   C24 7648   2.146   5.797   8.318  0.0499  0.1573  0.5604
   70CHL1  H24A 7649   2.110   5.895   8.280  2.7995  0.7567 -0.8307
   70CHL1  H24B 7650   2.069   5.720   8.300 -0.1637  0.6059 -0.5878
   70CHL1   C25 7651   2.188   5.799   8.461  0.0312 -0.2951 -1.3956
   70CHL1   H25 7652   2.222   5.701   8.500 -2.5359 -0.6426  0.1491
   70CHL1   C26 7653   2.301   5.897   8.482 -1.0159  0.4931 -0.0883
   70CHL1  H26A 7654   2.272   5.998   8.445 -1.2333  1.1112  1.7058
   70CHL1  H26B 7655   2.308   5.929   8.588 -0.5657  2.1093 -0.5710
   70CHL1  H26C 7656   2.399   5.854   8.452 -1.4705 -2.4542  2.2641
   70CHL1   C27 7657   2.069   5.839   8.553 -0.0458 -0.7583  0.1128
   70CHL1  H27A 7658   1.992   5.760   8.553  1.1333 -2.0311 -2.2811
   70CHL1  H27B 7659   2.100   5.867   8.656  1.7306  0.2662 -0.6477
   70CHL1  H27C 7660   2.014   5.931   8.522  0.1240  0.0701  2.1577
   71CHL1    C3 7661   1.471   1.987   6.938  0.1987 -0.4344  0.1818
   71CHL1    H3 7662   1.565   2.046   6.941  0.2530 -0.5003 -0.2091
   71CHL1    O3 7663   1.443   1.965   6.801  0.4088  0.5932 -0.1039
   71CHL1   H3' 7664   1.496   1.889   6.774 -1.5891 -0.3504 -1.5893
   71CHL1    C4 7665   1.467   1.854   7.005  0.0374 -0.2655  0.1755
   71CHL1   H4A 7666   1.359   1.827   7.003 -0.7529  2.4634  1.1475
   71CHL1   H4B 7667   1.527   1.768   6.967 -2.8740 -2.5654  0.3967
   71CHL1    C5 7668   1.499   1.872   7.154 -0.3444  0.3896  0.0636
   71CHL1    C6 7669   1.596   1.798   7.223 -0.0682 -0.3146 -0.0337
   71CHL1    H6 7670   1.647   1.716   7.170 -1.7793 -0.2066 -1.9254
   71CHL1    C7 7671   1.626   1.810   7.372  0.0729  0.0237  0.3202
   71CHL1   H7A 7672   1.630   1.709   7.418 -1.6295 -2.3600 -4.0889
   71CHL1   H7B 7673   1.735   1.831   7.380  0.1994 -0.7053  0.6013
   71CHL1    C8 7674   1.537   1.898   7.445 -0.3683 -0.3078 -0.1245
   71CHL1    H8 7675   1.447   1.835   7.463 -1.3933  0.5411 -2.0131
   71CHL1   C14 7676   1.601   1.947   7.571 -0.2974  0.9999  0.5774
   71CHL1   H14 7677   1.680   2.022   7.549  2.3224 -2.0284 -1.1772
   71CHL1   C15 7678   1.667   1.840   7.657 -0.3158 -0.4608 -0.4260
   71CHL1  H15A 7679   1.589   1.762   7.664 -1.2642  0.1590 -3.0670
   71CHL1  H15B 7680   1.765   1.810   7.615 -1.3056 -1.7205 -1.9240
   71CHL1   C16 7681   1.680   1.912   7.790  0.4773  0.2099  0.3960
   71CHL1  H16A 7682   1.642   1.841   7.867 -0.2747  0.8087  0.5936
   71CHL1  H16B 7683   1.786   1.923   7.821 -0.0685  0.6671  2.2364
   71CHL1   C17 7684   1.596   2.045   7.783 -0.0011 -0.4002 -0.0042
   71CHL1   H17 7685   1.678   2.117   7.763  3.1544 -3.9184 -0.6661
   71CHL1   C13 7686   1.509   2.030   7.658  0.0465  0.2817 -0.6037
   71CHL1   C18 7687   1.384   1.946   7.697 -0.3907  1.1427 -0.0303
   71CHL1  H18A 7688   1.312   2.015   7.746 -2.3498 -0.2657 -0.7879
   71CHL1  H18B 7689   1.326   1.922   7.605  2.0379  0.2207 -1.4008
   71CHL1  H18C 7690   1.407   1.865   7.769 -0.5996  1.8584  0.8588
   71CHL1   C12 7691   1.468   2.159   7.578 -0.5662  0.0650  0.1083
   71CHL1  H12A 7692   1.407   2.231   7.636 -0.2314  0.5020 -0.0834
   71CHL1  H12B 7693   1.553   2.228   7.559 -1.4053  1.1372  0.1960
   71CHL1   C11 7694   1.393   2.116   7.449 -0.7074 -0.1406  0.2192
   71CHL1  H11A 7695   1.299   2.065   7.480 -0.0647  0.1240  2.7697
   71CHL1  H11B 7696   1.366   2.212   7.399 -1.1393 -0.2314  0.2679
   71CHL1    C9 7697   1.479   2.019   7.364  0.8839  0.6409 -0.2431
   71CHL1    H9 7698   1.575   2.068   7.340  2.0528 -1.4250 -0.0245
   71CHL1   C10 7699   1.412   1.977   7.226 -0.0804 -0.2189  0.5722
   71CHL1   C19 7700   1.275   1.900   7.256 -0.3529 -0.5184 -0.4871
   71CHL1  H19A 7701   1.226   1.869   7.161 -0.1508  2.0417 -1.5077
   71CHL1  H19B 7702   1.278   1.806   7.315 -1.8897  0.2617  0.8858
   71CHL1  H19C 7703   1.202   1.963   7.309 -0.5857 -1.3325  0.1704
   71CHL1    C1 7704   1.401   2.108   7.143  0.0420  0.0913  0.0127
   71CHL1   H1A 7705   1.330   2.180   7.187 -0.1975 -0.8491  1.2019
   71CHL1   H1B 7706   1.495   2.166   7.156 -0.4045  0.3043  2.6363
   71CHL1    C2 7707   1.367   2.087   6.998 -0.3122 -0.3419  0.3670
   71CHL1   H2A 7708   1.366   2.179   6.936  0.8983 -0.1212  0.6463
   71CHL1   H2B 7709   1.271   2.032   6.990 -1.6367  1.8656  0.2857
   71CHL1   C20 7710   1.523   2.090   7.910  0.1944 -0.5140  0.3477
   71CHL1   H20 7711   1.433   2.027   7.927 -0.6866 -0.1616 -2.5610
   71CHL1   C21 7712   1.472   2.238   7.897  0.2204 -0.3035  0.4779
   71CHL1  H21A 7713   1.373   2.238   7.847  0.2368 -0.0657  0.4445
   71CHL1  H21B 7714   1.547   2.285   7.829 -1.5753 -2.2980 -3.1669
   71CHL1  H21C 7715   1.461   2.289   7.995 -1.2116  0.4751 -0.0614
   71CHL1   C22 7716   1.620   2.078   8.040 -0.0203  0.1921  0.5350
   71CHL1  H22A 7717   1.561   2.111   8.128  0.5279 -1.1144  1.4184
   71CHL1  H22B 7718   1.637   1.971   8.064 -0.0837  0.0357 -0.0991
   71CHL1   C23 7719   1.751   2.159   8.029  0.6447  0.0693  0.0831
   71CHL1  H23A 7720   1.812   2.126   7.942 -1.5471  1.2580 -2.0159
   71CHL1  H23B 7721   1.717   2.265   8.027 -0.7510 -0.3546  0.4899
   71CHL1   C24 7722   1.843   2.119   8.145  0.1511  0.0458 -0.9452
   71CHL1  H24A 7723   1.777   2.117   8.234 -0.4499 -2.6459 -1.3702
   71CHL1  H24B 7724   1.876   2.015   8.126 -1.3401 -0.2658 -2.0814
   71CHL1   C25 7725   1.969   2.208   8.157  0.2086 -0.1633 -0.6244
   71CHL1   H25 7726   1.928   2.310   8.142 -0.7784 -0.8993 -3.6459
   71CHL1   C26 7727   2.035   2.193   8.291 -0.6448 -0.1900 -0.4730
   71CHL1  H26A 7728   2.101   2.281   8.305 -0.8240 -0.0772 -0.3295
   71CHL1  H26B 7729   1.958   2.215   8.369  0.2487  0.6038  0.1984
   71CHL1  H26C 7730   2.084   2.094   8.304  0.4943  0.1569 -1.8683
   71CHL1   C27 7731   2.070   2.193   8.044  0.2293 -0.4555 -0.3736
   71CHL1  H27A 7732   2.045   2.101   7.987 -1.2708 -1.1139  1.2404
   71CHL1  H27B 7733   2.052   2.279   7.976 -0.6499  1.3306  1.9809
   71CHL1  H27C 7734   2.177   2.197   8.073 -0.1395  1.2561  0.9203
   72CHL1    C3 7735   6.295   3.388   7.031 -0.2997 -0.5392  0.3121
   72CHL1    H3 7736   6.210   3.455   7.006  0.7307  1.0092  0.7879
   72CHL1    O3 7737   6.344   3.332   6.910  0.5541 -0.4880 -0.3549
   72CHL1   H3' 7738   6.404   3.264   6.941 -0.1276 -0.0587  2.1323
   72CHL1    C4 7739   6.411   3.469   7.094 -0.0032 -0.4824 -0.4946
   72CHL1   H4A 7740   6.505   3.411   7.096 -1.1708 -2.4247  0.0098
   72CHL1   H4B 7741   6.434   3.562   7.037  1.6244 -1.1142 -0.9337
   72CHL1    C5 7742   6.387   3.508   7.239  0.2602  0.7891 -0.0211
   72CHL1    C6 7743   6.394   3.637   7.275  1.0564  0.4019 -0.7865
   72CHL1    H6 7744   6.426   3.702   7.193 -0.1282 -1.1055 -2.5246
   72CHL1    C7 7745   6.378   3.677   7.417  0.0279 -0.1252 -0.8926
   72CHL1   H7A 7746   6.460   3.749   7.440  1.9527 -2.2454 -0.7601
   72CHL1   H7B 7747   6.282   3.731   7.432 -0.0800 -0.9197  1.6843
   72CHL1    C8 7748   6.377   3.556   7.512  0.4196  0.2939 -0.5558
   72CHL1    H8 7749   6.481   3.516   7.505 -1.2012 -4.1741 -2.7944
   72CHL1   C14 7750   6.347   3.586   7.659 -0.1391  0.3369  0.1604
   72CHL1   H14 7751   6.245   3.630   7.649  0.2106  0.6702 -2.6104
   72CHL1   C15 7752   6.430   3.690   7.738 -0.2656 -0.1430  0.9344
   72CHL1  H15A 7753   6.537   3.672   7.715 -0.2473 -1.6341  2.0466
   72CHL1  H15B 7754   6.388   3.789   7.707 -1.5793 -0.7766  0.6231
   72CHL1   C16 7755   6.408   3.661   7.889 -0.0462 -0.0821  0.0302
   72CHL1  H16A 7756   6.508   3.650   7.936  0.3523  2.7012  0.0071
   72CHL1  H16B 7757   6.363   3.755   7.928  0.9935  0.6434 -0.4777
   72CHL1   C17 7758   6.310   3.534   7.897 -0.6972 -0.1548 -0.0036
   72CHL1   H17 7759   6.209   3.578   7.883  0.1202  0.7800 -5.0482
   72CHL1   C13 7760   6.334   3.465   7.759  0.6040  0.2853  0.2564
   72CHL1   C18 7761   6.458   3.381   7.759 -0.6308 -0.1495  0.1310
   72CHL1  H18A 7762   6.544   3.424   7.814 -0.6397 -1.3892  1.1534
   72CHL1  H18B 7763   6.449   3.277   7.797  0.5082 -0.1688  0.3837
   72CHL1  H18C 7764   6.486   3.374   7.651 -2.5819  0.6285 -0.4629
   72CHL1   C12 7765   6.220   3.375   7.703  0.1437 -0.5562  0.8575
   72CHL1  H12A 7766   6.211   3.287   7.770 -2.8044 -1.0396 -0.0524
   72CHL1  H12B 7767   6.125   3.432   7.700 -1.2095 -2.7426 -1.5510
   72CHL1   C11 7768   6.247   3.334   7.562 -0.4027  0.4432  0.3874
   72CHL1  H11A 7769   6.328   3.258   7.562 -1.6017 -0.8982 -0.2075
   72CHL1  H11B 7770   6.163   3.285   7.508  0.5763  0.5884 -1.3708
   72CHL1    C9 7771   6.284   3.445   7.465 -0.1655  0.0771 -0.3432
   72CHL1    H9 7772   6.190   3.501   7.446  0.5833  1.5148 -0.0095
   72CHL1   C10 7773   6.335   3.391   7.326  0.6440 -0.6125  0.0427
   72CHL1   C19 7774   6.454   3.293   7.342  0.4265 -0.0637 -0.8518
   72CHL1  H19A 7775   6.418   3.200   7.389 -1.8373  1.6282  1.0022
   72CHL1  H19B 7776   6.497   3.275   7.241  1.3279 -0.9247 -0.3353
   72CHL1  H19C 7777   6.529   3.328   7.417 -0.3150 -1.4856  0.6175
   72CHL1    C1 7778   6.217   3.311   7.260  0.8326 -0.8400 -0.7318
   72CHL1   H1A 7779   6.196   3.215   7.312  1.6761 -0.3419  0.5788
   72CHL1   H1B 7780   6.131   3.382   7.260 -0.0283 -1.8500 -0.4750
   72CHL1    C2 7781   6.245   3.268   7.114 -0.5978  0.4071 -0.0316
   72CHL1   H2A 7782   6.155   3.220   7.068  0.0840 -1.8696  0.8757
   72CHL1   H2B 7783   6.324   3.191   7.126 -0.2321  0.5155 -1.4721
   72CHL1   C20 7784   6.324   3.463   8.030  0.6324  0.1031 -0.1069
   72CHL1   H20 7785   6.427   3.423   8.039  1.3322  1.6405 -0.8303
   72CHL1   C21 7786   6.226   3.346   8.044 -0.0574  0.5254  0.4157
   72CHL1  H21A 7787   6.123   3.364   8.005  0.8326 -0.2809 -2.6201
   72CHL1  H21B 7788   6.222   3.305   8.147  0.9948  0.4186  0.4156
   72CHL1  H21C 7789   6.270   3.270   7.975  1.8764  1.5969  0.4042
   72CHL1   C22 7790   6.305   3.553   8.146 -0.0730 -0.0856 -0.7078
   72CHL1  H22A 7791   6.309   3.490   8.236 -1.3548  1.1336  0.2536
   72CHL1  H22B 7792   6.398   3.614   8.138 -0.2772  0.4209  0.5146
   72CHL1   C23 7793   6.182   3.649   8.153 -0.2578  0.1586 -0.0211
   72CHL1  H23A 7794   6.196   3.740   8.090 -0.1359 -0.1444 -0.4356
   72CHL1  H23B 7795   6.089   3.598   8.119  0.7410 -1.3351 -0.6295
   72CHL1   C24 7796   6.166   3.708   8.296 -0.3546 -0.6026  0.0273
   72CHL1  H24A 7797   6.265   3.752   8.316 -1.4457  1.7305  0.6441
   72CHL1  H24B 7798   6.108   3.802   8.286 -0.4991 -0.7782 -0.9505
   72CHL1   C25 7799   6.114   3.617   8.404  0.2224  0.9998 -0.3962
   72CHL1   H25 7800   6.179   3.528   8.387 -0.1621  1.2572 -4.0481
   72CHL1   C26 7801   6.133   3.680   8.544  0.6603 -0.2919 -0.3771
   72CHL1  H26A 7802   6.239   3.676   8.575 -0.0403 -2.8181  2.1511
   72CHL1  H26B 7803   6.084   3.778   8.559 -1.1258 -1.5527  3.4044
   72CHL1  H26C 7804   6.074   3.617   8.614 -0.6421 -0.3373 -1.4664
   72CHL1   C27 7805   5.968   3.565   8.380 -0.4644  0.4019  0.0496
   72CHL1  H27A 7806   5.935   3.487   8.451  0.3426 -0.7887 -0.8438
   72CHL1  H27B 7807   5.898   3.651   8.388  1.1543  1.5699  3.8095
   72CHL1  H27C 7808   5.969   3.512   8.282  0.0820  0.5316 -0.0216
   73CHL1    C3 7809   2.212   2.562   6.843 -0.3069  0.1119  0.2794
   73CHL1    H3 7810   2.126   2.625   6.814 -0.2892  1.3257  2.6284
   73CHL1    O3 7811   2.257   2.484   6.736  0.1141 -0.6864  0.2952
   73CHL1   H3' 7812   2.277   2.551   6.670  2.5758 -0.4015  1.2407
   73CHL1    C4 7813   2.325   2.662   6.891  0.4203 -0.1840  0.8071
   73CHL1   H4A 7814   2.420   2.606   6.907  0.8147 -0.3307 -1.6404
   73CHL1   H4B 7815   2.347   2.719   6.799 -2.3601 -0.5010 -0.1385
   73CHL1    C5 7816   2.287   2.743   7.020 -0.3175  0.0596  0.0063
   73CHL1    C6 7817   2.299   2.876   7.039  0.0125 -0.1171 -0.2439
   73CHL1    H6 7818   2.340   2.940   6.959 -0.7081  0.1644 -0.3995
   73CHL1    C7 7819   2.264   2.947   7.164  0.2281  0.1330  0.3827
   73CHL1   H7A 7820   2.348   3.013   7.194 -1.8348  2.3872  1.5163
   73CHL1   H7B 7821   2.176   3.011   7.145  0.2457  0.3249  0.9206
   73CHL1    C8 7822   2.238   2.860   7.283 -0.3103  0.6316  0.0504
   73CHL1    H8 7823   2.335   2.821   7.320 -0.1675 -0.1525 -1.0950
   73CHL1   C14 7824   2.167   2.942   7.385  0.3177 -0.3209 -0.3882
   73CHL1   H14 7825   2.069   2.972   7.343 -0.1484 -0.5332  0.5069
   73CHL1   C15 7826   2.220   3.071   7.446 -0.2487  0.3427 -0.4131
   73CHL1  H15A 7827   2.325   3.059   7.480 -0.6152 -0.4428  0.4655
   73CHL1  H15B 7828   2.209   3.148   7.367 -1.9200  0.3958 -0.1578
   73CHL1   C16 7829   2.123   3.106   7.557 -0.1570  0.2549 -0.1102
   73CHL1  H16A 7830   2.173   3.159   7.641 -0.5812  1.0367 -0.3311
   73CHL1  H16B 7831   2.059   3.188   7.517  0.8609 -0.1359 -2.6930
   73CHL1   C17 7832   2.047   2.976   7.583  0.1826 -0.3741 -0.7996
   73CHL1   H17 7833   1.956   2.981   7.519  0.8208  1.0412 -1.6461
   73CHL1   C13 7834   2.124   2.866   7.509 -0.5189 -0.2873  0.3211
   73CHL1   C18 7835   2.246   2.823   7.593 -0.4001 -0.4649 -0.2980
   73CHL1  H18A 7836   2.301   2.905   7.643  0.7798 -0.5009 -1.4925
   73CHL1  H18B 7837   2.228   2.742   7.667  3.4315 -0.5396  0.7294
   73CHL1  H18C 7838   2.331   2.791   7.530 -0.8057  0.7229 -1.5010
   73CHL1   C12 7839   2.043   2.741   7.467  0.4109  0.0925  0.2526
   73CHL1  H12A 7840   2.046   2.687   7.563 -1.1183 -2.8015 -1.1925
   73CHL1  H12B 7841   1.936   2.767   7.453  0.5660  0.5701 -0.0958
   73CHL1   C11 7842   2.108   2.658   7.362  0.3072 -0.2405  0.3125
   73CHL1  H11A 7843   2.187   2.605   7.419  1.9010  1.2063 -0.4892
   73CHL1  H11B 7844   2.046   2.577   7.317 -1.2094  0.3954  1.1596
   73CHL1    C9 7845   2.154   2.740   7.242 -0.7242  0.2130  0.8469
   73CHL1    H9 7846   2.060   2.781   7.200 -1.0067  1.0713  2.2637
   73CHL1   C10 7847   2.230   2.649   7.134  0.1670 -0.7589  0.3875
   73CHL1   C19 7848   2.349   2.578   7.186  0.1458 -0.0647  0.0270
   73CHL1  H19A 7849   2.428   2.649   7.218 -0.0806 -0.5666  1.7963
   73CHL1  H19B 7850   2.308   2.508   7.262 -0.0421  0.6781  0.6166
   73CHL1  H19C 7851   2.400   2.514   7.110  1.7353  1.1143  0.0427
   73CHL1    C1 7852   2.124   2.560   7.064  0.0874  0.7009  0.8730
   73CHL1   H1A 7853   2.070   2.501   7.141 -0.6213 -0.5321 -0.5258
   73CHL1   H1B 7854   2.042   2.623   7.025 -0.7520  1.0661  3.0735
   73CHL1    C2 7855   2.173   2.470   6.954  0.0439 -0.1921 -0.3178
   73CHL1   H2A 7856   2.108   2.385   6.925 -0.5354 -0.4177  1.5073
   73CHL1   H2B 7857   2.268   2.418   6.976  0.9429  1.5479  0.1069
   73CHL1   C20 7858   1.989   2.959   7.729  0.5618  0.6153 -0.2037
   73CHL1   H20 7859   1.951   2.855   7.733  1.7736  0.1902  2.6227
   73CHL1   C21 7860   1.870   3.059   7.733 -0.5452 -0.1451  0.3656
   73CHL1  H21A 7861   1.811   3.059   7.827  1.3095 -1.4516  1.5897
   73CHL1  H21B 7862   1.804   3.040   7.645  1.6307  0.5897 -1.5470
   73CHL1  H21C 7863   1.910   3.162   7.719  2.4053 -1.0020  1.8332
   73CHL1   C22 7864   2.085   2.984   7.847  0.4064 -0.1196  0.6137
   73CHL1  H22A 7865   2.171   2.914   7.851  0.6431  0.1601  4.4150
   73CHL1  H22B 7866   2.121   3.089   7.844 -2.1589  0.8287 -1.0552
   73CHL1   C23 7867   2.003   2.981   7.977  0.0199  0.3558  0.0761
   73CHL1  H23A 7868   1.938   3.070   7.991 -0.4567  0.3744 -1.9540
   73CHL1  H23B 7869   1.943   2.889   7.990  1.7440 -0.7478  0.6256
   73CHL1   C24 7870   2.083   2.986   8.105  0.2602 -0.2433  0.0934
   73CHL1  H24A 7871   2.138   2.889   8.114 -0.9833 -0.9707  0.1576
   73CHL1  H24B 7872   2.155   3.071   8.102  0.3868 -0.2476  1.9155
   73CHL1   C25 7873   1.994   3.006   8.233  0.5574 -0.2363  0.5442
   73CHL1   H25 7874   1.912   2.931   8.230 -0.3326  0.7432 -0.7607
   73CHL1   C26 7875   2.074   2.966   8.355  0.2697  0.3556 -0.6492
   73CHL1  H26A 7876   2.176   3.010   8.363 -0.4516  1.9339  0.1508
   73CHL1  H26B 7877   2.019   2.979   8.451  0.2484 -1.1832 -0.4251
   73CHL1  H26C 7878   2.094   2.856   8.357 -2.0774 -0.1233  1.0279
   73CHL1   C27 7879   1.947   3.149   8.247  0.3594 -0.5879 -0.4324
   73CHL1  H27A 7880   1.916   3.157   8.353 -0.5812  0.8380 -0.7892
   73CHL1  H27B 7881   2.034   3.218   8.234  0.8102 -0.4491  2.6280
   73CHL1  H27C 7882   1.859   3.180   8.187  1.1065  0.9111 -0.8016
   74CHL1    C3 7883   1.114   3.781   6.954 -0.8413  0.1588  0.1628
   74CHL1    H3 7884   1.194   3.730   7.011 -1.7509  0.2326  1.5544
   74CHL1    O3 7885   1.139   3.737   6.823 -0.7931  0.3514  0.1112
   74CHL1   H3' 7886   1.084   3.792   6.767  0.4786 -0.5183 -2.1103
   74CHL1    C4 7887   0.981   3.729   7.012 -0.1538 -0.0876  1.2085
   74CHL1   H4A 7888   0.909   3.771   6.939  1.9931  0.7554 -0.5476
   74CHL1   H4B 7889   0.980   3.619   6.996 -1.2103  0.2010 -1.0887
   74CHL1    C5 7890   0.961   3.772   7.153 -0.9569  0.8139  0.0262
   74CHL1    C6 7891   0.953   3.681   7.250  0.7621 -0.4207  0.2662
   74CHL1    H6 7892   0.943   3.575   7.225  0.3025 -0.9734  2.5491
   74CHL1    C7 7893   0.928   3.709   7.397 -0.3373  0.1172  0.8557
   74CHL1   H7A 7894   0.837   3.654   7.427 -0.0001 -0.8328  0.1934
   74CHL1   H7B 7895   1.013   3.680   7.464  1.0809  2.6508  0.2741
   74CHL1    C8 7896   0.916   3.860   7.426 -0.0359  0.5563  0.3146
   74CHL1    H8 7897   0.810   3.887   7.405 -0.1306 -1.7512 -2.7946
   74CHL1   C14 7898   0.953   3.899   7.564 -0.3257  0.4061 -0.1768
   74CHL1   H14 7899   1.062   3.879   7.573 -0.6252 -0.7098  1.4660
   74CHL1   C15 7900   0.894   3.823   7.685  0.1404 -0.1015 -0.4340
   74CHL1  H15A 7901   0.783   3.828   7.680  0.0706 -0.6429  0.3935
   74CHL1  H15B 7902   0.933   3.719   7.696  1.9409  0.6997  1.3963
   74CHL1   C16 7903   0.952   3.895   7.806 -0.3637 -0.2907 -0.8515
   74CHL1  H16A 7904   0.884   3.891   7.893 -0.8145  0.3034 -1.1725
   74CHL1  H16B 7905   1.043   3.847   7.848 -0.3073  1.7826  1.6400
   74CHL1   C17 7906   0.990   4.038   7.757  0.6283  0.5056 -0.4709
   74CHL1   H17 7907   1.101   4.035   7.756  0.8183  3.1284  1.7454
   74CHL1   C13 7908   0.945   4.045   7.606 -0.2726  0.2001 -0.6683
   74CHL1   C18 7909   0.797   4.097   7.610  0.3083 -0.3146  1.0178
   74CHL1  H18A 7910   0.743   4.049   7.694  2.9147 -4.0094  0.8345
   74CHL1  H18B 7911   0.784   4.206   7.632 -0.3045 -0.5277  1.7573
   74CHL1  H18C 7912   0.745   4.053   7.522  0.0948  1.8154  0.0128
   74CHL1   C12 7913   1.035   4.132   7.517  0.5171  0.4197 -0.4984
   74CHL1  H12A 7914   1.005   4.237   7.537 -2.4509 -0.4245  0.0201
   74CHL1  H12B 7915   1.137   4.115   7.555  0.6412 -0.1209 -1.0427
   74CHL1   C11 7916   1.010   4.098   7.368  0.5775 -0.2361  0.3668
   74CHL1  H11A 7917   0.907   4.133   7.344  0.5606 -1.0120 -0.7406
   74CHL1  H11B 7918   1.072   4.161   7.302 -0.4379 -0.1554 -0.5251
   74CHL1    C9 7919   1.006   3.944   7.329 -0.2636 -0.6092 -0.0237
   74CHL1    H9 7920   1.110   3.909   7.345  1.0347  1.6811 -2.6079
   74CHL1   C10 7921   0.982   3.919   7.185  0.1408  0.3637 -0.2912
   74CHL1   C19 7922   0.858   3.989   7.125  0.1260  0.3303  0.8122
   74CHL1  H19A 7923   0.861   4.097   7.155 -1.5872  0.6195  0.0870
   74CHL1  H19B 7924   0.851   3.985   7.015  5.0759 -2.8884  0.3215
   74CHL1  H19C 7925   0.771   3.936   7.170  2.1340 -3.0906  0.9662
   74CHL1    C1 7926   1.108   3.974   7.106 -0.0981 -0.1040  0.8201
   74CHL1   H1A 7927   1.110   4.084   7.122  1.6520  0.5561 -2.8350
   74CHL1   H1B 7928   1.196   3.927   7.154 -1.6847 -1.2603  2.7104
   74CHL1    C2 7929   1.119   3.932   6.960  0.2647 -0.8251  0.3689
   74CHL1   H2A 7930   1.222   3.965   6.933  0.5946  0.7487  3.2131
   74CHL1   H2B 7931   1.045   3.977   6.890  1.9048  0.2598 -0.7445
   74CHL1   C20 7932   0.954   4.149   7.867 -0.3564  0.8869  0.2413
   74CHL1   H20 7933   0.846   4.170   7.879 -0.9688 -1.8764  0.1917
   74CHL1   C21 7934   1.013   4.281   7.819  0.0776 -0.3370 -0.2208
   74CHL1  H21A 7935   0.964   4.320   7.727  3.0967  3.9635 -0.3394
   74CHL1  H21B 7936   1.120   4.271   7.792 -0.0608 -0.1723 -0.8479
   74CHL1  H21C 7937   1.012   4.360   7.897  0.2563  0.2475 -0.8030
   74CHL1   C22 7938   1.011   4.113   8.006 -0.5936 -0.2497  0.0166
   74CHL1  H22A 7939   0.969   4.182   8.082  3.3180  2.0898  0.3251
   74CHL1  H22B 7940   0.976   4.010   8.030  1.1018 -1.6507 -2.8628
   74CHL1   C23 7941   1.158   4.131   8.019  0.5345 -0.5036  0.6079
   74CHL1  H23A 7942   1.209   4.075   7.939 -0.1316  2.5957 -2.2050
   74CHL1  H23B 7943   1.177   4.240   8.009  1.3581 -0.7870 -1.2776
   74CHL1   C24 7944   1.218   4.070   8.148 -0.2030  0.0917 -0.1411
   74CHL1  H24A 7945   1.191   4.133   8.236 -0.6235 -1.6152  0.9893
   74CHL1  H24B 7946   1.174   3.969   8.155 -1.1983  0.4686 -0.7903
   74CHL1   C25 7947   1.370   4.036   8.139 -0.6085 -0.2851 -0.5429
   74CHL1   H25 7948   1.399   3.953   8.070 -1.1991 -1.4332  0.5465
   74CHL1   C26 7949   1.447   4.163   8.114  0.5412 -0.3535 -0.0395
   74CHL1  H26A 7950   1.425   4.190   8.008 -3.2755  0.2600  0.7591
   74CHL1  H26B 7951   1.409   4.250   8.173 -2.2862 -0.2304 -1.8458
   74CHL1  H26C 7952   1.555   4.149   8.132  0.6545  1.8648  1.3824
   74CHL1   C27 7953   1.408   3.982   8.293 -0.4171 -0.9404  0.8209
   74CHL1  H27A 7954   1.404   4.063   8.368  1.0132 -3.4470  3.8176
   74CHL1  H27B 7955   1.335   3.906   8.329 -3.4719 -1.4594 -5.1430
   74CHL1  H27C 7956   1.511   3.941   8.296 -0.9958 -2.4654  0.8715
   75CHL1    C3 7957   5.221   5.168   6.601 -0.3702  0.2596  0.3607
   75CHL1    H3 7958   5.123   5.156   6.551 -0.5337  0.3961  0.6433
   75CHL1    O3 7959   5.326   5.111   6.521 -0.1769  0.3397  0.4931
   75CHL1   H3' 7960   5.279   5.034   6.487 -1.5851  1.5110 -0.3436
   75CHL1    C4 7961   5.257   5.305   6.652  0.4895 -0.2084  0.8923
   75CHL1   H4A 7962   5.363   5.307   6.687  0.7852  0.2170 -0.0051
   75CHL1   H4B 7963   5.245   5.378   6.570  0.0457 -0.2503  0.9166
   75CHL1    C5 7964   5.171   5.354   6.765 -0.0215 -0.5723 -0.6504
   75CHL1    C6 7965   5.108   5.470   6.755 -0.3258 -0.0496 -0.4059
   75CHL1    H6 7966   5.116   5.532   6.664 -1.5548  0.9977  0.1713
   75CHL1    C7 7967   5.032   5.530   6.873  0.1864 -0.7234  0.2563
   75CHL1   H7A 7968   5.056   5.636   6.894  0.4869 -1.2599  2.8814
   75CHL1   H7B 7969   4.923   5.531   6.850 -0.2762 -1.6785  2.2210
   75CHL1    C8 7970   5.052   5.456   7.009 -0.4288  0.7676 -0.1664
   75CHL1    H8 7971   5.154   5.486   7.041 -0.0187 -1.4565  0.7336
   75CHL1   C14 7972   4.952   5.493   7.111  0.2069  0.0449  0.3545
   75CHL1   H14 7973   4.859   5.446   7.071  0.1180 -0.7613  1.4608
   75CHL1   C15 7974   4.932   5.639   7.151  0.2086 -0.4377 -0.0375
   75CHL1  H15A 7975   5.031   5.688   7.160  0.9749 -2.1777  1.7324
   75CHL1  H15B 7976   4.874   5.690   7.071  1.2043 -0.4961 -0.8262
   75CHL1   C16 7977   4.872   5.639   7.287 -0.3151  0.1860  0.0007
   75CHL1  H16A 7978   4.927   5.682   7.373 -2.0484  0.7226  0.8900
   75CHL1  H16B 7979   4.765   5.668   7.286 -1.2586 -2.8944 -1.3537
   75CHL1   C17 7980   4.855   5.485   7.328  0.2008  0.0366  0.2042
   75CHL1   H17 7981   4.759   5.454   7.281  1.3217 -2.4929 -0.6164
   75CHL1   C13 7982   4.964   5.415   7.249  0.3580 -0.2554  0.1351
   75CHL1   C18 7983   5.102   5.440   7.312  0.5332 -0.3910 -0.1740
   75CHL1  H18A 7984   5.126   5.546   7.331  1.7798 -0.8821  1.1717
   75CHL1  H18B 7985   5.128   5.383   7.404 -0.4094 -0.0150  0.3426
   75CHL1  H18C 7986   5.175   5.396   7.241 -0.2189  1.1733 -2.0096
   75CHL1   C12 7987   4.943   5.272   7.223  0.0635  0.7288 -0.2484
   75CHL1  H12A 7988   4.948   5.209   7.314  1.4084  1.8837  0.5233
   75CHL1  H12B 7989   4.846   5.267   7.170 -0.3412  0.0737  0.5375
   75CHL1   C11 7990   5.036   5.216   7.118 -0.3428  0.5966  0.1161
   75CHL1  H11A 7991   5.134   5.195   7.166  0.0979 -1.7806 -1.6682
   75CHL1  H11B 7992   4.992   5.118   7.089  0.9634  0.0160 -0.0012
   75CHL1    C9 7993   5.052   5.302   6.984  0.1483 -0.3374 -0.3522
   75CHL1    H9 7994   4.958   5.277   6.930  0.3659 -1.7897 -0.1022
   75CHL1   C10 7995   5.155   5.255   6.879  0.3966 -0.0694  0.1265
   75CHL1   C19 7996   5.290   5.248   6.961  0.7607  0.1579 -0.4645
   75CHL1  H19A 7997   5.310   5.156   7.021  0.3197 -0.4804 -1.2929
   75CHL1  H19B 7998   5.378   5.257   6.893  0.2824  3.5917 -0.8078
   75CHL1  H19C 7999   5.293   5.330   7.036  0.3708 -0.5390  0.3356
   75CHL1    C1 8000   5.115   5.115   6.823  0.1467  0.7167 -0.6857
   75CHL1   H1A 8001   5.117   5.039   6.903 -0.2316  1.0281 -0.3774
   75CHL1   H1B 8002   5.014   5.123   6.776  0.7543  2.7538 -1.7790
   75CHL1    C2 8003   5.215   5.063   6.713  0.0766 -0.1184  0.1880
   75CHL1   H2A 8004   5.177   4.967   6.673 -0.5325 -0.2670  1.0967
   75CHL1   H2B 8005   5.316   5.037   6.750  0.1126 -1.7422 -0.9801
   75CHL1   C20 8006   4.848   5.450   7.476 -1.1378  0.1925 -0.3300
   75CHL1   H20 8007   4.878   5.343   7.486 -2.3306 -0.1291 -0.0437
   75CHL1   C21 8008   4.700   5.458   7.522  0.1742  0.3120  0.6519
   75CHL1  H21A 8009   4.628   5.417   7.448 -0.8545  1.2201  1.1271
   75CHL1  H21B 8010   4.674   5.564   7.542  0.6352  1.0659 -2.2500
   75CHL1  H21C 8011   4.685   5.405   7.618  0.1021 -1.7527 -0.4566
   75CHL1   C22 8012   4.940   5.530   7.568 -0.1838 -0.0257 -0.7209
   75CHL1  H22A 8013   5.033   5.562   7.517 -1.2122  0.4794 -2.3439
   75CHL1  H22B 8014   4.897   5.624   7.609  1.2762  0.0071  0.8229
   75CHL1   C23 8015   4.964   5.441   7.692 -0.0803 -0.3542 -0.8520
   75CHL1  H23A 8016   4.865   5.418   7.738 -0.7901  0.7648 -1.7661
   75CHL1  H23B 8017   4.992   5.339   7.659  1.7358 -0.8709  1.9169
   75CHL1   C24 8018   5.060   5.496   7.794 -0.2731 -0.4735 -0.2481
   75CHL1  H24A 8019   5.156   5.524   7.745 -0.1451 -1.1935 -0.4219
   75CHL1  H24B 8020   5.025   5.591   7.839 -1.4806 -1.1267  0.2331
   75CHL1   C25 8021   5.083   5.418   7.927 -0.3333  0.6475  0.3244
   75CHL1   H25 8022   5.135   5.480   8.003  0.6821 -0.9390  1.0063
   75CHL1   C26 8023   4.949   5.365   7.985 -0.7007 -0.1040 -0.3764
   75CHL1  H26A 8024   4.892   5.459   7.997  0.4221  0.6680 -0.8889
   75CHL1  H26B 8025   4.896   5.283   7.933  1.0254 -2.1107  0.8558
   75CHL1  H26C 8026   4.980   5.330   8.086 -2.6197  0.1501  0.3324
   75CHL1   C27 8027   5.176   5.295   7.900 -0.2895 -0.0161  0.0757
   75CHL1  H27A 8028   5.187   5.230   7.990  0.6192  1.4846  1.0902
   75CHL1  H27B 8029   5.137   5.240   7.812 -1.3236  3.0190 -1.4889
   75CHL1  H27C 8030   5.279   5.328   7.878 -0.0292 -0.4888  0.5553
   76CHL1    C3 8031   0.043   0.423   7.045 -0.0296  0.4116 -0.3090
   76CHL1    H3 8032   0.063   0.515   7.105  4.3948  0.6641 -1.7326
   76CHL1    O3 8033   0.092   0.432   6.909  0.3815  0.7576  0.3903
   76CHL1   H3' 8034   0.051   0.512   6.876  2.9425  2.7161  1.6183
   76CHL1    C4 8035   0.114   0.314   7.128 -0.4355 -0.4123  0.1994
   76CHL1   H4A 8036   0.102   0.224   7.065 -2.3956 -0.4285  0.5320
   76CHL1   H4B 8037   0.223   0.335   7.134 -0.1643 -1.2037 -1.4073
   76CHL1    C5 8038   0.055   0.297   7.270 -0.3483  0.4793 -0.2090
   76CHL1    C6 8039   0.129   0.305   7.381 -0.3660  0.1979  0.0898
   76CHL1    H6 8040   0.239   0.315   7.379 -0.2908 -0.4771  0.3979
   76CHL1    C7 8041   0.079   0.283   7.520 -0.4942  0.4384 -0.5104
   76CHL1   H7A 8042   0.135   0.204   7.575 -1.0190  1.3209  1.3767
   76CHL1   H7B 8043   0.086   0.381   7.572  1.1705 -0.3302  0.8182
   76CHL1    C8 8044  -0.069   0.237   7.532  0.0184  0.6208  0.9961
   76CHL1    H8 8045  -0.068   0.129   7.510 -1.9141  0.5329  1.1790
   76CHL1   C14 8046  -0.123   0.258   7.673 -0.4738 -0.9165 -0.6652
   76CHL1   H14 8047  -0.114   0.368   7.686 -1.1693 -1.0752  1.5892
   76CHL1   C15 8048  -0.056   0.186   7.790  0.5819  0.3202  0.4388
   76CHL1  H15A 8049  -0.043   0.075   7.787 -2.4836 -0.1087  0.0150
   76CHL1  H15B 8050   0.046   0.231   7.796  1.4826 -1.0482 -2.6828
   76CHL1   C16 8051  -0.153   0.214   7.906  0.1772 -0.0955  0.2203
   76CHL1  H16A 8052  -0.175   0.117   7.956 -0.0504 -0.0833  0.1462
   76CHL1  H16B 8053  -0.105   0.276   7.985 -0.6085 -0.3192  0.9029
   76CHL1   C17 8054  -0.283   0.272   7.848  0.0402 -0.0327  0.3127
   76CHL1   H17 8055  -0.265   0.382   7.856  5.2436 -0.6465  0.5659
   76CHL1   C13 8056  -0.275   0.234   7.693  0.1844 -0.3460  0.6310
   76CHL1   C18 8057  -0.301   0.082   7.674 -0.6606  0.5553 -0.0440
   76CHL1  H18A 8058  -0.267   0.017   7.758 -3.9707 -2.5855 -0.8653
   76CHL1  H18B 8059  -0.410   0.063   7.678 -0.7118  0.4126 -1.5097
   76CHL1  H18C 8060  -0.259   0.032   7.583 -0.7039  2.3557 -1.0951
   76CHL1   C12 8061  -0.356   0.316   7.585 -0.0754 -0.1395  0.4994
   76CHL1  H12A 8062  -0.459   0.273   7.591  0.9080 -2.5449  1.3156
   76CHL1  H12B 8063  -0.352   0.424   7.608  0.1015  0.7233 -3.0884
   76CHL1   C11 8064  -0.305   0.285   7.445  0.7147 -0.0550  0.3060
   76CHL1  H11A 8065  -0.330   0.178   7.430 -3.2469  0.0992  3.8912
   76CHL1  H11B 8066  -0.366   0.346   7.375  0.2351  1.2826  1.8192
   76CHL1    C9 8067  -0.153   0.313   7.428  0.4644  0.9773 -0.2037
   76CHL1    H9 8068  -0.142   0.419   7.459  0.2363  0.8006  0.5023
   76CHL1   C10 8069  -0.099   0.294   7.285 -0.6006 -0.1176  0.2186
   76CHL1   C19 8070  -0.138   0.150   7.232 -0.1052 -0.6856  0.0138
   76CHL1  H19A 8071  -0.100   0.111   7.135 -1.3297 -1.9905  0.0309
   76CHL1  H19B 8072  -0.129   0.067   7.305 -2.0504 -0.9296  0.0263
   76CHL1  H19C 8073  -0.245   0.168   7.208 -0.7749 -2.2442  1.6273
   76CHL1    C1 8074  -0.157   0.399   7.186  0.0518 -0.8320  0.2136
   76CHL1   H1A 8075  -0.268   0.400   7.183  0.0750  0.2742 -2.1248
   76CHL1   H1B 8076  -0.132   0.500   7.227  0.1830 -1.6037  2.1663
   76CHL1    C2 8077  -0.106   0.397   7.046  0.1637  0.2507 -0.3226
   76CHL1   H2A 8078  -0.159   0.465   6.976 -1.9552 -1.4416 -0.4439
   76CHL1   H2B 8079  -0.113   0.296   7.001  2.9052 -0.5937  0.9073
   76CHL1   C20 8080  -0.411   0.226   7.922  0.5864 -0.1223 -0.2310
   76CHL1   H20 8081  -0.422   0.116   7.912 -0.7067 -0.4051  3.0639
   76CHL1   C21 8082  -0.531   0.293   7.848 -0.2273 -0.2805  1.0239
   76CHL1  H21A 8083  -0.617   0.294   7.919 -0.1051 -0.0171  1.1709
   76CHL1  H21B 8084  -0.566   0.242   7.756  1.9133  2.0519 -1.2768
   76CHL1  H21C 8085  -0.515   0.401   7.826 -0.8809 -0.0109  1.8382
   76CHL1   C22 8086  -0.406   0.255   8.069 -0.1595 -0.0269 -0.8909
   76CHL1  H22A 8087  -0.327   0.199   8.123  0.3007  0.2679 -1.2495
   76CHL1  H22B 8088  -0.386   0.364   8.079 -0.0069 -0.0131 -1.3204
   76CHL1   C23 8089  -0.539   0.230   8.140  0.2000 -0.7583 -0.5271
   76CHL1  H23A 8090  -0.631   0.281   8.104 -0.9337  0.0725  3.1385
   76CHL1  H23B 8091  -0.565   0.122   8.139 -0.9981 -0.5738  2.0933
   76CHL1   C24 8092  -0.522   0.247   8.295  0.0036 -0.1003  0.0232
   76CHL1  H24A 8093  -0.433   0.186   8.321 -0.9691 -2.4435 -1.7798
   76CHL1  H24B 8094  -0.494   0.352   8.320 -1.0352  0.0907  0.3970
   76CHL1   C25 8095  -0.648   0.206   8.377  0.2063  0.9574 -0.6251
   76CHL1   H25 8096  -0.625   0.216   8.485  1.8443 -0.9600 -0.7273
   76CHL1   C26 8097  -0.772   0.285   8.348  0.0456 -0.5015 -0.3495
   76CHL1  H26A 8098  -0.813   0.263   8.247 -1.1025  1.9833 -0.4801
   76CHL1  H26B 8099  -0.862   0.272   8.411 -0.4053 -1.1063 -1.0912
   76CHL1  H26C 8100  -0.744   0.390   8.367  0.9319 -1.2970  3.4267
   76CHL1   C27 8101  -0.689   0.058   8.369 -0.5543 -0.1209  0.4181
   76CHL1  H27A 8102  -0.720   0.041   8.263  1.1907 -0.7158 -0.0288
   76CHL1  H27B 8103  -0.600  -0.002   8.396  0.7097  1.0723 -0.8997
   76CHL1  H27C 8104  -0.768   0.040   8.446  0.4250  0.9604  1.7225
   77CHL1    C3 8105   1.963   5.291   6.838 -1.0274  0.4239  0.4803
   77CHL1    H3 8106   2.045   5.359   6.871 -1.0400  1.2153 -1.0381
   77CHL1    O3 8107   2.001   5.242   6.706 -0.1068  0.5131 -0.2829
   77CHL1   H3' 8108   1.933   5.267   6.643 -0.4174  0.4103  0.0101
   77CHL1    C4 8109   1.964   5.162   6.924 -0.0123 -0.6002  0.3806
   77CHL1   H4A 8110   1.890   5.093   6.877 -0.6822 -0.5973  1.4121
   77CHL1   H4B 8111   2.063   5.111   6.922  2.2664  3.4019  0.5882
   77CHL1    C5 8112   1.932   5.196   7.067 -0.6417 -0.0852  0.6467
   77CHL1    C6 8113   2.016   5.174   7.172 -0.4457 -0.7032 -0.4624
   77CHL1    H6 8114   2.118   5.136   7.158  0.1169 -0.0883  1.6503
   77CHL1    C7 8115   1.973   5.182   7.315 -0.6174 -0.2660 -0.1446
   77CHL1   H7A 8116   1.987   5.078   7.348  0.4022 -0.3768 -0.8757
   77CHL1   H7B 8117   2.040   5.247   7.375 -3.1736  2.0743  0.3831
   77CHL1    C8 8118   1.824   5.226   7.344 -0.5069 -0.0320  0.8016
   77CHL1    H8 8119   1.750   5.144   7.341 -2.6459  1.8262  0.5368
   77CHL1   C14 8120   1.821   5.302   7.478  0.6500 -0.7747 -0.0238
   77CHL1   H14 8121   1.873   5.399   7.463 -1.7819  0.4432 -1.3214
   77CHL1   C15 8122   1.893   5.243   7.600 -0.1981  0.1141 -0.5152
   77CHL1  H15A 8123   1.846   5.142   7.605  1.1697 -0.6144 -1.5937
   77CHL1  H15B 8124   2.003   5.232   7.588 -0.0309  0.6818  0.4491
   77CHL1   C16 8125   1.845   5.329   7.719  0.0706 -0.5192 -0.3246
   77CHL1  H16A 8126   1.813   5.259   7.799 -0.3376  0.8569  0.7555
   77CHL1  H16B 8127   1.920   5.395   7.766 -0.7933 -0.1732  0.6026
   77CHL1   C17 8128   1.720   5.414   7.666  0.6910 -0.1864  0.1539
   77CHL1   H17 8129   1.767   5.508   7.631 -1.5299  0.5736 -0.9718
   77CHL1   C13 8130   1.683   5.359   7.519 -0.1662 -0.0310  0.2978
   77CHL1   C18 8131   1.581   5.242   7.536 -0.6212  0.2769  0.3346
   77CHL1  H18A 8132   1.615   5.167   7.611  2.7038 -0.6897 -1.9207
   77CHL1  H18B 8133   1.478   5.279   7.552 -0.7475  0.3636 -0.5991
   77CHL1  H18C 8134   1.573   5.188   7.439 -0.7975  2.5832 -1.0012
   77CHL1   C12 8135   1.645   5.461   7.409  0.1770 -0.6354  0.2452
   77CHL1  H12A 8136   1.545   5.499   7.437  0.2159 -1.1495  1.1551
   77CHL1  H12B 8137   1.719   5.544   7.401 -2.4482  1.7116 -1.2601
   77CHL1   C11 8138   1.643   5.391   7.269 -0.5385 -1.1694 -0.5671
   77CHL1  H11A 8139   1.565   5.313   7.265 -1.0001 -0.6930 -1.1206
   77CHL1  H11B 8140   1.601   5.457   7.190  0.6691 -1.5391 -1.5579
   77CHL1    C9 8141   1.778   5.330   7.239 -0.1830  0.1105 -0.6212
   77CHL1    H9 8142   1.852   5.411   7.249 -1.1553  0.8543  1.0173
   77CHL1   C10 8143   1.795   5.269   7.090 -0.2202 -0.4192  0.4723
   77CHL1   C19 8144   1.687   5.171   7.062  0.1976  0.1644 -0.6408
   77CHL1  H19A 8145   1.683   5.156   6.952 -1.0666  1.4705 -0.7998
   77CHL1  H19B 8146   1.699   5.074   7.114  0.6082 -0.1060 -1.2314
   77CHL1  H19C 8147   1.587   5.211   7.087  0.6526  0.2723  1.2190
   77CHL1    C1 8148   1.781   5.385   6.991  0.3253  0.0530 -0.0701
   77CHL1   H1A 8149   1.684   5.440   6.985 -0.8261 -1.5644  2.2963
   77CHL1   H1B 8150   1.860   5.457   7.021  0.7332 -1.2165  2.1243
   77CHL1    C2 8151   1.824   5.361   6.839 -0.2742 -0.4787  0.4508
   77CHL1   H2A 8152   1.829   5.452   6.776 -1.3203 -2.5414 -2.8384
   77CHL1   H2B 8153   1.745   5.293   6.800 -0.0901 -0.1621 -0.4817
   77CHL1   C20 8154   1.617   5.443   7.762  0.6713 -0.3267 -0.1756
   77CHL1   H20 8155   1.552   5.354   7.777 -0.7039  0.9245  1.8691
   77CHL1   C21 8156   1.535   5.566   7.711  0.5162  0.3243  0.2371
   77CHL1  H21A 8157   1.597   5.657   7.697 -1.6118  1.6453 -1.2638
   77CHL1  H21B 8158   1.447   5.589   7.775  0.1154 -1.7875  0.5262
   77CHL1  H21C 8159   1.489   5.538   7.613 -0.1387  1.4119  0.2176
   77CHL1   C22 8160   1.671   5.482   7.900 -0.3197  0.3908  0.4942
   77CHL1  H22A 8161   1.734   5.399   7.939  0.4268  0.5565 -0.3378
   77CHL1  H22B 8162   1.728   5.575   7.877 -1.4282  0.8727 -0.3751
   77CHL1   C23 8163   1.575   5.501   8.013 -0.5823  0.4735 -0.0403
   77CHL1  H23A 8164   1.483   5.555   7.979 -0.2270  0.5440 -0.9172
   77CHL1  H23B 8165   1.551   5.401   8.053 -0.4466 -0.9100 -3.1685
   77CHL1   C24 8166   1.639   5.579   8.123 -0.3155  0.2151  0.3627
   77CHL1  H24A 8167   1.738   5.533   8.143 -1.0026 -0.7393  1.7273
   77CHL1  H24B 8168   1.653   5.681   8.080  0.0142 -0.2087 -0.5600
   77CHL1   C25 8169   1.561   5.585   8.257 -0.4546  0.6756  0.7155
   77CHL1   H25 8170   1.453   5.605   8.240 -1.4190 -2.4015  2.3723
   77CHL1   C26 8171   1.540   5.444   8.314 -0.2260 -0.9164  0.4457
   77CHL1  H26A 8172   1.480   5.385   8.242  0.2486  2.3292 -2.9335
   77CHL1  H26B 8173   1.637   5.394   8.335  1.2384  1.7976  0.5668
   77CHL1  H26C 8174   1.486   5.447   8.410 -0.3137  1.1595  0.3907
   77CHL1   C27 8175   1.627   5.680   8.353  0.3122 -0.4949 -0.1776
   77CHL1  H27A 8176   1.555   5.705   8.434  1.0561 -2.1282  1.0510
   77CHL1  H27B 8177   1.699   5.617   8.410  2.4224  2.1456  0.3305
   77CHL1  H27C 8178   1.677   5.773   8.317 -1.8416 -0.1713 -2.5739
   78CHL1    C3 8179   2.476   1.004   6.773  0.7549  0.1620  0.5207
   78CHL1    H3 8180   2.567   0.943   6.788 -0.2695 -2.1082 -1.7719
   78CHL1    O3 8181   2.415   0.954   6.655  0.1398 -0.0318 -0.5037
   78CHL1   H3' 8182   2.322   0.950   6.676 -0.1472  0.4844 -1.5957
   78CHL1    C4 8183   2.373   0.999   6.897 -0.2914 -0.7555 -0.2131
   78CHL1   H4A 8184   2.277   1.052   6.876 -0.5173 -1.2866 -0.5284
   78CHL1   H4B 8185   2.354   0.891   6.912  0.6555 -0.7333  1.2575
   78CHL1    C5 8186   2.435   1.061   7.024  0.5089 -0.0452  0.3573
   78CHL1    C6 8187   2.439   0.993   7.139  0.8610 -0.6749  0.3092
   78CHL1    H6 8188   2.385   0.897   7.140 -0.6308  0.0839 -1.4346
   78CHL1    C7 8189   2.480   1.053   7.267 -0.5073  0.3477 -0.6072
   78CHL1   H7A 8190   2.407   1.028   7.347 -1.7870 -1.1095 -2.1856
   78CHL1   H7B 8191   2.573   1.002   7.300  0.0847  1.2366 -0.8472
   78CHL1    C8 8192   2.506   1.207   7.255  0.6678  0.8073  0.1956
   78CHL1    H8 8193   2.412   1.264   7.271 -0.1606 -0.0339 -1.4445
   78CHL1   C14 8194   2.603   1.241   7.365  0.1173  0.1857 -0.3873
   78CHL1   H14 8195   2.703   1.197   7.349  0.2408 -0.8243  2.5262
   78CHL1   C15 8196   2.559   1.202   7.507  0.2876  0.6974 -0.4511
   78CHL1  H15A 8197   2.455   1.228   7.537  0.7070 -0.0162  1.8112
   78CHL1  H15B 8198   2.567   1.092   7.523 -1.7445  0.7118  1.0070
   78CHL1   C16 8199   2.654   1.277   7.602 -0.0955  1.2001 -0.0447
   78CHL1  H16A 8200   2.605   1.330   7.686  0.5797  1.6238  0.0895
   78CHL1  H16B 8201   2.720   1.196   7.640 -1.0120 -0.0059 -0.9198
   78CHL1   C17 8202   2.733   1.370   7.505  0.0135 -0.6528  0.1698
   78CHL1   H17 8203   2.832   1.330   7.474  0.9881  1.4837  0.3828
   78CHL1   C13 8204   2.638   1.386   7.383 -0.4861  0.6545  0.2918
   78CHL1   C18 8205   2.517   1.475   7.418 -1.1248 -0.2767 -0.0992
   78CHL1  H18A 8206   2.471   1.437   7.512  2.3759 -0.8460  1.5449
   78CHL1  H18B 8207   2.559   1.576   7.440 -0.5092 -0.8092  1.2882
   78CHL1  H18C 8208   2.442   1.477   7.336 -1.7456 -3.7076  0.2525
   78CHL1   C12 8209   2.702   1.436   7.253  0.0142  0.3148 -0.0479
   78CHL1  H12A 8210   2.712   1.545   7.267 -0.1661  0.0123  3.0444
   78CHL1  H12B 8211   2.799   1.389   7.225 -0.8414 -0.4085 -1.9687
   78CHL1   C11 8212   2.610   1.392   7.131  0.7434  0.2433 -0.8495
   78CHL1  H11A 8213   2.523   1.460   7.141  1.5906  1.1043  0.8857
   78CHL1  H11B 8214   2.664   1.428   7.041 -0.4200  0.6993 -1.3808
   78CHL1    C9 8215   2.574   1.242   7.121 -0.4022 -0.1919 -0.5367
   78CHL1    H9 8216   2.668   1.184   7.108 -0.6410 -0.8876  0.6452
   78CHL1   C10 8217   2.487   1.200   7.005  0.5579  0.8684  0.6140
   78CHL1   C19 8218   2.367   1.302   6.990 -0.5824  0.6652 -0.8849
   78CHL1  H19A 8219   2.399   1.408   6.992 -0.2417  0.5562  1.1856
   78CHL1  H19B 8220   2.297   1.275   6.908 -0.8505  0.4495 -0.5810
   78CHL1  H19C 8221   2.303   1.313   7.079 -1.4920 -0.8585 -1.3159
   78CHL1    C1 8222   2.580   1.201   6.878 -0.1801 -0.0584 -0.4989
   78CHL1   H1A 8223   2.606   1.307   6.858  1.0128 -0.1638  0.4122
   78CHL1   H1B 8224   2.672   1.146   6.907  0.7875  0.4113 -2.4881
   78CHL1    C2 8225   2.517   1.144   6.748 -0.0640  0.6082 -0.1738
   78CHL1   H2A 8226   2.581   1.155   6.658  0.4886 -0.8556  0.0138
   78CHL1   H2B 8227   2.417   1.187   6.723 -1.1342 -1.1967  0.7139
   78CHL1   C20 8228   2.774   1.501   7.582  0.9651  0.0167  1.0358
   78CHL1   H20 8229   2.694   1.569   7.616 -0.3566 -0.6341 -0.6232
   78CHL1   C21 8230   2.871   1.568   7.490 -0.3641 -0.5098  0.0317
   78CHL1  H21A 8231   2.828   1.612   7.398 -1.3421 -1.8291 -0.1715
   78CHL1  H21B 8232   2.964   1.510   7.471 -0.6481 -0.9807  0.0675
   78CHL1  H21C 8233   2.905   1.659   7.544  1.5439 -0.3198 -1.3919
   78CHL1   C22 8234   2.851   1.464   7.717 -0.1925  0.1098 -0.1117
   78CHL1  H22A 8235   2.776   1.419   7.786 -0.7287  0.5096 -0.4240
   78CHL1  H22B 8236   2.926   1.384   7.699 -0.5654 -0.6466  1.4442
   78CHL1   C23 8237   2.908   1.581   7.793  0.0436  0.1053 -0.3332
   78CHL1  H23A 8238   2.984   1.629   7.727 -0.9604  0.8193 -1.0027
   78CHL1  H23B 8239   2.828   1.656   7.811 -1.1581 -1.3086  0.4133
   78CHL1   C24 8240   2.989   1.551   7.919  0.1098 -0.3980  0.6787
   78CHL1  H24A 8241   2.914   1.530   7.998 -1.3329  0.0116 -0.5446
   78CHL1  H24B 8242   3.067   1.472   7.913  0.5754  0.1548 -1.0744
   78CHL1   C25 8243   3.067   1.677   7.967  0.0614 -0.2342  0.3296
   78CHL1   H25 8244   3.123   1.706   7.875 -2.7805 -1.2914 -1.9098
   78CHL1   C26 8245   2.976   1.798   7.994  0.6739 -0.0986 -0.1009
   78CHL1  H26A 8246   3.049   1.870   8.038  1.7232  0.2945 -2.3746
   78CHL1  H26B 8247   2.921   1.838   7.907  1.6874 -0.9614 -1.1643
   78CHL1  H26C 8248   2.904   1.756   8.067  0.3329  0.0140 -0.3714
   78CHL1   C27 8249   3.155   1.650   8.083 -0.1156  0.0682 -0.1842
   78CHL1  H27A 8250   3.241   1.720   8.091 -0.2410  0.2910 -0.7739
   78CHL1  H27B 8251   3.096   1.663   8.177  0.7989  1.3571  0.2334
   78CHL1  H27C 8252   3.190   1.545   8.071  1.1050  0.5233 -0.8201
   79CHL1    C3 8253   2.458   4.902   7.123 -0.6806 -0.2201 -0.0676
   79CHL1    H3 8254   2.500   5.005   7.116  0.6555 -0.8256 -1.5467
   79CHL1    O3 8255   2.479   4.847   6.999  0.0053  0.7543 -0.0603
   79CHL1   H3' 8256   2.432   4.763   7.000  2.1445 -0.5208 -0.6486
   79CHL1    C4 8257   2.533   4.830   7.229  0.9715 -0.6269  0.0848
   79CHL1   H4A 8258   2.492   4.726   7.233  1.8898 -0.9751  2.0883
   79CHL1   H4B 8259   2.639   4.811   7.202  0.4540 -1.7750 -1.2547
   79CHL1    C5 8260   2.509   4.891   7.366  0.2229  0.3715 -0.6472
   79CHL1    C6 8261   2.613   4.934   7.448 -0.2191 -0.3740 -0.1152
   79CHL1    H6 8262   2.712   4.912   7.406 -1.0057 -1.1666 -1.5948
   79CHL1    C7 8263   2.597   4.996   7.580  0.2260 -0.1225 -0.5397
   79CHL1   H7A 8264   2.661   4.964   7.665 -1.0825 -0.5035  0.3348
   79CHL1   H7B 8265   2.604   5.106   7.565 -1.6656  0.2839  1.1062
   79CHL1    C8 8266   2.452   4.991   7.636  0.7147  0.7498 -0.3349
   79CHL1    H8 8267   2.436   4.890   7.679 -1.5828  0.7975 -0.9552
   79CHL1   C14 8268   2.428   5.089   7.747 -0.9164 -0.5174 -0.1514
   79CHL1   H14 8269   2.418   5.185   7.691 -1.7305  0.1521  1.1030
   79CHL1   C15 8270   2.536   5.088   7.855 -0.1370 -0.1510  0.2624
   79CHL1  H15A 8271   2.572   4.987   7.882  0.4028 -0.9797 -3.1142
   79CHL1  H15B 8272   2.624   5.146   7.820 -1.0408  0.0655 -1.8722
   79CHL1   C16 8273   2.461   5.147   7.979 -0.0847 -0.4480  0.5853
   79CHL1  H16A 8274   2.452   5.071   8.059  1.0405 -0.1827  0.9827
   79CHL1  H16B 8275   2.506   5.236   8.028 -0.3193  0.5817 -0.9846
   79CHL1   C17 8276   2.312   5.176   7.934  0.1874  0.1230  0.0507
   79CHL1   H17 8277   2.308   5.275   7.883  0.7765  0.5014  0.7252
   79CHL1   C13 8278   2.294   5.075   7.816 -0.2168  0.0171 -0.2354
   79CHL1   C18 8279   2.277   4.932   7.877  0.7688  0.1126  0.1846
   79CHL1  H18A 8280   2.350   4.901   7.955 -1.1545 -1.3882  1.4629
   79CHL1  H18B 8281   2.181   4.934   7.932  0.2811 -0.2096 -0.6310
   79CHL1  H18C 8282   2.278   4.846   7.807 -0.8323 -1.0210  1.4836
   79CHL1   C12 8283   2.190   5.104   7.709  0.4815 -0.6308 -0.6071
   79CHL1  H12A 8284   2.085   5.094   7.743 -1.1331 -0.9120 -5.0038
   79CHL1  H12B 8285   2.210   5.206   7.669 -0.1433  0.2236  1.1429
   79CHL1   C11 8286   2.200   5.011   7.594 -0.0140  0.3477  0.5788
   79CHL1  H11A 8287   2.174   4.904   7.612 -0.2606  0.1131 -0.9780
   79CHL1  H11B 8288   2.113   5.040   7.531  0.4510  1.9528  0.6431
   79CHL1    C9 8289   2.345   5.010   7.526 -0.1045 -0.5072 -0.1697
   79CHL1    H9 8290   2.351   5.114   7.486  0.6497 -1.1941 -1.9398
   79CHL1   C10 8291   2.360   4.909   7.407 -0.0916  0.0943  0.1445
   79CHL1   C19 8292   2.320   4.770   7.453  0.7300  0.5975  0.3927
   79CHL1  H19A 8293   2.361   4.744   7.553  1.0459 -2.5616 -0.4481
   79CHL1  H19B 8294   2.209   4.767   7.447  0.8148 -1.4692 -1.5521
   79CHL1  H19C 8295   2.364   4.690   7.389  0.3417  1.1594 -0.5998
   79CHL1    C1 8296   2.272   4.965   7.287  0.3983 -0.0944 -0.5014
   79CHL1   H1A 8297   2.163   4.953   7.306  0.6242  0.5304  1.3389
   79CHL1   H1B 8298   2.311   5.068   7.272 -0.0615  0.0375 -0.8298
   79CHL1    C2 8299   2.312   4.902   7.152 -0.3247  0.0156 -0.1999
   79CHL1   H2A 8300   2.258   4.948   7.066  0.7567  0.8753 -0.4472
   79CHL1   H2B 8301   2.286   4.795   7.162  2.8902 -0.8456  0.0991
   79CHL1   C20 8302   2.208   5.188   8.043  0.1609  0.5108 -0.8048
   79CHL1   H20 8303   2.227   5.095   8.101  2.9056  1.8914  0.6910
   79CHL1   C21 8304   2.070   5.211   7.981  0.2312 -0.3578  0.3102
   79CHL1  H21A 8305   2.032   5.111   7.950 -1.7043 -0.3046  2.2148
   79CHL1  H21B 8306   2.067   5.265   7.884 -0.8236 -1.8031 -0.5066
   79CHL1  H21C 8307   1.995   5.258   8.049  0.1363  0.7679 -0.5425
   79CHL1   C22 8308   2.239   5.287   8.152 -0.2518 -0.0828  0.0783
   79CHL1  H22A 8309   2.346   5.271   8.178  0.4551  1.2886 -1.7651
   79CHL1  H22B 8310   2.222   5.389   8.113 -0.5841  1.1091  3.1017
   79CHL1   C23 8311   2.142   5.285   8.269  0.0637  0.0199 -0.3048
   79CHL1  H23A 8312   2.044   5.329   8.242 -1.1711 -0.7320  2.5775
   79CHL1  H23B 8313   2.123   5.184   8.310  1.4882 -0.6957 -1.3154
   79CHL1   C24 8314   2.194   5.367   8.389  0.1699 -0.1195  0.2593
   79CHL1  H24A 8315   2.303   5.364   8.408  0.4110  1.8657 -0.5216
   79CHL1  H24B 8316   2.191   5.474   8.358 -1.3506  0.0283  0.8256
   79CHL1   C25 8317   2.110   5.355   8.516 -0.1380  0.7378  0.1431
   79CHL1   H25 8318   2.062   5.255   8.518 -1.6392  1.3669 -1.8263
   79CHL1   C26 8319   2.202   5.351   8.642 -0.8312  0.1901 -0.4379
   79CHL1  H26A 8320   2.253   5.449   8.652 -0.2735 -0.2061  0.8272
   79CHL1  H26B 8321   2.135   5.345   8.731 -0.0095 -1.2835  0.1211
   79CHL1  H26C 8322   2.270   5.264   8.653 -0.7422  0.3407  0.2721
   79CHL1   C27 8323   2.000   5.458   8.516 -0.1603 -0.2668 -0.2397
   79CHL1  H27A 8324   1.944   5.464   8.421  1.4361 -2.2334 -1.3809
   79CHL1  H27B 8325   1.932   5.439   8.602  1.2896  0.4883  1.1381
   79CHL1  H27C 8326   2.050   5.554   8.542 -0.7048 -0.8235  3.5111
   80CHL1    C3 8327   0.863   4.611   6.904  0.5870  0.2950  0.3492
   80CHL1    H3 8328   0.829   4.709   6.863 -0.0904 -0.6259 -1.4251
   80CHL1    O3 8329   0.905   4.546   6.783  0.0481  0.3846  0.3413
   80CHL1   H3' 8330   0.995   4.580   6.781  0.1598  0.3303  2.3603
   80CHL1    C4 8331   0.979   4.609   7.004 -0.2418 -0.2748 -0.6405
   80CHL1   H4A 8332   1.015   4.505   7.016  0.5520  0.2004  1.6469
   80CHL1   H4B 8333   1.074   4.652   6.966 -1.6561  3.4876 -0.4027
   80CHL1    C5 8334   0.931   4.657   7.141 -0.1203 -0.3233 -0.2646
   80CHL1    C6 8335   0.982   4.764   7.205 -0.9192 -0.6990 -0.2430
   80CHL1    H6 8336   1.062   4.825   7.162 -1.3674 -0.0516 -0.1892
   80CHL1    C7 8337   0.941   4.802   7.349 -0.2294 -0.6212 -0.3495
   80CHL1   H7A 8338   1.029   4.822   7.414  0.9240  1.0139 -2.2851
   80CHL1   H7B 8339   0.888   4.899   7.347 -0.7189 -0.8816 -0.1195
   80CHL1    C8 8340   0.859   4.693   7.428  0.5605 -0.2649  0.5647
   80CHL1    H8 8341   0.928   4.615   7.464  0.1060 -1.5083 -1.0870
   80CHL1   C14 8342   0.795   4.751   7.551 -0.3385 -0.0354 -0.5413
   80CHL1   H14 8343   0.729   4.830   7.508 -1.3410 -0.9043 -0.6423
   80CHL1   C15 8344   0.884   4.830   7.651 -0.0078  0.0539 -0.3728
   80CHL1  H15A 8345   0.975   4.771   7.675 -0.2422 -0.0116  0.3742
   80CHL1  H15B 8346   0.910   4.931   7.611 -0.4519  0.3897  0.1884
   80CHL1   C16 8347   0.784   4.849   7.762  1.0349 -0.2377 -0.1576
   80CHL1  H16A 8348   0.831   4.822   7.859 -0.5921  1.8420  1.2935
   80CHL1  H16B 8349   0.747   4.953   7.772 -0.7375 -0.9522  1.1332
   80CHL1   C17 8350   0.659   4.761   7.742 -0.6986  0.1279  0.4787
   80CHL1   H17 8351   0.576   4.818   7.695  0.0546  0.3469 -0.6267
   80CHL1   C13 8352   0.704   4.662   7.634  0.1773 -0.0742  0.0324
   80CHL1   C18 8353   0.798   4.560   7.698  0.3084 -0.5106 -1.1097
   80CHL1  H18A 8354   0.849   4.511   7.612 -2.1093 -1.6717 -1.9739
   80CHL1  H18B 8355   0.881   4.600   7.761 -0.0928  0.1169 -0.9732
   80CHL1  H18C 8356   0.744   4.482   7.755  2.0466 -1.5856 -0.8451
   80CHL1   C12 8357   0.592   4.610   7.536 -0.4827  0.0112 -0.0232
   80CHL1  H12A 8358   0.524   4.540   7.589 -0.7960  1.0894  1.0238
   80CHL1  H12B 8359   0.529   4.694   7.500  0.9799  0.5372 -1.4989
   80CHL1   C11 8360   0.649   4.547   7.408 -0.3803  0.3048 -0.4154
   80CHL1  H11A 8361   0.691   4.449   7.437 -2.1330  0.8217  4.7419
   80CHL1  H11B 8362   0.569   4.519   7.336  0.7686 -0.1990 -1.5337
   80CHL1    C9 8363   0.752   4.637   7.334  0.3100  0.0452 -0.8429
   80CHL1    H9 8364   0.694   4.727   7.306 -0.4377  0.5635  2.0392
   80CHL1   C10 8365   0.811   4.578   7.205 -0.8528  0.0741  0.8206
   80CHL1   C19 8366   0.866   4.432   7.234  0.2041  0.3079 -0.3214
   80CHL1  H19A 8367   0.931   4.397   7.152  0.9138 -0.3114  0.4945
   80CHL1  H19B 8368   0.915   4.427   7.334 -2.7308 -5.3117  1.2578
   80CHL1  H19C 8369   0.790   4.351   7.245  0.8162 -0.3162 -0.6748
   80CHL1    C1 8370   0.700   4.575   7.102  0.4786  0.5235  0.2463
   80CHL1   H1A 8371   0.622   4.500   7.126 -0.0359 -0.1831 -3.1092
   80CHL1   H1B 8372   0.646   4.670   7.081 -0.3854  0.4232  1.8852
   80CHL1    C2 8373   0.741   4.527   6.959 -0.0063  0.3141  0.2812
   80CHL1   H2A 8374   0.648   4.528   6.898  0.4619 -1.1931 -0.5131
   80CHL1   H2B 8375   0.776   4.422   6.971  0.1413  0.6563  3.6867
   80CHL1   C20 8376   0.597   4.720   7.876 -0.4297 -0.2970 -0.8562
   80CHL1   H20 8377   0.670   4.651   7.922  0.2247  1.5879  1.1104
   80CHL1   C21 8378   0.470   4.639   7.859  0.9318  0.9157 -0.3338
   80CHL1  H21A 8379   0.387   4.705   7.825  2.0807  0.4118 -4.8853
   80CHL1  H21B 8380   0.457   4.599   7.961 -1.1395  1.7792 -0.2029
   80CHL1  H21C 8381   0.470   4.564   7.777 -0.4485 -0.5500  0.9574
   80CHL1   C22 8382   0.560   4.838   7.972 -0.1280  0.1630  0.7392
   80CHL1  H22A 8383   0.571   4.935   7.919  2.7603 -0.5132 -0.0682
   80CHL1  H22B 8384   0.460   4.825   8.018  0.2682  0.6717  1.7607
   80CHL1   C23 8385   0.644   4.833   8.098  0.2388  0.2111 -0.1717
   80CHL1  H23A 8386   0.626   4.742   8.158  1.5144  0.4747  0.6421
   80CHL1  H23B 8387   0.753   4.831   8.073  0.5759 -1.1759  1.2074
   80CHL1   C24 8388   0.628   4.949   8.201 -0.1746  0.4322 -0.5017
   80CHL1  H24A 8389   0.661   5.039   8.145 -0.4535 -0.0756 -1.5055
   80CHL1  H24B 8390   0.523   4.948   8.238 -0.1750 -1.1322 -0.4627
   80CHL1   C25 8391   0.728   4.946   8.324  0.0421  0.5424  0.3289
   80CHL1   H25 8392   0.737   4.844   8.367  1.5813  0.6290  0.2876
   80CHL1   C26 8393   0.871   4.998   8.288  0.2718  0.1755  0.6130
   80CHL1  H26A 8394   0.919   4.948   8.202  0.8435 -0.8490  1.5012
   80CHL1  H26B 8395   0.852   5.101   8.251  1.1455 -0.3241 -1.3036
   80CHL1  H26C 8396   0.938   4.995   8.377  0.2970 -3.2961  0.5964
   80CHL1   C27 8397   0.686   5.032   8.439 -0.3102 -0.1438  0.1668
   80CHL1  H27A 8398   0.752   5.020   8.527 -0.4898  1.3738  0.5361
   80CHL1  H27B 8399   0.703   5.138   8.411 -0.8886 -0.5288 -1.8069
   80CHL1  H27C 8400   0.582   5.014   8.473 -0.6345  0.4005 -0.5210
   81CHL1    C3 8401   4.208   4.367   6.374  0.8922  0.0394  0.3546
   81CHL1    H3 8402   4.101   4.391   6.393  0.9200  1.7818 -1.2639
   81CHL1    O3 8403   4.214   4.326   6.238 -0.5833 -0.0407 -0.3409
   81CHL1   H3' 8404   4.309   4.311   6.229 -0.2269  2.2244 -0.8745
   81CHL1    C4 8405   4.294   4.494   6.399  0.1501  0.1146  0.0748
   81CHL1   H4A 8406   4.395   4.486   6.353 -0.0741 -2.4937 -0.1044
   81CHL1   H4B 8407   4.247   4.575   6.338 -0.2832 -1.3863 -1.6776
   81CHL1    C5 8408   4.313   4.525   6.550  0.0564  0.1245  0.4027
   81CHL1    C6 8409   4.269   4.649   6.598 -0.3575  0.6938 -0.3905
   81CHL1    H6 8410   4.236   4.725   6.525  2.7322  0.8969 -1.7381
   81CHL1    C7 8411   4.286   4.698   6.739  0.1642  0.2283 -0.0446
   81CHL1   H7A 8412   4.330   4.799   6.739 -1.8722  1.2242 -2.2837
   81CHL1   H7B 8413   4.182   4.707   6.777 -0.0598 -1.3171 -0.1938
   81CHL1    C8 8414   4.362   4.601   6.830  0.5331  0.8148 -0.1921
   81CHL1    H8 8415   4.469   4.615   6.804  0.5443  0.3758 -0.3856
   81CHL1   C14 8416   4.318   4.634   6.975 -0.4303 -0.4182  0.2621
   81CHL1   H14 8417   4.208   4.615   6.971 -0.4938  0.0795 -0.5019
   81CHL1   C15 8418   4.339   4.772   7.028 -0.3759  0.1622 -0.3446
   81CHL1  H15A 8419   4.443   4.803   7.004 -0.9167  1.4234 -1.1471
   81CHL1  H15B 8420   4.267   4.844   6.985 -0.4988 -0.3024 -0.9281
   81CHL1   C16 8421   4.324   4.745   7.184  0.3098 -0.3695 -0.1377
   81CHL1  H16A 8422   4.413   4.788   7.234  0.6765  0.2704 -1.2969
   81CHL1  H16B 8423   4.236   4.796   7.228 -0.3223 -2.5931  1.3857
   81CHL1   C17 8424   4.302   4.597   7.213 -0.2480 -0.0520 -0.5021
   81CHL1   H17 8425   4.194   4.574   7.207 -0.2777 -0.3365  0.8264
   81CHL1   C13 8426   4.372   4.533   7.083  0.4520 -0.5122 -0.0791
   81CHL1   C18 8427   4.525   4.533   7.081 -0.6536 -0.2474  0.0806
   81CHL1  H18A 8428   4.571   4.527   7.182  0.5375  1.4409 -0.3150
   81CHL1  H18B 8429   4.561   4.444   7.026 -0.0608  0.0403 -0.0036
   81CHL1  H18C 8430   4.565   4.625   7.033 -2.6052 -0.2003 -1.5973
   81CHL1   C12 8431   4.319   4.395   7.053 -0.7152  0.3551  0.3344
   81CHL1  H12A 8432   4.340   4.312   7.125 -1.5464  0.5960  0.8717
   81CHL1  H12B 8433   4.209   4.400   7.068 -0.6636 -0.6729  1.2541
   81CHL1   C11 8434   4.358   4.352   6.908  0.2740  0.1524  0.9558
   81CHL1  H11A 8435   4.467   4.327   6.903 -0.1187 -1.5204 -0.2470
   81CHL1  H11B 8436   4.304   4.260   6.879  2.2805 -0.4956 -1.0545
   81CHL1    C9 8437   4.326   4.455   6.799  0.7148 -0.4837  0.2312
   81CHL1    H9 8438   4.216   4.464   6.801  0.6308 -0.0800 -2.1856
   81CHL1   C10 8439   4.360   4.419   6.648 -0.7087  0.3246  0.0869
   81CHL1   C19 8440   4.515   4.397   6.628 -0.4340 -1.2264  0.1250
   81CHL1  H19A 8441   4.565   4.494   6.612 -2.1200 -0.2811  0.3671
   81CHL1  H19B 8442   4.569   4.334   6.702  4.1121  3.0507  0.9565
   81CHL1  H19C 8443   4.520   4.332   6.538  2.1479 -0.2437 -0.5214
   81CHL1    C1 8444   4.274   4.291   6.609 -0.2486  0.4190  0.1891
   81CHL1   H1A 8445   4.337   4.205   6.641 -1.2266 -1.1577 -1.8677
   81CHL1   H1B 8446   4.179   4.293   6.667  0.8285 -0.7444  2.1332
   81CHL1    C2 8447   4.257   4.256   6.452 -0.4281  0.5367 -0.2190
   81CHL1   H2A 8448   4.169   4.188   6.447 -0.2536  0.4221 -2.2604
   81CHL1   H2B 8449   4.345   4.198   6.417 -0.7046 -1.0250  1.4638
   81CHL1   C20 8450   4.364   4.559   7.350 -0.3767 -0.2485 -0.8580
   81CHL1   H20 8451   4.475   4.558   7.352 -0.3109 -2.2006  2.3533
   81CHL1   C21 8452   4.330   4.419   7.380 -0.8784 -0.5453 -0.6615
   81CHL1  H21A 8453   4.364   4.406   7.485  0.1371  0.4293 -0.8529
   81CHL1  H21B 8454   4.392   4.351   7.318  0.6230 -0.6683  0.8911
   81CHL1  H21C 8455   4.222   4.400   7.366 -1.1626 -0.6148  1.3633
   81CHL1   C22 8456   4.308   4.653   7.463  0.4355 -0.5007 -0.3904
   81CHL1  H22A 8457   4.346   4.754   7.437  1.2848 -1.1174 -1.6832
   81CHL1  H22B 8458   4.198   4.650   7.448  0.5717 -1.4155 -1.3183
   81CHL1   C23 8459   4.347   4.632   7.611 -0.3450  0.2314  0.0405
   81CHL1  H23A 8460   4.283   4.552   7.653 -2.0008  0.1045 -2.5214
   81CHL1  H23B 8461   4.455   4.608   7.624 -0.7530 -0.7847  1.9532
   81CHL1   C24 8462   4.345   4.766   7.693 -0.5058  0.0042  0.8693
   81CHL1  H24A 8463   4.397   4.847   7.637 -1.1371  1.2877  2.0761
   81CHL1  H24B 8464   4.237   4.790   7.696 -0.8474 -1.4894  1.5229
   81CHL1   C25 8465   4.405   4.748   7.837 -0.1954 -0.0142  0.0962
   81CHL1   H25 8466   4.508   4.710   7.822  0.7468  1.8043  1.5357
   81CHL1   C26 8467   4.406   4.877   7.915  0.2699 -0.5009  0.3124
   81CHL1  H26A 8468   4.476   4.949   7.867 -0.1541 -1.5512 -1.9653
   81CHL1  H26B 8469   4.303   4.916   7.928 -0.1951 -1.4355 -0.4647
   81CHL1  H26C 8470   4.452   4.864   8.016 -1.8836 -1.5642  1.2233
   81CHL1   C27 8471   4.322   4.645   7.915 -0.0265 -0.1415 -0.5893
   81CHL1  H27A 8472   4.385   4.624   8.005 -0.4397  0.2448 -0.2037
   81CHL1  H27B 8473   4.230   4.699   7.947 -0.6197 -1.2178 -0.4146
   81CHL1  H27C 8474   4.303   4.552   7.857 -0.6281  1.7404 -3.6110
   82CHL1    C3 8475   6.411   6.061   6.856 -0.0458  0.2985  0.4727
   82CHL1    H3 8476   6.509   6.016   6.879  0.8391  3.0859  2.8108
   82CHL1    O3 8477   6.410   6.079   6.715  0.2259 -0.5096 -0.3717
   82CHL1   H3' 8478   6.495   6.120   6.695 -0.8190  2.4797  0.7995
   82CHL1    C4 8479   6.294   5.985   6.902  1.4555  0.1134 -0.4657
   82CHL1   H4A 8480   6.199   6.039   6.886  0.9985 -1.3435 -3.4140
   82CHL1   H4B 8481   6.266   5.892   6.847  0.1920 -0.2384  0.7319
   82CHL1    C5 8482   6.311   5.946   7.051 -0.5718  0.3233  0.2554
   82CHL1    C6 8483   6.303   5.817   7.101  0.0354 -0.7809 -0.5330
   82CHL1    H6 8484   6.276   5.727   7.043  0.0776 -2.3242  1.7453
   82CHL1    C7 8485   6.327   5.790   7.246 -0.3179 -0.2348 -0.9512
   82CHL1   H7A 8486   6.244   5.726   7.284  0.3871 -0.4656  0.2465
   82CHL1   H7B 8487   6.423   5.739   7.268 -0.5285 -0.4262 -0.4634
   82CHL1    C8 8488   6.315   5.912   7.345 -0.4942  0.4218  0.2590
   82CHL1    H8 8489   6.208   5.941   7.357 -0.5923 -0.2410  1.0617
   82CHL1   C14 8490   6.372   5.882   7.476  0.0905 -0.0213 -0.1447
   82CHL1   H14 8491   6.478   5.864   7.448  0.1297  1.3091 -0.9433
   82CHL1   C15 8492   6.325   5.756   7.556 -0.1170  0.0750  0.6126
   82CHL1  H15A 8493   6.216   5.756   7.536  0.0040 -1.6204 -0.2132
   82CHL1  H15B 8494   6.367   5.662   7.515  0.2928  0.6741 -0.3849
   82CHL1   C16 8495   6.356   5.785   7.699 -0.9381  0.7787  0.1057
   82CHL1  H16A 8496   6.261   5.779   7.755 -2.3650 -0.6814 -2.3244
   82CHL1  H16B 8497   6.439   5.722   7.738  0.5993  1.1238 -2.3633
   82CHL1   C17 8498   6.416   5.928   7.707  0.0858 -0.1332  0.0855
   82CHL1   H17 8499   6.525   5.921   7.687  0.2316 -2.4084  1.3635
   82CHL1   C13 8500   6.358   6.003   7.580 -0.6056 -0.2302  0.0715
   82CHL1   C18 8501   6.219   6.044   7.626 -0.5984  0.3219 -0.2951
   82CHL1  H18A 8502   6.151   6.058   7.539 -2.2524  0.2131  0.9328
   82CHL1  H18B 8503   6.174   5.962   7.687  1.0726 -1.2048 -1.0078
   82CHL1  H18C 8504   6.214   6.137   7.686  0.5758  1.0072 -1.2223
   82CHL1   C12 8505   6.441   6.124   7.521  0.4505 -0.3048 -0.8488
   82CHL1  H12A 8506   6.424   6.210   7.590  1.3718 -1.5600  1.0258
   82CHL1  H12B 8507   6.549   6.100   7.522  0.5850  0.2355  0.9472
   82CHL1   C11 8508   6.394   6.158   7.380 -0.6751 -0.5296  0.3170
   82CHL1  H11A 8509   6.294   6.204   7.398 -0.4800 -0.4167  1.1299
   82CHL1  H11B 8510   6.463   6.235   7.337  0.8568 -2.2816 -0.5249
   82CHL1    C9 8511   6.390   6.038   7.283  1.0606  0.6749  0.1531
   82CHL1    H9 8512   6.496   6.007   7.266  1.0392  0.6731  0.0212
   82CHL1   C10 8513   6.342   6.067   7.142 -0.0296 -0.8301 -0.0144
   82CHL1   C19 8514   6.208   6.141   7.151 -0.3177 -0.2172 -0.0584
   82CHL1  H19A 8515   6.126   6.075   7.187 -0.6000  0.1641  0.0055
   82CHL1  H19B 8516   6.212   6.238   7.205  1.5057 -0.3838  0.1643
   82CHL1  H19C 8517   6.163   6.178   7.057 -0.5973  1.3696  0.6693
   82CHL1    C1 8518   6.449   6.164   7.075 -0.0823 -0.2903 -0.0321
   82CHL1   H1A 8519   6.456   6.262   7.126  0.0338 -0.7365  0.8321
   82CHL1   H1B 8520   6.549   6.118   7.091  0.6517  1.9076  2.2848
   82CHL1    C2 8521   6.421   6.198   6.925  0.3607 -0.2226  0.5945
   82CHL1   H2A 8522   6.505   6.253   6.877 -0.7372 -0.2234 -1.4769
   82CHL1   H2B 8523   6.337   6.270   6.919 -0.0333 -0.5417  1.9865
   82CHL1   C20 8524   6.409   5.993   7.849  0.0574  0.7451  0.4758
   82CHL1   H20 8525   6.306   6.034   7.858 -0.3844  0.1328 -1.4967
   82CHL1   C21 8526   6.508   6.104   7.858  0.2345 -0.7502  0.4329
   82CHL1  H21A 8527   6.531   6.142   7.960  0.9322  0.7599 -0.2554
   82CHL1  H21B 8528   6.473   6.182   7.787  0.0622 -2.6987 -1.7676
   82CHL1  H21C 8529   6.606   6.070   7.817  0.2018  2.1886 -2.4234
   82CHL1   C22 8530   6.425   5.886   7.957  1.1432  0.4202 -0.2097
   82CHL1  H22A 8531   6.341   5.813   7.953 -0.4251  2.1715 -3.0506
   82CHL1  H22B 8532   6.517   5.829   7.934  0.8687 -0.6304  1.1731
   82CHL1   C23 8533   6.400   5.937   8.099  0.3316  0.1555 -0.8920
   82CHL1  H23A 8534   6.482   6.003   8.137  0.2151  0.1273 -0.5894
   82CHL1  H23B 8535   6.320   6.013   8.086  1.7008  1.5820 -1.3792
   82CHL1   C24 8536   6.381   5.830   8.202  0.0800 -0.2706  0.0842
   82CHL1  H24A 8537   6.293   5.767   8.177 -0.4564  1.0775 -1.6217
   82CHL1  H24B 8538   6.470   5.763   8.200 -0.0504 -0.5325  1.9120
   82CHL1   C25 8539   6.369   5.887   8.344 -0.0554  0.3600  0.0763
   82CHL1   H25 8540   6.466   5.935   8.370  1.5088 -2.7410  0.3928
   82CHL1   C26 8541   6.258   5.991   8.370 -0.8530 -0.1521  0.5189
   82CHL1  H26A 8542   6.278   6.041   8.467  0.4710  1.1635 -0.3973
   82CHL1  H26B 8543   6.270   6.067   8.290 -1.9912  1.5696  1.9137
   82CHL1  H26C 8544   6.156   5.946   8.368 -2.0139  2.2627  1.1758
   82CHL1   C27 8545   6.365   5.774   8.450 -0.2150  0.5774  0.0764
   82CHL1  H27A 8546   6.444   5.697   8.447  2.7787  3.4374 -2.2427
   82CHL1  H27B 8547   6.366   5.825   8.549 -2.0605 -1.9611  1.5088
   82CHL1  H27C 8548   6.265   5.725   8.446 -1.5138  3.0336  0.1158
   83CHL1    C3 8549   0.468   1.483   6.916 -0.5101  0.2576 -0.0743
   83CHL1    H3 8550   0.484   1.374   6.935  1.9921  0.4273 -0.8210
   83CHL1    O3 8551   0.454   1.515   6.776 -0.1216 -0.2503  0.0083
   83CHL1   H3' 8552   0.540   1.510   6.734 -0.7956 -0.2210 -1.4174
   83CHL1    C4 8553   0.334   1.504   6.986  0.0526  0.3646  0.5580
   83CHL1   H4A 8554   0.301   1.607   6.961 -0.2894 -0.0551 -0.8173
   83CHL1   H4B 8555   0.264   1.436   6.932 -2.2145  2.0782  1.1835
   83CHL1    C5 8556   0.352   1.482   7.138  0.1993 -0.1057  1.2830
   83CHL1    C6 8557   0.282   1.384   7.194 -0.1343 -0.1242  0.6889
   83CHL1    H6 8558   0.212   1.329   7.129 -1.0541 -1.6065  2.8531
   83CHL1    C7 8559   0.274   1.356   7.343 -0.3983 -1.1119 -0.1263
   83CHL1   H7A 8560   0.167   1.338   7.367 -0.2274  0.7322  2.3694
   83CHL1   H7B 8561   0.334   1.272   7.383  0.3685  0.2229  1.6456
   83CHL1    C8 8562   0.330   1.479   7.421  0.3649  0.3408 -0.0144
   83CHL1    H8 8563   0.246   1.552   7.427  0.7675  0.7966  0.1125
   83CHL1   C14 8564   0.344   1.431   7.569  0.0789 -0.0199  0.0069
   83CHL1   H14 8565   0.427   1.358   7.556  0.6164  0.2619  1.5658
   83CHL1   C15 8566   0.235   1.352   7.635 -0.1772  0.4849  0.3918
   83CHL1  H15A 8567   0.137   1.398   7.609 -0.8660 -0.7960  0.6382
   83CHL1  H15B 8568   0.240   1.247   7.597 -0.8256  0.8960 -0.8832
   83CHL1   C16 8569   0.256   1.372   7.786 -0.3193 -0.5566  0.6192
   83CHL1  H16A 8570   0.165   1.431   7.810  0.7109  1.7869 -0.8549
   83CHL1  H16B 8571   0.261   1.274   7.839  0.1410 -1.7177 -1.4647
   83CHL1   C17 8572   0.374   1.474   7.805 -0.7075 -0.0899 -0.7624
   83CHL1   H17 8573   0.456   1.401   7.821 -2.1795 -1.5959  0.3738
   83CHL1   C13 8574   0.391   1.542   7.666  0.0070 -0.2875 -0.6372
   83CHL1   C18 8575   0.290   1.663   7.666  0.0785 -0.1737  0.5083
   83CHL1  H18A 8576   0.290   1.720   7.570  2.2217 -1.6648 -0.4588
   83CHL1  H18B 8577   0.188   1.623   7.684 -1.2860  3.1242  0.7837
   83CHL1  H18C 8578   0.313   1.728   7.753 -1.4721 -1.9313  2.3462
   83CHL1   C12 8579   0.535   1.579   7.622  0.7629  0.2974 -0.0106
   83CHL1  H12A 8580   0.597   1.652   7.678  2.1091 -0.1213 -0.8996
   83CHL1  H12B 8581   0.605   1.492   7.623  0.5249  0.1028 -0.1855
   83CHL1   C11 8582   0.531   1.619   7.471  0.6600  1.1410  0.0638
   83CHL1  H11A 8583   0.463   1.704   7.450 -0.8347 -0.6039 -2.7518
   83CHL1  H11B 8584   0.633   1.652   7.442 -0.1666  2.7936 -1.1131
   83CHL1    C9 8585   0.468   1.521   7.370 -0.4525  0.5821  0.1830
   83CHL1    H9 8586   0.542   1.439   7.387  0.6499  1.3388 -0.7322
   83CHL1   C10 8587   0.458   1.562   7.217 -0.0963 -0.4689 -0.1347
   83CHL1   C19 8588   0.401   1.716   7.212  0.1723 -0.2613  0.3035
   83CHL1  H19A 8589   0.388   1.756   7.109  0.3597  2.1007  1.1375
   83CHL1  H19B 8590   0.306   1.731   7.267 -0.5993 -2.0908 -0.4470
   83CHL1  H19C 8591   0.470   1.786   7.264  0.3146  0.2147 -0.5027
   83CHL1    C1 8592   0.584   1.546   7.133 -0.1652 -0.4370  0.6487
   83CHL1   H1A 8593   0.651   1.632   7.159 -1.6562  1.1049 -0.3619
   83CHL1   H1B 8594   0.639   1.450   7.143 -0.4289 -0.7522 -0.6798
   83CHL1    C2 8595   0.579   1.566   6.980  0.5166 -0.5824  0.6910
   83CHL1   H2A 8596   0.677   1.531   6.943 -0.6933 -2.0666 -1.2634
   83CHL1   H2B 8597   0.559   1.675   6.968  1.5901 -0.4046  0.4490
   83CHL1   C20 8598   0.375   1.549   7.941 -0.1850  0.1150 -0.0295
   83CHL1   H20 8599   0.295   1.625   7.949 -0.6391 -0.2914 -0.6419
   83CHL1   C21 8600   0.503   1.632   7.954  0.0139 -0.2135  0.2108
   83CHL1  H21A 8601   0.583   1.558   7.931 -0.0688 -0.1000 -0.4599
   83CHL1  H21B 8602   0.524   1.672   8.056 -0.7203 -0.3807  0.4343
   83CHL1  H21C 8603   0.504   1.716   7.881 -1.3631  0.6771  1.1790
   83CHL1   C22 8604   0.369   1.446   8.062 -0.3290 -0.1505  0.0099
   83CHL1  H22A 8605   0.278   1.385   8.045  0.5671 -1.4801 -0.0800
   83CHL1  H22B 8606   0.460   1.382   8.064 -0.2756 -0.0526  1.5193
   83CHL1   C23 8607   0.355   1.509   8.208  0.6791  0.1731  0.7669
   83CHL1  H23A 8608   0.452   1.560   8.228  1.8076 -0.8384 -1.6563
   83CHL1  H23B 8609   0.277   1.587   8.210  1.8127  1.3256  1.9030
   83CHL1   C24 8610   0.334   1.393   8.305  0.1126  0.1717  0.7199
   83CHL1  H24A 8611   0.264   1.317   8.264  2.2745 -0.9629 -1.1237
   83CHL1  H24B 8612   0.425   1.328   8.305 -0.4470 -0.7886 -2.5543
   83CHL1   C25 8613   0.305   1.445   8.451  0.0308 -0.2525  0.1898
   83CHL1   H25 8614   0.237   1.532   8.438 -1.1225 -1.2224 -0.4298
   83CHL1   C26 8615   0.238   1.329   8.531 -0.4919 -0.1758  0.0024
   83CHL1  H26A 8616   0.139   1.296   8.491 -1.1297 -1.2828  2.3015
   83CHL1  H26B 8617   0.292   1.232   8.525  0.8297  0.5337  0.2130
   83CHL1  H26C 8618   0.234   1.362   8.637  4.0546 -2.1070  0.9954
   83CHL1   C27 8619   0.426   1.499   8.518 -0.7143 -0.6244 -0.7392
   83CHL1  H27A 8620   0.455   1.596   8.474  0.5873 -1.3785 -1.6110
   83CHL1  H27B 8621   0.408   1.519   8.626  0.5568  2.0635 -0.9484
   83CHL1  H27C 8622   0.513   1.429   8.520 -0.1514  0.0430  2.0119
   84CHL1    C3 8623   4.290   3.501   6.840  0.6574 -0.1953 -0.6011
   84CHL1    H3 8624   4.179   3.497   6.839  0.5787  0.1141  1.4151
   84CHL1    O3 8625   4.331   3.537   6.715  0.1147  0.1383  0.1867
   84CHL1   H3' 8626   4.412   3.486   6.706  0.8528  1.3549 -0.2723
   84CHL1    C4 8627   4.332   3.614   6.936  0.0459  0.2623  0.4405
   84CHL1   H4A 8628   4.441   3.626   6.917  0.3121 -3.0404 -0.7637
   84CHL1   H4B 8629   4.285   3.710   6.907  1.0488  0.5820 -0.1928
   84CHL1    C5 8630   4.298   3.592   7.081  0.7001  0.0550  0.1096
   84CHL1    C6 8631   4.219   3.677   7.154 -0.4593 -0.3237  0.0108
   84CHL1    H6 8632   4.181   3.769   7.108 -2.3265  0.2343  2.4359
   84CHL1    C7 8633   4.186   3.655   7.301  0.6896  0.6203  0.3483
   84CHL1   H7A 8634   4.196   3.745   7.366 -1.1313  0.2986  1.1086
   84CHL1   H7B 8635   4.086   3.608   7.298  0.9548  0.0151  0.8715
   84CHL1    C8 8636   4.272   3.543   7.365  0.0420  0.4552 -0.6746
   84CHL1    H8 8637   4.367   3.594   7.392 -0.0428  1.1718 -1.6709
   84CHL1   C14 8638   4.203   3.496   7.491  0.3509 -0.4600 -0.8100
   84CHL1   H14 8639   4.113   3.441   7.457 -0.6902  0.8436 -0.2597
   84CHL1   C15 8640   4.169   3.605   7.600 -0.1262  0.1192  0.0749
   84CHL1  H15A 8641   4.244   3.686   7.592 -0.1034 -0.0749 -2.6568
   84CHL1  H15B 8642   4.065   3.632   7.574 -0.7640 -0.4387  1.9253
   84CHL1   C16 8643   4.163   3.528   7.731 -0.2310  0.7740 -0.8161
   84CHL1  H16A 8644   4.219   3.573   7.815 -0.0007  1.2986 -1.2480
   84CHL1  H16B 8645   4.061   3.531   7.776 -0.3198  2.3356 -1.0782
   84CHL1   C17 8646   4.199   3.377   7.703  0.1044 -0.9883  0.4888
   84CHL1   H17 8647   4.107   3.319   7.682  0.2145 -0.9710 -0.0595
   84CHL1   C13 8648   4.280   3.389   7.568  1.2436 -0.0554 -0.4020
   84CHL1   C18 8649   4.426   3.432   7.599  0.0781 -0.1084 -0.0375
   84CHL1  H18A 8650   4.479   3.472   7.510  1.6331  0.3654  1.0607
   84CHL1  H18B 8651   4.434   3.513   7.674  0.9151  0.4383 -0.7073
   84CHL1  H18C 8652   4.489   3.346   7.629 -1.3062 -0.0327  3.5888
   84CHL1   C12 8653   4.266   3.257   7.474 -0.2081 -1.1317 -0.2985
   84CHL1  H12A 8654   4.316   3.172   7.525  1.5744  0.7678  1.3038
   84CHL1  H12B 8655   4.160   3.223   7.467 -1.0750  0.5451  2.6697
   84CHL1   C11 8656   4.328   3.282   7.332  0.3950  0.3509 -0.2692
   84CHL1  H11A 8657   4.438   3.290   7.346  0.3440  2.1208 -0.6559
   84CHL1  H11B 8658   4.298   3.199   7.265  0.4356 -0.6870  0.9477
   84CHL1    C9 8659   4.281   3.418   7.270  0.2988  0.2473  0.4106
   84CHL1    H9 8660   4.179   3.392   7.235  0.6002  1.0830 -1.1986
   84CHL1   C10 8661   4.346   3.453   7.134  0.2660 -0.0868  0.2668
   84CHL1   C19 8662   4.499   3.466   7.152 -0.9414 -0.3592 -0.3697
   84CHL1  H19A 8663   4.519   3.550   7.223 -2.1236  1.4334 -2.0350
   84CHL1  H19B 8664   4.544   3.370   7.184  0.9237  0.2056 -1.1352
   84CHL1  H19C 8665   4.551   3.495   7.058 -0.7975  0.5577 -0.0160
   84CHL1    C1 8666   4.318   3.342   7.026 -0.2300  1.1015 -0.2717
   84CHL1   H1A 8667   4.384   3.257   7.051 -0.6069  0.0296 -2.6132
   84CHL1   H1B 8668   4.211   3.310   7.023  0.5348 -1.7895  0.5397
   84CHL1    C2 8669   4.358   3.378   6.878  0.4737 -0.4498  0.6617
   84CHL1   H2A 8670   4.350   3.291   6.810 -0.2922  0.3690 -0.3279
   84CHL1   H2B 8671   4.468   3.397   6.872  0.1642  1.0242 -1.2957
   84CHL1   C20 8672   4.267   3.303   7.816 -0.1378 -0.3202  0.5122
   84CHL1   H20 8673   4.375   3.323   7.825 -0.1269 -1.0806  2.5027
   84CHL1   C21 8674   4.237   3.153   7.789  0.0351 -0.0267 -0.3644
   84CHL1  H21A 8675   4.141   3.110   7.754 -1.2799  2.7784 -0.4421
   84CHL1  H21B 8676   4.265   3.113   7.889  0.9684  2.6591  0.5438
   84CHL1  H21C 8677   4.316   3.128   7.715  1.5881  0.4158  1.0686
   84CHL1   C22 8678   4.207   3.355   7.952 -0.1185  0.0904  0.1968
   84CHL1  H22A 8679   4.207   3.465   7.961 -1.3265 -0.0188  1.8704
   84CHL1  H22B 8680   4.103   3.319   7.939 -0.3983  0.9123  0.0919
   84CHL1   C23 8681   4.258   3.298   8.079 -0.5767  0.6092 -0.4097
   84CHL1  H23A 8682   4.246   3.188   8.068 -1.0486  0.7437 -1.3669
   84CHL1  H23B 8683   4.366   3.320   8.086 -0.3178 -1.0069  1.5271
   84CHL1   C24 8684   4.211   3.359   8.210 -0.3954 -0.0644 -0.7357
   84CHL1  H24A 8685   4.264   3.319   8.300 -0.7521  1.1210  0.0293
   84CHL1  H24B 8686   4.238   3.467   8.204  0.8010 -0.3445 -0.7566
   84CHL1   C25 8687   4.065   3.333   8.227 -0.1480 -0.9184 -0.4745
   84CHL1   H25 8688   4.014   3.366   8.134  2.4133 -0.8791 -1.9535
   84CHL1   C26 8689   4.036   3.184   8.239  0.1200  0.2305 -0.4080
   84CHL1  H26A 8690   4.101   3.145   8.321  0.6732  0.2637 -0.8275
   84CHL1  H26B 8691   3.932   3.163   8.271 -0.1940  1.1512 -0.8019
   84CHL1  H26C 8692   4.063   3.126   8.149 -0.7676  1.8868 -1.7896
   84CHL1   C27 8693   4.002   3.416   8.341  0.2251  0.3994 -0.8082
   84CHL1  H27A 8694   3.892   3.407   8.336  0.1141 -0.3585  1.6309
   84CHL1  H27B 8695   4.035   3.400   8.446  1.9979  0.8603 -1.2575
   84CHL1  H27C 8696   4.019   3.519   8.304 -1.2246  1.2293  0.7074
   85CHL1    C3 8697   3.464   0.594   6.650 -0.2524  0.0121  0.4160
   85CHL1    H3 8698   3.433   0.489   6.671  0.2594  0.1912  2.2811
   85CHL1    O3 8699   3.473   0.609   6.508 -0.6421  0.1209  0.0434
   85CHL1   H3' 8700   3.382   0.589   6.483 -0.8054  1.7563 -0.8523
   85CHL1    C4 8701   3.375   0.695   6.703  0.1837 -0.4398 -0.3939
   85CHL1   H4A 8702   3.408   0.790   6.656 -1.3027 -0.8390 -2.3608
   85CHL1   H4B 8703   3.274   0.677   6.662  0.3161  2.5253 -2.2622
   85CHL1    C5 8704   3.372   0.721   6.854  0.0615 -0.1762 -0.1913
   85CHL1    C6 8705   3.258   0.728   6.929 -0.2587  0.1268  0.2101
   85CHL1    H6 8706   3.162   0.712   6.879 -1.1082 -2.4717  2.4129
   85CHL1    C7 8707   3.258   0.756   7.082  0.8086 -0.0670 -0.3740
   85CHL1   H7A 8708   3.191   0.841   7.109 -1.4627 -2.0355  0.4689
   85CHL1   H7B 8709   3.213   0.669   7.133  0.0482  0.9597  0.7554
   85CHL1    C8 8710   3.397   0.778   7.143 -0.4770  0.3035  0.6140
   85CHL1    H8 8711   3.408   0.887   7.125  1.9445  0.0869  0.4619
   85CHL1   C14 8712   3.397   0.760   7.293 -0.2730  0.4393  0.5271
   85CHL1   H14 8713   3.388   0.650   7.299 -1.1146  0.4967  0.3052
   85CHL1   C15 8714   3.290   0.833   7.380  0.1991 -0.0875  0.6586
   85CHL1  H15A 8715   3.293   0.934   7.335  2.5910 -0.2185  0.3641
   85CHL1  H15B 8716   3.185   0.796   7.382 -0.1433  0.8231  0.1471
   85CHL1   C16 8717   3.349   0.824   7.521 -0.1225 -0.9519 -0.1041
   85CHL1  H16A 8718   3.366   0.927   7.559  0.0091 -0.0409 -2.4681
   85CHL1  H16B 8719   3.296   0.772   7.603  0.7363  1.4166  2.0643
   85CHL1   C17 8720   3.494   0.770   7.504  0.0633 -0.1360  0.0355
   85CHL1   H17 8721   3.483   0.660   7.509  1.0209 -0.2389  0.0216
   85CHL1   C13 8722   3.528   0.793   7.357 -0.2342  0.2498  0.0818
   85CHL1   C18 8723   3.575   0.940   7.347 -0.7201  0.0817 -0.7409
   85CHL1  H18A 8724   3.505   1.005   7.404  1.2271  0.6360  1.1662
   85CHL1  H18B 8725   3.676   0.947   7.394 -0.6018 -1.5412 -0.6735
   85CHL1  H18C 8726   3.581   0.964   7.239 -0.2983 -0.1127 -0.7631
   85CHL1   C12 8727   3.637   0.692   7.293  0.1915  0.8020 -0.3383
   85CHL1  H12A 8728   3.739   0.709   7.335  0.2384  0.1311 -0.1717
   85CHL1  H12B 8729   3.607   0.588   7.317 -0.5363  1.1374  0.2288
   85CHL1   C11 8730   3.651   0.700   7.141 -0.1267 -0.5914  0.0948
   85CHL1  H11A 8731   3.707   0.790   7.110 -1.4143  0.4040  0.5412
   85CHL1  H11B 8732   3.693   0.605   7.102 -2.8515 -1.5684 -0.7315
   85CHL1    C9 8733   3.511   0.698   7.069  0.1534  0.0530 -0.4773
   85CHL1    H9 8734   3.478   0.595   7.094 -1.3919  0.7967  0.6961
   85CHL1   C10 8735   3.509   0.717   6.916 -0.3129  0.2752  0.3218
   85CHL1   C19 8736   3.560   0.858   6.892 -0.6450  0.2269 -0.4338
   85CHL1  H19A 8737   3.490   0.934   6.933 -0.8551  0.5136 -1.3041
   85CHL1  H19B 8738   3.668   0.861   6.922 -0.1179 -1.6300 -1.9572
   85CHL1  H19C 8739   3.557   0.885   6.784 -1.0536  0.4417 -0.3683
   85CHL1    C1 8740   3.608   0.613   6.852 -0.0996  0.3928  0.4339
   85CHL1   H1A 8741   3.714   0.633   6.878  0.4016  0.1099 -1.2506
   85CHL1   H1B 8742   3.589   0.514   6.900  1.8467  0.0785  0.6274
   85CHL1    C2 8743   3.604   0.607   6.703 -0.4544  0.4016  0.1326
   85CHL1   H2A 8744   3.668   0.523   6.665  1.5636  1.3012  1.3674
   85CHL1   H2B 8745   3.657   0.696   6.662 -0.5855 -0.4550 -2.0522
   85CHL1   C20 8746   3.584   0.819   7.616  0.6379  0.2032  0.3579
   85CHL1   H20 8747   3.610   0.926   7.602  1.0583  0.0945  0.2811
   85CHL1   C21 8748   3.715   0.744   7.615  0.2831 -0.2569 -0.3966
   85CHL1  H21A 8749   3.771   0.767   7.523 -0.6602  0.1068 -0.8991
   85CHL1  H21B 8750   3.701   0.635   7.633  1.1150 -0.1178  1.2754
   85CHL1  H21C 8751   3.760   0.783   7.709  0.3340  1.2251 -0.9990
   85CHL1   C22 8752   3.519   0.811   7.756 -0.4227  0.1611  0.1946
   85CHL1  H22A 8753   3.585   0.869   7.824  2.7608  0.0481 -2.5229
   85CHL1  H22B 8754   3.422   0.866   7.761  0.4910  1.8896 -0.1960
   85CHL1   C23 8755   3.501   0.670   7.813  0.3119 -0.0941 -0.1528
   85CHL1  H23A 8756   3.448   0.601   7.744  0.0543  0.8153 -0.8885
   85CHL1  H23B 8757   3.600   0.622   7.825  0.1367 -0.0230  2.0686
   85CHL1   C24 8758   3.432   0.685   7.953 -0.4303 -0.1083  0.7229
   85CHL1  H24A 8759   3.508   0.720   8.027  1.7380 -1.9615 -0.4871
   85CHL1  H24B 8760   3.345   0.754   7.945  0.6922  1.2745  0.0447
   85CHL1   C25 8761   3.393   0.540   8.003 -0.3139 -0.3030  0.1954
   85CHL1   H25 8762   3.336   0.490   7.922  0.8667  1.7073 -1.9954
   85CHL1   C26 8763   3.515   0.449   8.024 -0.3957  0.1201 -0.1325
   85CHL1  H26A 8764   3.581   0.436   7.936 -2.8141  1.5143 -2.2582
   85CHL1  H26B 8765   3.587   0.482   8.102 -0.1988 -1.1818  0.2656
   85CHL1  H26C 8766   3.483   0.348   8.056 -0.6169  0.2332  0.0041
   85CHL1   C27 8767   3.302   0.549   8.131 -0.4881 -0.6784  0.3087
   85CHL1  H27A 8768   3.273   0.446   8.163  1.1398 -1.7743 -1.5130
   85CHL1  H27B 8769   3.345   0.597   8.221  0.6624 -2.1214  0.5634
   85CHL1  H27C 8770   3.202   0.591   8.105 -0.8980 -1.3410  0.7917
   86CHL1    C3 8771   5.652   4.263   6.780  0.0611  0.0697 -0.1910
   86CHL1    H3 8772   5.571   4.339   6.782  1.0839  1.1685  0.1873
   86CHL1    O3 8773   5.684   4.249   6.646 -0.1876 -0.0122 -0.1007
   86CHL1   H3' 8774   5.751   4.180   6.646 -0.2810 -0.1310 -1.2419
   86CHL1    C4 8775   5.771   4.323   6.868 -0.2106  0.1277 -0.0848
   86CHL1   H4A 8776   5.850   4.245   6.863  0.1525  0.4670  0.3622
   86CHL1   H4B 8777   5.808   4.416   6.819 -0.5859  0.1295 -0.3686
   86CHL1    C5 8778   5.719   4.351   7.009  0.4300 -0.6504  0.5350
   86CHL1    C6 8779   5.721   4.473   7.066 -0.9651  0.0104 -0.4458
   86CHL1    H6 8780   5.766   4.554   7.007  0.0952  0.0318  0.3646
   86CHL1    C7 8781   5.673   4.507   7.202  0.2716  0.1575 -0.1821
   86CHL1   H7A 8782   5.735   4.579   7.260 -0.7146  2.7404 -2.1488
   86CHL1   H7B 8783   5.576   4.559   7.187  0.5556  0.3458 -1.4958
   86CHL1    C8 8784   5.646   4.374   7.288  0.2796 -0.5478  0.0424
   86CHL1    H8 8785   5.748   4.347   7.325  1.0360 -0.0304 -1.5828
   86CHL1   C14 8786   5.558   4.410   7.409 -0.4168 -0.6817 -1.1985
   86CHL1   H14 8787   5.456   4.429   7.368 -0.2302  0.2402 -1.2646
   86CHL1   C15 8788   5.606   4.525   7.500 -0.0730  0.4358  0.0135
   86CHL1  H15A 8789   5.717   4.527   7.501 -0.0531  1.8230 -1.0208
   86CHL1  H15B 8790   5.578   4.628   7.469 -0.8238 -0.3485 -2.0681
   86CHL1   C16 8791   5.541   4.489   7.633  0.6825  0.3343 -0.3735
   86CHL1  H16A 8792   5.614   4.489   7.717  0.0926 -0.5457  0.1489
   86CHL1  H16B 8793   5.463   4.565   7.656  1.9401  0.9588  2.1221
   86CHL1   C17 8794   5.481   4.344   7.632 -0.5552  0.7091  0.6863
   86CHL1   H17 8795   5.371   4.346   7.614 -0.6054 -0.7055  0.7265
   86CHL1   C13 8796   5.553   4.284   7.510 -0.5053  0.2065  0.0327
   86CHL1   C18 8797   5.696   4.240   7.552 -0.3400 -0.3754  0.1176
   86CHL1  H18A 8798   5.692   4.178   7.645 -0.1697 -2.2638 -1.0812
   86CHL1  H18B 8799   5.738   4.169   7.478 -0.6290 -1.9767  1.4101
   86CHL1  H18C 8800   5.760   4.327   7.576  1.3013 -1.7867  1.1575
   86CHL1   C12 8801   5.473   4.177   7.434  0.0813 -0.5277 -0.4645
   86CHL1  H12A 8802   5.461   4.082   7.490  2.0023 -0.7448 -0.3695
   86CHL1  H12B 8803   5.367   4.201   7.411 -0.1598 -1.3544 -0.2598
   86CHL1   C11 8804   5.542   4.146   7.302 -0.6050 -0.6777  0.3639
   86CHL1  H11A 8805   5.625   4.077   7.329 -1.1643 -1.6000 -0.1854
   86CHL1  H11B 8806   5.478   4.075   7.244  0.9728 -2.8273  1.1171
   86CHL1    C9 8807   5.579   4.265   7.217  0.4664  0.0432 -0.4080
   86CHL1    H9 8808   5.477   4.298   7.188 -0.3456 -1.1025  0.9580
   86CHL1   C10 8809   5.655   4.229   7.081 -0.5158  0.4697 -0.1943
   86CHL1   C19 8810   5.778   4.138   7.115 -0.4070 -0.3604 -0.3769
   86CHL1  H19A 8811   5.835   4.104   7.026  0.2780  4.4750 -2.0987
   86CHL1  H19B 8812   5.846   4.203   7.175 -2.4219 -0.1496  1.8112
   86CHL1  H19C 8813   5.755   4.051   7.180 -3.1484  0.3206 -0.3407
   86CHL1    C1 8814   5.549   4.156   6.992 -0.0462 -0.9663 -0.0663
   86CHL1   H1A 8815   5.529   4.058   7.041  0.9129 -0.6538  0.9757
   86CHL1   H1B 8816   5.454   4.214   6.991 -0.6972 -1.9653  0.7008
   86CHL1    C2 8817   5.594   4.135   6.847 -0.2273  0.1069 -0.1754
   86CHL1   H2A 8818   5.512   4.099   6.781 -0.3313  1.2661 -0.7154
   86CHL1   H2B 8819   5.667   4.052   6.844 -0.7653 -0.3847  0.2099
   86CHL1   C20 8820   5.482   4.271   7.764 -0.1853 -0.1670 -0.4095
   86CHL1   H20 8821   5.588   4.259   7.795 -1.0091 -1.7662  2.1843
   86CHL1   C21 8822   5.423   4.124   7.772 -0.0880  0.3321  0.6084
   86CHL1  H21A 8823   5.418   4.082   7.875  1.8202  1.3552  1.1564
   86CHL1  H21B 8824   5.474   4.051   7.707  2.6920  1.4762  1.3682
   86CHL1  H21C 8825   5.317   4.129   7.738  0.1038  2.1728  0.1612
   86CHL1   C22 8826   5.415   4.350   7.882  0.0236  0.6021 -0.1607
   86CHL1  H22A 8827   5.406   4.280   7.968 -1.0919 -0.7033 -1.2766
   86CHL1  H22B 8828   5.477   4.438   7.906  1.9968 -0.8390  0.2431
   86CHL1   C23 8829   5.283   4.410   7.843  0.0984  0.5066 -0.1115
   86CHL1  H23A 8830   5.290   4.470   7.750 -0.5262  0.6640 -0.0594
   86CHL1  H23B 8831   5.218   4.331   7.800 -0.4385  0.9458 -0.1191
   86CHL1   C24 8832   5.216   4.488   7.961  0.1960  0.2534  0.8160
   86CHL1  H24A 8833   5.105   4.483   7.953  0.2384  0.9791 -0.5522
   86CHL1  H24B 8834   5.243   4.432   8.054 -1.4583 -0.2449  1.0314
   86CHL1   C25 8835   5.272   4.629   7.961 -0.8650 -0.2904 -0.7631
   86CHL1   H25 8836   5.383   4.630   7.971 -0.9398  0.1110  0.1638
   86CHL1   C26 8837   5.212   4.710   7.851  0.4560  0.0293 -0.0443
   86CHL1  H26A 8838   5.238   4.818   7.857 -0.3222  0.1979  0.4413
   86CHL1  H26B 8839   5.254   4.679   7.753  2.1768 -1.5168  1.1326
   86CHL1  H26C 8840   5.101   4.698   7.851  0.7563 -4.1895  0.4993
   86CHL1   C27 8841   5.228   4.714   8.089  0.3744  0.1626  0.7460
   86CHL1  H27A 8842   5.287   4.805   8.113 -0.1799  0.7023  0.0950
   86CHL1  H27B 8843   5.121   4.741   8.081  0.3714  0.8997  2.6977
   86CHL1  H27C 8844   5.233   4.646   8.177 -0.4616  0.8285  1.3161
   87CHL1    C3 8845   4.375   2.734   6.717 -0.0295 -0.8211 -0.5802
   87CHL1    H3 8846   4.369   2.623   6.706 -1.4286 -0.6298 -1.9802
   87CHL1    O3 8847   4.383   2.795   6.586  0.3026  0.0794 -0.4482
   87CHL1   H3' 8848   4.458   2.854   6.582  1.4883 -0.9855  2.8708
   87CHL1    C4 8849   4.255   2.797   6.792 -0.9237  0.3479 -0.2376
   87CHL1   H4A 8850   4.255   2.905   6.764  0.0927  0.8394  1.5204
   87CHL1   H4B 8851   4.167   2.739   6.755  0.6483 -1.4877 -1.2966
   87CHL1    C5 8852   4.242   2.776   6.945  0.1690 -0.4024 -0.0450
   87CHL1    C6 8853   4.126   2.746   7.003  0.3505 -0.3761  0.3718
   87CHL1    H6 8854   4.033   2.740   6.946  1.8834  0.7364 -2.4539
   87CHL1    C7 8855   4.106   2.740   7.147  0.6645 -0.1668  0.6824
   87CHL1   H7A 8856   4.022   2.807   7.176  0.0783  0.0031 -1.2914
   87CHL1   H7B 8857   4.074   2.636   7.169 -0.0785 -0.3270 -0.9857
   87CHL1    C8 8858   4.230   2.784   7.231 -0.0261 -0.1365 -0.1142
   87CHL1    H8 8859   4.232   2.895   7.241  0.8274 -0.2146  0.7586
   87CHL1   C14 8860   4.210   2.718   7.366  1.0879 -1.1441 -0.4486
   87CHL1   H14 8861   4.216   2.609   7.347  1.1111 -1.0002 -1.2685
   87CHL1   C15 8862   4.078   2.743   7.436  0.5665  0.0851  0.5765
   87CHL1  H15A 8863   4.075   2.852   7.455  2.6707  0.1672  0.6633
   87CHL1  H15B 8864   3.981   2.711   7.392  1.0002  1.5032 -1.5495
   87CHL1   C16 8865   4.112   2.667   7.568 -0.7395  0.5515  0.2361
   87CHL1  H16A 8866   4.080   2.734   7.650  3.3067  1.2795  1.4436
   87CHL1  H16B 8867   4.066   2.566   7.578  0.1935  0.0399 -0.4005
   87CHL1   C17 8868   4.270   2.656   7.591  0.4810 -0.1974  0.5135
   87CHL1   H17 8869   4.293   2.555   7.551 -1.0588  0.2456 -1.6783
   87CHL1   C13 8870   4.324   2.738   7.462  0.1148  0.5918  0.0385
   87CHL1   C18 8871   4.335   2.887   7.501 -0.4788  0.2465 -0.1025
   87CHL1  H18A 8872   4.249   2.929   7.558 -0.4127  2.6143 -1.5944
   87CHL1  H18B 8873   4.429   2.911   7.556  0.1864 -2.4331  0.0379
   87CHL1  H18C 8874   4.346   2.951   7.410  1.9419  0.9142  0.5761
   87CHL1   C12 8875   4.454   2.690   7.397 -0.5447 -0.2887 -0.7132
   87CHL1  H12A 8876   4.538   2.705   7.469 -2.4646  3.7290  0.9687
   87CHL1  H12B 8877   4.439   2.581   7.382 -1.4467 -0.5497  1.6464
   87CHL1   C11 8878   4.483   2.758   7.262 -0.3187  0.4200 -0.3519
   87CHL1  H11A 8879   4.491   2.869   7.265  0.2713  0.4250 -1.4242
   87CHL1  H11B 8880   4.573   2.715   7.214  0.2804  0.3313  0.8112
   87CHL1    C9 8881   4.362   2.738   7.166  0.3836  0.4432 -0.2040
   87CHL1    H9 8882   4.351   2.628   7.157  1.4406  0.3210 -0.1406
   87CHL1   C10 8883   4.375   2.801   7.028 -0.3928  0.2842 -0.8910
   87CHL1   C19 8884   4.407   2.950   7.039 -0.0082 -0.4201  0.3411
   87CHL1  H19A 8885   4.331   3.008   7.094 -2.1871 -0.2127 -2.6195
   87CHL1  H19B 8886   4.508   2.965   7.082 -0.4284  2.3274  0.5275
   87CHL1  H19C 8887   4.400   2.993   6.937 -1.8684 -0.4748  0.4193
   87CHL1    C1 8888   4.493   2.730   6.949 -0.1835 -0.1588 -0.3953
   87CHL1   H1A 8889   4.592   2.754   6.993 -0.8009 -2.0893  2.2728
   87CHL1   H1B 8890   4.480   2.620   6.942 -2.1963  0.0448 -0.2359
   87CHL1    C2 8891   4.495   2.782   6.803 -0.2893  0.3282 -0.4571
   87CHL1   H2A 8892   4.586   2.738   6.757 -0.9937 -1.3231 -0.3588
   87CHL1   H2B 8893   4.512   2.891   6.790  2.5718  0.1137  0.7757
   87CHL1   C20 8894   4.319   2.689   7.727 -0.0023 -0.6721 -0.4838
   87CHL1   H20 8895   4.280   2.787   7.762 -0.6143 -0.4331 -1.7869
   87CHL1   C21 8896   4.472   2.690   7.730 -0.5902  0.0017 -0.1826
   87CHL1  H21A 8897   4.524   2.771   7.675 -0.0536 -1.6171 -2.2197
   87CHL1  H21B 8898   4.515   2.604   7.674 -0.5503  1.4876 -2.5658
   87CHL1  H21C 8899   4.517   2.679   7.831  2.0230  0.1099 -1.2511
   87CHL1   C22 8900   4.259   2.584   7.827  0.3580  0.8405  0.2556
   87CHL1  H22A 8901   4.152   2.572   7.797  1.0104  1.4407 -2.5178
   87CHL1  H22B 8902   4.318   2.490   7.826 -0.1007  0.5529 -0.4983
   87CHL1   C23 8903   4.238   2.638   7.969  0.1309  0.1695 -0.6030
   87CHL1  H23A 8904   4.342   2.647   8.008  0.6775  1.0525 -2.2039
   87CHL1  H23B 8905   4.198   2.741   7.961  0.4726  0.4015  0.4670
   87CHL1   C24 8906   4.158   2.546   8.059 -0.3983 -0.4273 -0.5770
   87CHL1  H24A 8907   4.057   2.530   8.014 -0.5695  0.8667 -0.6833
   87CHL1  H24B 8908   4.206   2.446   8.058  0.5158 -0.0260  0.7814
   87CHL1   C25 8909   4.143   2.588   8.204  0.3084 -0.2623 -0.5195
   87CHL1   H25 8910   4.241   2.628   8.236  0.6510 -1.9269  0.6411
   87CHL1   C26 8911   4.029   2.682   8.222 -0.2061 -0.2640 -0.1211
   87CHL1  H26A 8912   3.934   2.643   8.180 -1.1474  2.4257 -0.7264
   87CHL1  H26B 8913   4.018   2.716   8.327 -0.0616  1.0057 -0.4935
   87CHL1  H26C 8914   4.056   2.770   8.160  0.2435 -0.4091 -0.1319
   87CHL1   C27 8915   4.123   2.467   8.298 -0.2899  0.1607  0.9943
   87CHL1  H27A 8916   4.210   2.397   8.301 -0.9681 -0.7975 -0.3694
   87CHL1  H27B 8917   4.124   2.511   8.400  1.0895  1.0185  0.6240
   87CHL1  H27C 8918   4.025   2.421   8.271  0.4319  0.1941 -1.9944
   88CHL1    C3 8919   0.523   0.639   6.950 -1.0457 -0.5850 -0.3806
   88CHL1    H3 8920   0.549   0.532   6.968  0.4454 -0.8166 -3.2620
   88CHL1    O3 8921   0.506   0.650   6.811  0.4687 -0.4992 -0.1695
   88CHL1   H3' 8922   0.493   0.744   6.799 -1.6195 -0.6908  0.1557
   88CHL1    C4 8923   0.393   0.679   7.016  0.5914  0.1610  0.0367
   88CHL1   H4A 8924   0.344   0.765   6.966 -1.3276 -0.7884  0.1926
   88CHL1   H4B 8925   0.324   0.593   7.004 -0.7970  1.3798 -1.0858
   88CHL1    C5 8926   0.394   0.703   7.167  0.2143  0.0215  0.0904
   88CHL1    C6 8927   0.303   0.660   7.257  0.1412  0.0391 -1.1884
   88CHL1    H6 8928   0.224   0.600   7.208 -0.8961  1.6859 -1.6052
   88CHL1    C7 8929   0.302   0.697   7.405  0.1843 -0.7819 -0.0904
   88CHL1   H7A 8930   0.203   0.723   7.449  0.8075  1.6716 -0.0186
   88CHL1   H7B 8931   0.321   0.607   7.467  0.2872  1.5019  3.4672
   88CHL1    C8 8932   0.403   0.803   7.447 -0.6497 -0.2408 -0.2334
   88CHL1    H8 8933   0.354   0.901   7.428 -0.2829 -0.2235 -1.1455
   88CHL1   C14 8934   0.437   0.788   7.596 -0.2347  0.3169  0.1327
   88CHL1   H14 8935   0.491   0.691   7.596  0.2850  0.5910  1.2514
   88CHL1   C15 8936   0.323   0.758   7.690  0.1095 -0.0793  0.1574
   88CHL1  H15A 8937   0.245   0.837   7.687 -0.7354 -0.8184  1.5672
   88CHL1  H15B 8938   0.272   0.659   7.691 -2.8361  1.3226  0.1379
   88CHL1   C16 8939   0.381   0.795   7.826  0.2194 -0.2426 -0.2453
   88CHL1  H16A 8940   0.313   0.870   7.873 -3.0513 -3.1431  0.1170
   88CHL1  H16B 8941   0.391   0.705   7.891 -1.3226 -0.3349 -0.0985
   88CHL1   C17 8942   0.527   0.862   7.798 -0.6373  0.6059 -0.0036
   88CHL1   H17 8943   0.596   0.775   7.808 -2.1132 -0.5834  0.3344
   88CHL1   C13 8944   0.529   0.904   7.652 -0.2679 -0.4134 -0.7228
   88CHL1   C18 8945   0.458   1.043   7.630  0.0991  0.2760  0.0029
   88CHL1  H18A 8946   0.442   1.070   7.523  2.4035  1.3896 -0.1274
   88CHL1  H18B 8947   0.360   1.048   7.682  0.2641  3.0155  0.1895
   88CHL1  H18C 8948   0.527   1.121   7.671  0.5170 -0.9845  1.8092
   88CHL1   C12 8949   0.655   0.897   7.573 -0.4934 -0.0616  0.2540
   88CHL1  H12A 8950   0.728   0.978   7.595  2.3760 -1.6720 -2.4993
   88CHL1  H12B 8951   0.700   0.797   7.588 -2.2425 -0.9480 -0.0918
   88CHL1   C11 8952   0.634   0.894   7.418  0.4965  0.1820  0.7337
   88CHL1  H11A 8953   0.600   0.998   7.398 -1.0883 -1.0435 -4.2795
   88CHL1  H11B 8954   0.734   0.880   7.372  0.1430  0.8270 -0.2677
   88CHL1    C9 8955   0.528   0.796   7.369  0.0199 -0.3885 -0.1698
   88CHL1    H9 8956   0.564   0.692   7.387  0.1915 -0.4103 -0.6144
   88CHL1   C10 8957   0.509   0.797   7.210  0.0306  0.1481 -0.2052
   88CHL1   C19 8958   0.482   0.943   7.155 -0.9056 -0.1858 -0.0880
   88CHL1  H19A 8959   0.385   0.972   7.200 -1.5152 -1.3419 -0.6080
   88CHL1  H19B 8960   0.564   1.014   7.180 -2.4958  1.6092  0.2652
   88CHL1  H19C 8961   0.473   0.963   7.047 -1.0517 -0.4386 -0.1226
   88CHL1    C1 8962   0.641   0.750   7.148  0.6961  0.7178  0.1590
   88CHL1   H1A 8963   0.729   0.811   7.176  1.2069 -0.2904  0.8176
   88CHL1   H1B 8964   0.665   0.646   7.178  4.6674  0.4793 -3.0693
   88CHL1    C2 8965   0.646   0.730   6.999 -0.2589  0.4124 -0.2111
   88CHL1   H2A 8966   0.749   0.694   6.981 -0.0876  0.9553 -0.3261
   88CHL1   H2B 8967   0.628   0.828   6.951  0.8732  1.1809  0.9038
   88CHL1   C20 8968   0.577   0.972   7.903 -0.6238 -1.0176 -0.9714
   88CHL1   H20 8969   0.532   1.071   7.876  1.5695  0.1023 -0.7927
   88CHL1   C21 8970   0.734   0.982   7.904 -0.3707 -0.6087  0.2628
   88CHL1  H21A 8971   0.782   0.885   7.927  3.2078  0.4447 -1.9736
   88CHL1  H21B 8972   0.767   1.050   7.986  2.9835 -2.4850  0.6320
   88CHL1  H21C 8973   0.764   1.020   7.803 -0.3633  0.9945  0.8314
   88CHL1   C22 8974   0.533   0.945   8.043 -0.0482 -0.4040 -0.4594
   88CHL1  H22A 8975   0.435   0.893   8.046 -1.0816  1.4684  0.6900
   88CHL1  H22B 8976   0.604   0.887   8.105 -0.3312  0.4878  0.7358
   88CHL1   C23 8977   0.506   1.061   8.136 -0.0902  0.4998  0.2466
   88CHL1  H23A 8978   0.596   1.102   8.185 -0.4781  0.1087  1.3203
   88CHL1  H23B 8979   0.452   1.143   8.083  0.8573  0.6892 -0.4498
   88CHL1   C24 8980   0.399   1.026   8.245 -0.0832  0.1067  0.3458
   88CHL1  H24A 8981   0.397   1.120   8.304 -2.4975 -0.1000  0.6860
   88CHL1  H24B 8982   0.300   1.002   8.200  0.4346  0.3043 -0.9398
   88CHL1   C25 8983   0.445   0.904   8.330 -0.0817 -0.0835 -0.5314
   88CHL1   H25 8984   0.476   0.824   8.259  0.3657 -0.6351  0.2722
   88CHL1   C26 8985   0.570   0.931   8.419  0.1888  0.4044  0.4013
   88CHL1  H26A 8986   0.605   0.846   8.482 -0.2668 -0.6206 -0.6993
   88CHL1  H26B 8987   0.659   0.960   8.359  0.6217 -0.0893  0.7933
   88CHL1  H26C 8988   0.545   1.012   8.491  1.6928  2.3356 -1.1378
   88CHL1   C27 8989   0.325   0.852   8.421  0.1066  0.5863  0.5507
   88CHL1  H27A 8990   0.377   0.774   8.482 -1.5036  0.0291  1.2610
   88CHL1  H27B 8991   0.309   0.940   8.486  0.0305  1.7154 -0.9596
   88CHL1  H27C 8992   0.234   0.809   8.374  0.1195 -0.5099  1.4650
   89CHL1    C3 8993   0.307   4.204   6.935 -0.0114 -0.3511  1.0958
   89CHL1    H3 8994   0.199   4.219   6.914  0.3183 -0.4773 -0.7928
   89CHL1    O3 8995   0.377   4.183   6.810  0.5948  0.6281  0.0513
   89CHL1   H3' 8996   0.467   4.165   6.836  0.7974  0.1136 -0.9365
   89CHL1    C4 8997   0.377   4.325   6.999 -0.3904 -0.0936  0.1171
   89CHL1   H4A 8998   0.487   4.309   6.997 -0.4552 -0.5719 -1.5917
   89CHL1   H4B 8999   0.354   4.421   6.948 -1.1857 -0.9377 -1.1745
   89CHL1    C5 9000   0.328   4.328   7.145 -0.2113 -0.6306  0.0188
   89CHL1    C6 9001   0.278   4.443   7.189 -0.4253 -0.2940 -0.5863
   89CHL1    H6 9002   0.275   4.531   7.123  0.7822  1.4730  1.5828
   89CHL1    C7 9003   0.238   4.456   7.329 -0.0515  0.5350  0.2388
   89CHL1   H7A 9004   0.298   4.545   7.358 -0.0100  1.3204 -2.0744
   89CHL1   H7B 9005   0.129   4.478   7.338 -0.1243 -0.3842  2.1956
   89CHL1    C8 9006   0.278   4.346   7.423 -0.4444  0.6249 -0.5929
   89CHL1    H8 9007   0.386   4.362   7.448 -0.8562 -0.3871  2.2584
   89CHL1   C14 9008   0.194   4.349   7.546  0.3682  0.9070  0.4724
   89CHL1   H14 9009   0.092   4.325   7.510 -0.8182  0.8275  3.6327
   89CHL1   C15 9010   0.177   4.484   7.614 -0.1028 -0.2439 -0.2620
   89CHL1  H15A 9011   0.277   4.529   7.636 -0.5605  0.2440  0.8781
   89CHL1  H15B 9012   0.123   4.555   7.548  0.0780  1.0873  0.9785
   89CHL1   C16 9013   0.112   4.440   7.748  0.3978  1.0905 -0.3009
   89CHL1  H16A 9014   0.171   4.491   7.827 -0.2875  1.1430  0.1760
   89CHL1  H16B 9015   0.005   4.465   7.761 -0.1767 -0.3527 -1.8541
   89CHL1   C17 9016   0.131   4.284   7.765  0.2429 -0.0192 -0.1292
   89CHL1   H17 9017   0.030   4.240   7.751  0.9194 -2.5410  2.0383
   89CHL1   C13 9018   0.232   4.247   7.654  0.6174 -0.5240  0.1122
   89CHL1   C18 9019   0.372   4.268   7.712 -0.1414 -0.1687  0.0801
   89CHL1  H18A 9020   0.402   4.195   7.790 -1.3518 -0.8620 -0.0755
   89CHL1  H18B 9021   0.444   4.245   7.630  0.8891 -0.0438  0.9262
   89CHL1  H18C 9022   0.404   4.366   7.753  2.2890 -1.3962  1.3292
   89CHL1   C12 9023   0.215   4.109   7.592 -0.1872 -0.3136 -0.4979
   89CHL1  H12A 9024   0.256   4.027   7.654  1.5753  1.1172  0.3115
   89CHL1  H12B 9025   0.109   4.089   7.566 -0.6806  0.8731  0.4905
   89CHL1   C11 9026   0.298   4.095   7.468 -0.9799  0.5626  0.2915
   89CHL1  H11A 9027   0.407   4.086   7.485 -0.7737  0.8301 -0.8179
   89CHL1  H11B 9028   0.263   4.002   7.419 -0.7347 -0.4247  1.9278
   89CHL1    C9 9029   0.262   4.205   7.362  0.3893  0.0721  0.5216
   89CHL1    H9 9030   0.152   4.197   7.353  0.1895  1.7625  1.1770
   89CHL1   C10 9031   0.335   4.190   7.225 -0.2063 -0.2178 -0.7347
   89CHL1   C19 9032   0.490   4.162   7.249  0.3666  0.1393  0.3524
   89CHL1  H19A 9033   0.503   4.064   7.300  0.8010  1.2020  2.4341
   89CHL1  H19B 9034   0.542   4.166   7.151  1.0643 -1.2785  0.6472
   89CHL1  H19C 9035   0.544   4.233   7.317  0.3111 -1.6554  2.3896
   89CHL1    C1 9036   0.267   4.069   7.153 -0.0147  0.1526  0.2992
   89CHL1   H1A 9037   0.295   3.971   7.197  0.5818  0.0519 -0.2916
   89CHL1   H1B 9038   0.157   4.073   7.166 -0.0136 -0.4335  0.5063
   89CHL1    C2 9039   0.320   4.073   7.003  0.5976  0.2320 -0.1286
   89CHL1   H2A 9040   0.259   3.997   6.950 -2.3638  1.4703  1.2454
   89CHL1   H2B 9041   0.424   4.033   7.001  0.4946 -0.2984  2.1341
   89CHL1   C20 9042   0.162   4.255   7.908  0.7270 -0.3678 -0.0456
   89CHL1   H20 9043   0.263   4.292   7.936  0.2928  1.7051 -1.0070
   89CHL1   C21 9044   0.157   4.098   7.920 -0.3972  0.0135  0.0668
   89CHL1  H21A 9045   0.058   4.055   7.891  0.0040  0.5891 -2.3603
   89CHL1  H21B 9046   0.197   4.069   8.020  0.7903 -0.8772 -0.6435
   89CHL1  H21C 9047   0.229   4.047   7.852  0.6474 -0.5418  1.5165
   89CHL1   C22 9048   0.053   4.317   8.002 -0.2002  0.0605 -0.0743
   89CHL1  H22A 9049   0.000   4.409   7.968 -1.0363 -0.2471  0.3502
   89CHL1  H22B 9050  -0.030   4.244   8.016 -0.4278  0.2282 -0.5147
   89CHL1   C23 9051   0.111   4.350   8.141  0.6777 -0.0062 -0.4527
   89CHL1  H23A 9052   0.034   4.333   8.219  0.7304 -0.3048 -0.4649
   89CHL1  H23B 9053   0.199   4.285   8.159 -0.4954 -0.7308  3.5753
   89CHL1   C24 9054   0.155   4.494   8.154  1.2060  0.9024  0.4523
   89CHL1  H24A 9055   0.246   4.505   8.091  0.5989 -1.2607 -0.9218
   89CHL1  H24B 9056   0.081   4.562   8.105  1.0732  0.0459 -0.5884
   89CHL1   C25 9057   0.194   4.542   8.290 -0.6423 -0.2012  1.1822
   89CHL1   H25 9058   0.261   4.464   8.333  2.4830  1.1727 -0.8283
   89CHL1   C26 9059   0.297   4.660   8.293 -0.1459  0.1161 -0.4753
   89CHL1  H26A 9060   0.398   4.630   8.259  0.0730 -0.3744  0.5689
   89CHL1  H26B 9061   0.260   4.748   8.236  0.2628 -0.8587 -2.3189
   89CHL1  H26C 9062   0.297   4.684   8.401 -2.6776 -0.5628 -0.2500
   89CHL1   C27 9063   0.077   4.559   8.391 -0.4015 -0.2154 -0.1229
   89CHL1  H27A 9064   0.008   4.641   8.363  1.0669  2.6852  3.8862
   89CHL1  H27B 9065   0.020   4.463   8.395 -2.3868  0.9306  0.7473
   89CHL1  H27C 9066   0.121   4.583   8.490  0.3632 -0.3408 -0.4288
   90CHL1    C3 9067   5.424   0.403   6.831  0.5140 -0.8244 -0.3956
   90CHL1    H3 9068   5.314   0.404   6.825  0.5690 -1.0255 -1.7598
   90CHL1    O3 9069   5.471   0.418   6.697  0.0624  0.0359 -0.4318
   90CHL1   H3' 9070   5.463   0.329   6.662  0.6213  0.7296 -2.4429
   90CHL1    C4 9071   5.468   0.530   6.899  0.2435  0.0421  0.2352
   90CHL1   H4A 9072   5.578   0.530   6.881  0.0833 -0.8428 -0.8833
   90CHL1   H4B 9073   5.431   0.617   6.840  0.2634  0.1194  0.3370
   90CHL1    C5 9074   5.437   0.533   7.048  0.0172  0.0492 -0.2941
   90CHL1    C6 9075   5.360   0.631   7.098 -0.2059  0.4172 -0.2349
   90CHL1    H6 9076   5.317   0.702   7.025 -1.4945  0.0739  0.1652
   90CHL1    C7 9077   5.320   0.631   7.241 -0.1202  0.4234 -0.2103
   90CHL1   H7A 9078   5.357   0.727   7.282  2.3129 -0.6309  0.2549
   90CHL1   H7B 9079   5.209   0.629   7.246 -0.1494 -1.0112 -0.9172
   90CHL1    C8 9080   5.398   0.537   7.330  0.2981  0.0901  0.3464
   90CHL1    H8 9081   5.497   0.585   7.344 -0.4774  2.1718 -0.8951
   90CHL1   C14 9082   5.322   0.518   7.452 -0.5698  0.7153  0.3940
   90CHL1   H14 9083   5.235   0.454   7.425  0.4684 -0.7384  0.3896
   90CHL1   C15 9084   5.271   0.638   7.526 -0.0798 -0.3725  0.0615
   90CHL1  H15A 9085   5.354   0.712   7.534  0.0180 -0.1921 -1.9512
   90CHL1  H15B 9086   5.189   0.677   7.462  1.1906 -0.6711 -1.8327
   90CHL1   C16 9087   5.233   0.577   7.662  0.7371  0.5735 -0.1652
   90CHL1  H16A 9088   5.269   0.646   7.742  2.2857 -0.1216 -0.2236
   90CHL1  H16B 9089   5.123   0.560   7.662  1.1220 -2.4972  0.0508
   90CHL1   C17 9090   5.296   0.438   7.681 -0.5378  0.0697  0.0032
   90CHL1   H17 9091   5.224   0.360   7.648  0.4185 -1.0162  0.4462
   90CHL1   C13 9092   5.397   0.435   7.562  0.2353  0.2109 -0.1101
   90CHL1   C18 9093   5.536   0.506   7.600  0.0132  1.1734  0.0322
   90CHL1  H18A 9094   5.602   0.443   7.663 -0.8691  0.0425 -0.1395
   90CHL1  H18B 9095   5.588   0.538   7.507 -1.6924 -0.7252 -1.6621
   90CHL1  H18C 9096   5.529   0.591   7.671 -1.6874  1.1632 -0.0633
   90CHL1   C12 9097   5.421   0.300   7.501  0.0910 -0.3111  0.1720
   90CHL1  H12A 9098   5.486   0.245   7.572  1.0903 -0.3048 -0.7065
   90CHL1  H12B 9099   5.322   0.250   7.500 -1.3317  2.2542  1.8886
   90CHL1   C11 9100   5.492   0.305   7.368  0.8829  0.2916 -0.4795
   90CHL1  H11A 9101   5.598   0.337   7.380  0.7153  0.9301 -0.6665
   90CHL1  H11B 9102   5.496   0.199   7.336  0.0330  0.1771 -0.2194
   90CHL1    C9 9103   5.419   0.397   7.266 -0.1833 -0.5630  0.2777
   90CHL1    H9 9104   5.316   0.356   7.257 -0.9343  0.8324  1.9067
   90CHL1   C10 9105   5.486   0.404   7.122  0.3360  0.3870 -0.7226
   90CHL1   C19 9106   5.639   0.409   7.141 -0.4189 -0.0538 -0.6198
   90CHL1  H19A 9107   5.672   0.496   7.201  1.3685 -1.5571  0.6716
   90CHL1  H19B 9108   5.677   0.316   7.187  0.0841  0.8257  0.7975
   90CHL1  H19C 9109   5.696   0.407   7.046 -0.6400 -2.4517 -0.7519
   90CHL1    C1 9110   5.445   0.274   7.046  0.6440  0.6140 -0.1580
   90CHL1   H1A 9111   5.487   0.176   7.078 -2.9892 -1.3219 -0.7558
   90CHL1   H1B 9112   5.334   0.271   7.041  0.5853  2.3062 -0.2211
   90CHL1    C2 9113   5.481   0.278   6.894  0.6014  0.0724 -0.6706
   90CHL1   H2A 9114   5.449   0.190   6.835 -0.8795  1.0384 -1.3680
   90CHL1   H2B 9115   5.589   0.258   6.881  0.5835 -0.6749  0.2049
   90CHL1   C20 9116   5.340   0.411   7.826 -0.6301 -0.3656 -0.0466
   90CHL1   H20 9117   5.411   0.492   7.853  0.2435 -0.2494 -2.5103
   90CHL1   C21 9118   5.416   0.279   7.838  0.4419  0.7562  0.2758
   90CHL1  H21A 9119   5.437   0.244   7.941  1.7512  3.0015  0.8577
   90CHL1  H21B 9120   5.517   0.285   7.793 -0.9796 -1.4182 -3.7207
   90CHL1  H21C 9121   5.370   0.194   7.784 -0.1794  0.7760  0.7620
   90CHL1   C22 9122   5.225   0.424   7.928  0.1580  0.2462 -0.5917
   90CHL1  H22A 9123   5.187   0.529   7.926  1.5788  0.7991 -0.1947
   90CHL1  H22B 9124   5.144   0.350   7.915  0.2450 -0.6768  3.0921
   90CHL1   C23 9125   5.276   0.411   8.076  0.2461  0.1108  0.3365
   90CHL1  H23A 9126   5.308   0.306   8.091  0.2361  0.4098  2.9216
   90CHL1  H23B 9127   5.364   0.475   8.094  0.1233  0.5381 -0.5142
   90CHL1   C24 9128   5.166   0.433   8.187 -0.2778 -0.2610  0.1489
   90CHL1  H24A 9129   5.148   0.542   8.183  1.3329  0.1455  2.4924
   90CHL1  H24B 9130   5.078   0.370   8.161  0.8289 -1.1685 -1.6623
   90CHL1   C25 9131   5.223   0.389   8.326  0.2266  0.6583 -0.3233
   90CHL1   H25 9132   5.331   0.409   8.340  0.5749 -1.8633  1.3256
   90CHL1   C26 9133   5.143   0.456   8.443 -0.4726 -0.1885 -0.6687
   90CHL1  H26A 9134   5.143   0.567   8.431 -1.4597  0.0748  1.3031
   90CHL1  H26B 9135   5.036   0.426   8.442 -1.1457  2.0281 -0.7396
   90CHL1  H26C 9136   5.192   0.427   8.539  0.6664 -2.2905 -1.8128
   90CHL1   C27 9137   5.219   0.233   8.342  0.9531 -0.2543  0.6295
   90CHL1  H27A 9138   5.294   0.188   8.274  1.5800  2.7635 -0.8459
   90CHL1  H27B 9139   5.242   0.196   8.444  1.1281 -1.0728  0.3040
   90CHL1  H27C 9140   5.123   0.198   8.298  1.0029 -0.6128  0.8046
   91CHL1    C3 9141   6.812   6.361   6.970  0.5655  0.2987  0.0710
   91CHL1    H3 9142   6.708   6.396   6.988  0.6081 -0.6372  2.4100
   91CHL1    O3 9143   6.841   6.337   6.835  0.4699 -0.4283  0.5234
   91CHL1   H3' 9144   6.929   6.372   6.821  0.7660 -1.3229  0.0557
   91CHL1    C4 9145   6.910   6.466   7.024 -0.0576  0.1974 -0.3639
   91CHL1   H4A 9146   7.016   6.434   7.016 -0.6556 -2.2995  0.8050
   91CHL1   H4B 9147   6.893   6.554   6.958  1.4320 -0.3459 -1.5544
   91CHL1    C5 9148   6.880   6.486   7.174  0.1764 -0.0817  0.5647
   91CHL1    C6 9149   6.843   6.610   7.222 -0.2213  0.3705  0.8784
   91CHL1    H6 9150   6.845   6.695   7.152 -1.2429 -0.0135  0.3590
   91CHL1    C7 9151   6.820   6.638   7.368 -0.2087 -0.3216 -0.5332
   91CHL1   H7A 9152   6.882   6.723   7.403  0.9127 -0.0695 -2.9684
   91CHL1   H7B 9153   6.711   6.650   7.386 -0.1703  0.8384 -1.0334
   91CHL1    C8 9154   6.858   6.524   7.464  0.0125  0.2791 -0.2226
   91CHL1    H8 9155   6.968   6.522   7.475 -0.0562  1.8196  1.0825
   91CHL1   C14 9156   6.796   6.532   7.598 -0.1465  0.1433  0.0817
   91CHL1   H14 9157   6.690   6.501   7.587 -0.1542 -1.0991  2.7713
   91CHL1   C15 9158   6.800   6.657   7.679 -0.6068  0.5478 -0.2703
   91CHL1  H15A 9159   6.898   6.701   7.649 -0.4743 -1.0640 -2.4640
   91CHL1  H15B 9160   6.721   6.728   7.647 -1.9318 -0.1247  1.3556
   91CHL1   C16 9161   6.777   6.621   7.829  0.3997  0.2579  0.4613
   91CHL1  H16A 9162   6.855   6.675   7.887  0.6506 -0.4956  0.8341
   91CHL1  H16B 9163   6.676   6.657   7.858 -0.4789 -1.5516 -0.2326
   91CHL1   C17 9164   6.773   6.463   7.824 -0.2621  0.0770  0.1853
   91CHL1   H17 9165   6.665   6.436   7.816 -0.0441 -1.2130  1.2625
   91CHL1   C13 9166   6.842   6.423   7.690 -0.2583  0.4614 -0.5372
   91CHL1   C18 9167   6.992   6.432   7.711 -0.5257 -0.0753 -0.3071
   91CHL1  H18A 9168   7.020   6.534   7.746  0.1394 -0.5853  0.6699
   91CHL1  H18B 9169   7.024   6.363   7.792  0.6325  1.1461  0.3120
   91CHL1  H18C 9170   7.045   6.396   7.620 -0.2480 -1.5310  0.3984
   91CHL1   C12 9171   6.803   6.285   7.639 -0.0134  0.0010 -0.1089
   91CHL1  H12A 9172   6.844   6.207   7.706  0.2489  2.3270  2.6410
   91CHL1  H12B 9173   6.692   6.281   7.645  0.0796 -0.3574  2.1700
   91CHL1   C11 9174   6.850   6.270   7.494  0.3841 -0.1699  0.0698
   91CHL1  H11A 9175   6.958   6.254   7.513  0.9353  1.2745 -1.5628
   91CHL1  H11B 9176   6.809   6.178   7.446 -1.3188  0.0512  1.0173
   91CHL1    C9 9177   6.817   6.394   7.400  0.3885  0.8113 -0.3136
   91CHL1    H9 9178   6.707   6.401   7.385  0.3955  0.7786 -0.3785
   91CHL1   C10 9179   6.872   6.357   7.262 -0.6241 -0.1782 -0.0980
   91CHL1   C19 9180   7.024   6.294   7.265 -1.1078  0.0889  0.8239
   91CHL1  H19A 9181   7.087   6.349   7.338  0.1706  0.5398 -0.5645
   91CHL1  H19B 9182   7.028   6.189   7.301  0.9467 -0.3863 -0.5823
   91CHL1  H19C 9183   7.071   6.303   7.164 -0.0248 -0.4669  1.2593
   91CHL1    C1 9184   6.791   6.248   7.191 -0.3803  0.4598 -0.2814
   91CHL1   H1A 9185   6.809   6.149   7.238  0.0642 -0.4252 -2.2286
   91CHL1   H1B 9186   6.682   6.260   7.206 -0.5344  0.1587 -1.1643
   91CHL1    C2 9187   6.828   6.232   7.042 -0.3594 -0.2922  0.1499
   91CHL1   H2A 9188   6.757   6.164   6.990  2.9741 -2.3889 -2.0642
   91CHL1   H2B 9189   6.932   6.196   7.031 -0.0567  0.4850  0.4164
   91CHL1   C20 9190   6.831   6.408   7.960 -0.4886 -0.8467  0.4324
   91CHL1   H20 9191   6.936   6.442   7.974 -0.6715 -0.8004  1.8584
   91CHL1   C21 9192   6.842   6.251   7.960  0.3116 -0.1594 -0.0950
   91CHL1  H21A 9193   6.740   6.232   7.919 -0.5425  0.1299  1.7749
   91CHL1  H21B 9194   6.861   6.233   8.068  1.2370  1.7123  0.0924
   91CHL1  H21C 9195   6.926   6.226   7.892 -0.4105  1.0950 -1.5185
   91CHL1   C22 9196   6.749   6.465   8.078  0.2166  0.4611 -0.0432
   91CHL1  H22A 9197   6.778   6.412   8.171 -0.5154 -5.5182 -2.8133
   91CHL1  H22B 9198   6.763   6.574   8.094 -0.2790  0.7242 -1.2888
   91CHL1   C23 9199   6.596   6.434   8.072 -0.3510  1.2642  0.2116
   91CHL1  H23A 9200   6.544   6.505   8.004  1.9006  2.1977 -0.6303
   91CHL1  H23B 9201   6.581   6.331   8.035  2.9469  0.2629  1.2880
   91CHL1   C24 9202   6.536   6.434   8.209  0.0875 -0.7052 -0.8612
   91CHL1  H24A 9203   6.430   6.402   8.207  0.4546 -1.9551 -2.0235
   91CHL1  H24B 9204   6.590   6.360   8.272  1.5404  1.1699  0.2268
   91CHL1   C25 9205   6.539   6.574   8.282  0.2217 -0.1950 -0.1827
   91CHL1   H25 9206   6.647   6.600   8.286  0.0437  0.4849  0.5359
   91CHL1   C26 9207   6.473   6.678   8.190  0.3842 -0.0516  0.7109
   91CHL1  H26A 9208   6.437   6.762   8.254  1.1618  2.6900 -2.2122
   91CHL1  H26B 9209   6.547   6.731   8.127  0.7830 -0.7584  0.5717
   91CHL1  H26C 9210   6.393   6.630   8.130  0.4841 -0.1150  0.6302
   91CHL1   C27 9211   6.472   6.566   8.425  0.3157 -0.3092 -0.3820
   91CHL1  H27A 9212   6.494   6.665   8.470  1.3318 -0.6614 -0.0764
   91CHL1  H27B 9213   6.363   6.547   8.418  0.4013 -1.6296  1.1566
   91CHL1  H27C 9214   6.521   6.488   8.488 -1.9375 -0.7460  0.9398
   92CHL1    C3 9215   3.640   0.226   6.595  0.1969  0.0500  0.5348
   92CHL1    H3 9216   3.648   0.336   6.608  1.3556  0.5027 -2.8004
   92CHL1    O3 9217   3.614   0.205   6.450 -0.3388 -0.1946  0.1462
   92CHL1   H3' 9218   3.648   0.117   6.434  1.7775  0.7153 -0.6421
   92CHL1    C4 9219   3.771   0.152   6.632  0.1561  0.2539  0.9566
   92CHL1   H4A 9220   3.768   0.042   6.617 -2.2598  0.2558  0.9852
   92CHL1   H4B 9221   3.856   0.176   6.565 -1.1194 -1.2948 -1.3851
   92CHL1    C5 9222   3.820   0.183   6.773 -0.7901  0.3168  0.0235
   92CHL1    C6 9223   3.936   0.248   6.812 -0.5449  0.5300  0.1352
   92CHL1    H6 9224   4.007   0.274   6.733 -0.6524 -0.3328 -0.2518
   92CHL1    C7 9225   3.981   0.283   6.953  0.4018  0.1123  0.3986
   92CHL1   H7A 9226   4.091   0.275   6.959  0.6020  2.1755  0.1359
   92CHL1   H7B 9227   3.959   0.390   6.968 -0.8299 -0.2704  1.5411
   92CHL1    C8 9228   3.899   0.210   7.059 -0.0582  0.5984 -0.3586
   92CHL1    H8 9229   3.921   0.102   7.073 -1.3121  0.2264 -1.0933
   92CHL1   C14 9230   3.921   0.291   7.194  0.3444  0.4593 -0.4648
   92CHL1   H14 9231   3.885   0.394   7.174  0.0704  0.4553 -0.0084
   92CHL1   C15 9232   4.064   0.307   7.252 -0.4310 -0.2459 -0.3142
   92CHL1  H15A 9233   4.114   0.208   7.251  0.9058  0.4128 -0.4832
   92CHL1  H15B 9234   4.107   0.388   7.189 -0.3764  0.5695  0.7437
   92CHL1   C16 9235   4.033   0.346   7.399  0.0412  0.1712 -0.1129
   92CHL1  H16A 9236   4.075   0.264   7.461 -2.1198 -1.6202 -0.8698
   92CHL1  H16B 9237   4.082   0.441   7.428 -2.6529  1.4280  0.7143
   92CHL1   C17 9238   3.877   0.346   7.422 -0.2938 -0.0190  0.2833
   92CHL1   H17 9239   3.857   0.450   7.389 -0.2371 -0.7175 -2.1273
   92CHL1   C13 9240   3.828   0.246   7.307  0.4908 -0.6020 -1.2778
   92CHL1   C18 9241   3.861   0.105   7.355  0.5424  0.4510  0.7919
   92CHL1  H18A 9242   3.890   0.030   7.279 -0.2024 -0.2789  1.2154
   92CHL1  H18B 9243   3.945   0.104   7.428  3.4089  0.1456 -2.2523
   92CHL1  H18C 9244   3.775   0.055   7.405 -0.4831 -0.6159 -1.8616
   92CHL1   C12 9245   3.688   0.255   7.264 -0.6376  0.0468 -0.7952
   92CHL1  H12A 9246   3.617   0.207   7.335 -1.8439  1.2828 -1.1398
   92CHL1  H12B 9247   3.652   0.358   7.249 -1.9336 -0.4562 -1.2397
   92CHL1   C11 9248   3.659   0.171   7.136 -0.3873 -0.5632 -0.9316
   92CHL1  H11A 9249   3.671   0.061   7.151 -1.9401 -0.4800  1.3878
   92CHL1  H11B 9250   3.554   0.194   7.110  0.0575  1.3946 -1.1390
   92CHL1    C9 9251   3.746   0.218   7.018 -0.1796  0.7228 -0.2598
   92CHL1    H9 9252   3.724   0.326   7.002  0.0120  0.6217 -1.2520
   92CHL1   C10 9253   3.709   0.150   6.880  0.3432  0.7550  0.9506
   92CHL1   C19 9254   3.714  -0.001   6.897  0.3238  0.2109  0.3514
   92CHL1  H19A 9255   3.653  -0.047   6.978  0.1198 -1.9195 -0.9449
   92CHL1  H19B 9256   3.699  -0.056   6.801 -0.7451  2.6460 -0.9759
   92CHL1  H19C 9257   3.813  -0.034   6.934 -0.6075 -1.9573  1.0456
   92CHL1    C1 9258   3.569   0.204   6.831  0.4375 -0.2602  0.0217
   92CHL1   H1A 9259   3.487   0.158   6.891 -0.8593  0.8355 -0.8630
   92CHL1   H1B 9260   3.568   0.314   6.846 -1.6715 -0.0098 -1.4530
   92CHL1    C2 9261   3.530   0.175   6.682 -0.0134 -0.4611  0.5980
   92CHL1   H2A 9262   3.440   0.234   6.655  0.2757 -0.7560 -1.1461
   92CHL1   H2B 9263   3.513   0.065   6.679 -0.5361 -0.3959 -2.6937
   92CHL1   C20 9264   3.826   0.324   7.567  0.0115  0.0566 -0.9915
   92CHL1   H20 9265   3.825   0.221   7.610 -1.5236  0.1806 -0.6776
   92CHL1   C21 9266   3.675   0.372   7.572 -0.3531 -0.3458  0.3615
   92CHL1  H21A 9267   3.629   0.398   7.670 -1.4443 -2.2798  0.4191
   92CHL1  H21B 9268   3.620   0.286   7.529  0.3828 -0.3295 -0.6717
   92CHL1  H21C 9269   3.668   0.454   7.498 -3.0274 -0.5028  0.3462
   92CHL1   C22 9270   3.915   0.404   7.669  0.0484 -0.0818  0.2154
   92CHL1  H22A 9271   4.021   0.388   7.642 -0.1373  0.5987 -1.0118
   92CHL1  H22B 9272   3.891   0.508   7.638 -3.3626 -0.5334  0.9679
   92CHL1   C23 9273   3.896   0.389   7.819  0.1995 -0.0699 -0.4629
   92CHL1  H23A 9274   3.792   0.421   7.838  0.1343  2.6481 -4.2843
   92CHL1  H23B 9275   3.905   0.282   7.848 -1.6598 -0.1906 -0.2075
   92CHL1   C24 9276   4.005   0.465   7.897  0.1034 -0.1783 -0.1133
   92CHL1  H24A 9277   4.097   0.403   7.904 -0.0737 -0.4288  0.0105
   92CHL1  H24B 9278   4.030   0.561   7.847 -1.5937  0.8036  0.8268
   92CHL1   C25 9279   3.969   0.495   8.041  0.1370 -0.3169 -0.3136
   92CHL1   H25 9280   3.910   0.406   8.069  0.8469 -1.4529 -2.2855
   92CHL1   C26 9281   4.094   0.487   8.130  0.5247 -0.0892  0.4006
   92CHL1  H26A 9282   4.166   0.553   8.076  1.6664 -2.1590 -0.7489
   92CHL1  H26B 9283   4.068   0.521   8.232  0.2092 -0.0786  0.3180
   92CHL1  H26C 9284   4.136   0.385   8.116 -2.0310 -1.0210 -1.1678
   92CHL1   C27 9285   3.887   0.622   8.062 -0.7239  0.1944  0.3270
   92CHL1  H27A 9286   3.872   0.629   8.171 -0.4061 -2.6147  0.6289
   92CHL1  H27B 9287   3.950   0.710   8.036 -0.1329  0.0084  1.1278
   92CHL1  H27C 9288   3.792   0.630   8.004 -0.6484  1.4155  0.3521
   93CHL1    C3 9289   3.957   6.128   6.853  0.4334  0.9148 -0.2533
   93CHL1    H3 9290   3.869   6.173   6.804 -1.4949  0.7510  2.8046
   93CHL1    O3 9291   4.061   6.118   6.766 -0.2188 -0.0025  0.3110
   93CHL1   H3' 9292   4.041   6.044   6.708  0.1794 -0.2333  0.4559
   93CHL1    C4 9293   4.006   6.214   6.974 -0.1149 -0.3586  0.5159
   93CHL1   H4A 9294   4.099   6.167   7.014  1.6377  1.1619 -1.5400
   93CHL1   H4B 9295   4.038   6.316   6.944  0.6079 -0.9606 -0.8479
   93CHL1    C5 9296   3.897   6.220   7.080  0.0048  0.0339 -0.1621
   93CHL1    C6 9297   3.849   6.340   7.126  0.6469  0.1634 -0.6760
   93CHL1    H6 9298   3.884   6.432   7.076 -1.9642  1.9006  0.5057
   93CHL1    C7 9299   3.745   6.362   7.231 -0.3071 -0.0483 -0.2867
   93CHL1   H7A 9300   3.775   6.438   7.307  0.9282  0.5002 -1.2744
   93CHL1   H7B 9301   3.642   6.385   7.197 -0.6997 -0.1681  0.8097
   93CHL1    C8 9302   3.739   6.225   7.312  0.5398 -0.5706 -0.0681
   93CHL1    H8 9303   3.838   6.207   7.359  0.5893  1.9559  0.9223
   93CHL1   C14 9304   3.623   6.218   7.416 -0.3830 -0.3940  0.2494
   93CHL1   H14 9305   3.533   6.223   7.350 -1.0038 -0.8847  1.0278
   93CHL1   C15 9306   3.613   6.337   7.521 -0.9760  0.3227 -0.1267
   93CHL1  H15A 9307   3.713   6.347   7.569 -0.4549 -0.5084 -1.0113
   93CHL1  H15B 9308   3.574   6.429   7.471 -3.4529  0.0851  1.2313
   93CHL1   C16 9309   3.510   6.280   7.623  0.1955 -0.1910 -0.2324
   93CHL1  H16A 9310   3.539   6.303   7.727  0.5714  1.0297 -0.5916
   93CHL1  H16B 9311   3.414   6.330   7.599  1.9979  3.5757 -0.2609
   93CHL1   C17 9312   3.498   6.122   7.601 -0.9574  0.4372 -0.1498
   93CHL1   H17 9313   3.400   6.108   7.550 -1.3172 -0.1497  0.6928
   93CHL1   C13 9314   3.608   6.091   7.493  0.4250  0.1893 -1.0435
   93CHL1   C18 9315   3.739   6.048   7.565 -0.9474  0.0690 -0.3505
   93CHL1  H18A 9316   3.744   5.940   7.593  0.9874  0.3894  0.7742
   93CHL1  H18B 9317   3.829   6.073   7.505  0.7472 -1.6481  1.2997
   93CHL1  H18C 9318   3.754   6.113   7.654 -0.3568  0.8032 -0.9755
   93CHL1   C12 9319   3.571   5.980   7.396 -0.0811  0.0756 -0.6601
   93CHL1  H12A 9320   3.564   5.883   7.450  1.9067  0.4384  0.3761
   93CHL1  H12B 9321   3.467   5.988   7.360 -0.9116  0.7860  1.6937
   93CHL1   C11 9322   3.679   5.967   7.286  0.1881  0.1705  0.1395
   93CHL1  H11A 9323   3.760   5.915   7.342  1.2703  0.5017 -1.0745
   93CHL1  H11B 9324   3.640   5.898   7.209 -0.7714  1.1470 -0.2784
   93CHL1    C9 9325   3.726   6.103   7.221  0.3141  0.1799 -0.2612
   93CHL1    H9 9326   3.642   6.127   7.153 -1.7026 -3.6028  0.6214
   93CHL1   C10 9327   3.847   6.081   7.124  0.0725  0.4347 -0.3582
   93CHL1   C19 9328   3.951   6.007   7.201 -0.2497 -0.2005  0.4074
   93CHL1  H19A 9329   3.968   6.044   7.305  1.0603 -3.8739  1.6833
   93CHL1  H19B 9330   3.903   5.907   7.210 -1.4567 -0.0874 -3.2417
   93CHL1  H19C 9331   4.051   5.994   7.154 -0.2528 -1.2403  0.6519
   93CHL1    C1 9332   3.799   6.004   6.999  0.9353  0.3345  0.5213
   93CHL1   H1A 9333   3.774   5.900   7.030  3.2142 -0.1290  0.9744
   93CHL1   H1B 9334   3.708   6.054   6.960  1.4096  0.0913 -0.9370
   93CHL1    C2 9335   3.908   5.987   6.891  0.1508 -0.0418  0.4963
   93CHL1   H2A 9336   3.875   5.934   6.799 -0.2336 -0.4924  0.8921
   93CHL1   H2B 9337   3.989   5.921   6.930 -0.9484 -0.9328  1.3347
   93CHL1   C20 9338   3.487   6.032   7.729  0.5579  0.7930  0.1473
   93CHL1   H20 9339   3.584   6.033   7.782  0.4292 -1.7096  0.5572
   93CHL1   C21 9340   3.448   5.888   7.695  0.2581  0.3545  0.2329
   93CHL1  H21A 9341   3.401   5.841   7.784 -1.8761  2.7805  0.5009
   93CHL1  H21B 9342   3.542   5.840   7.659  0.6952 -0.6293  2.4842
   93CHL1  H21C 9343   3.373   5.889   7.614  0.3310  2.1572  0.1430
   93CHL1   C22 9344   3.380   6.095   7.823  0.2369  0.6763 -0.8081
   93CHL1  H22A 9345   3.386   6.037   7.917 -2.3566 -1.1769 -1.6756
   93CHL1  H22B 9346   3.405   6.199   7.854  0.9433 -0.2978  2.2263
   93CHL1   C23 9347   3.240   6.102   7.770  0.2784  0.7820  0.3916
   93CHL1  H23A 9348   3.235   6.184   7.695  1.4844  1.4652  1.0154
   93CHL1  H23B 9349   3.202   6.007   7.727  2.6628  0.2638 -0.7674
   93CHL1   C24 9350   3.134   6.137   7.879  0.3028 -0.4125 -0.4156
   93CHL1  H24A 9351   3.142   6.243   7.913  0.7634  0.7082 -3.6331
   93CHL1  H24B 9352   3.034   6.132   7.830 -0.1813 -2.7929  0.6881
   93CHL1   C25 9353   3.121   6.047   8.002 -0.5823  0.6067 -0.5415
   93CHL1   H25 9354   3.224   6.034   8.042 -0.0895 -0.4979 -2.1017
   93CHL1   C26 9355   3.038   6.117   8.109  0.5314  0.1238  0.2028
   93CHL1  H26A 9356   3.007   6.050   8.192  1.5628 -1.8616 -0.9474
   93CHL1  H26B 9357   3.093   6.201   8.158  0.3324  1.2305 -1.3890
   93CHL1  H26C 9358   2.947   6.164   8.066  0.5636 -0.1410 -0.1527
   93CHL1   C27 9359   3.072   5.906   7.970  0.3348  0.1806  0.3872
   93CHL1  H27A 9360   2.985   5.917   7.902 -1.5308 -0.9845  2.4384
   93CHL1  H27B 9361   3.144   5.845   7.912 -0.0812 -0.2165  0.2768
   93CHL1  H27C 9362   3.041   5.843   8.057  0.3724 -0.0341  0.2449
   94CHL1    C3 9363   5.105   4.279   6.730 -0.7389 -0.5612 -0.1636
   94CHL1    H3 9364   5.080   4.383   6.702  0.9800 -0.3993 -1.2826
   94CHL1    O3 9365   5.142   4.223   6.607  0.2948 -0.2210 -0.5484
   94CHL1   H3' 9366   5.238   4.224   6.601  0.2583 -0.4943 -1.2836
   94CHL1    C4 9367   5.224   4.278   6.838  0.1354  0.1367 -0.2743
   94CHL1   H4A 9368   5.256   4.172   6.845  0.4071  0.0664 -2.0425
   94CHL1   H4B 9369   5.315   4.333   6.805  1.9340 -2.3085  0.3229
   94CHL1    C5 9370   5.171   4.323   6.975 -0.1950 -0.2313  0.0749
   94CHL1    C6 9371   5.235   4.421   7.041  0.5810  0.6315  0.6713
   94CHL1    H6 9372   5.317   4.477   6.993  0.3970  0.5008  0.2013
   94CHL1    C7 9373   5.195   4.472   7.177  0.5763 -0.0542  0.1270
   94CHL1   H7A 9374   5.288   4.490   7.235  1.5272  0.8653 -1.6012
   94CHL1   H7B 9375   5.148   4.572   7.164 -1.6616 -1.0900 -0.2357
   94CHL1    C8 9376   5.099   4.376   7.247  0.1520 -0.6902 -0.3322
   94CHL1    H8 9377   5.163   4.294   7.287 -0.7089 -0.4639  1.5970
   94CHL1   C14 9378   5.030   4.444   7.365 -0.7529  0.4695  0.2195
   94CHL1   H14 9379   4.975   4.527   7.316 -0.7711 -0.8760 -2.1745
   94CHL1   C15 9380   5.122   4.522   7.467 -0.6164  0.0599  0.7332
   94CHL1  H15A 9381   5.194   4.449   7.512  1.6804  2.2101  0.7712
   94CHL1  H15B 9382   5.167   4.618   7.435 -2.1906  0.9597  1.1125
   94CHL1   C16 9383   5.026   4.540   7.590  0.2033 -0.3774  0.6647
   94CHL1  H16A 9384   5.069   4.517   7.690  0.8664  0.0794  0.4945
   94CHL1  H16B 9385   4.992   4.646   7.595 -0.0546 -0.2858 -1.8480
   94CHL1   C17 9386   4.893   4.454   7.556 -1.3164 -0.7230 -0.8728
   94CHL1   H17 9387   4.826   4.532   7.516  1.5919  1.7940 -1.2582
   94CHL1   C13 9388   4.936   4.360   7.447 -0.1207  0.1370 -0.3456
   94CHL1   C18 9389   5.001   4.234   7.501 -0.0620 -0.0122 -0.0828
   94CHL1  H18A 9390   5.089   4.260   7.564  0.1244 -0.2407 -0.2529
   94CHL1  H18B 9391   4.933   4.170   7.561  0.2258 -0.3550 -0.1222
   94CHL1  H18C 9392   5.042   4.172   7.419 -3.1064 -0.0399 -1.7169
   94CHL1   C12 9393   4.821   4.312   7.351 -0.0503  0.1123 -0.5036
   94CHL1  H12A 9394   4.759   4.242   7.411  1.0758  0.9985  1.8094
   94CHL1  H12B 9395   4.755   4.388   7.303 -0.1427  0.2311 -0.1893
   94CHL1   C11 9396   4.874   4.243   7.234  0.3461 -0.0098 -0.0600
   94CHL1  H11A 9397   4.924   4.147   7.260 -1.8844 -0.9474  0.9543
   94CHL1  H11B 9398   4.791   4.231   7.161  0.3904  1.7818 -0.4498
   94CHL1    C9 9399   4.983   4.325   7.158 -0.1520 -0.4271  0.1226
   94CHL1    H9 9400   4.932   4.419   7.127 -2.3210 -1.2217  1.0741
   94CHL1   C10 9401   5.042   4.260   7.030 -0.9251 -0.2501 -0.2505
   94CHL1   C19 9402   5.073   4.111   7.065 -0.7757  0.3343 -0.9721
   94CHL1  H19A 9403   4.975   4.061   7.083 -0.4690 -1.3751 -3.5683
   94CHL1  H19B 9404   5.112   4.065   6.972 -0.1432  0.0526 -0.5692
   94CHL1  H19C 9405   5.141   4.109   7.152 -0.8209  0.3571 -0.9363
   94CHL1    C1 9406   4.932   4.266   6.915 -0.4624  0.2837 -0.8559
   94CHL1   H1A 9407   4.839   4.214   6.944 -0.7800 -0.0038 -2.3233
   94CHL1   H1B 9408   4.909   4.372   6.891 -2.7060  0.1704  0.5408
   94CHL1    C2 9409   4.985   4.200   6.788 -0.2013 -0.5803 -0.0851
   94CHL1   H2A 9410   4.895   4.209   6.722 -0.4236 -0.5026  0.2235
   94CHL1   H2B 9411   5.011   4.092   6.790  1.2522 -0.2388  0.1099
   94CHL1   C20 9412   4.829   4.395   7.685  0.5218 -0.5878  0.3609
   94CHL1   H20 9413   4.903   4.321   7.722  2.2345  1.3126  0.9685
   94CHL1   C21 9414   4.691   4.339   7.648  0.0764  0.2339 -0.1651
   94CHL1  H21A 9415   4.628   4.318   7.738 -0.0422 -1.7455 -0.6743
   94CHL1  H21B 9416   4.704   4.240   7.600  1.6196 -0.4407  1.5182
   94CHL1  H21C 9417   4.637   4.412   7.583 -1.7141  0.5059  1.5053
   94CHL1   C22 9418   4.815   4.498   7.796 -0.5498 -1.1738 -0.4739
   94CHL1  H22A 9419   4.892   4.578   7.796 -1.1162 -0.5276  2.4273
   94CHL1  H22B 9420   4.722   4.557   7.782 -0.9566 -1.1483  1.9695
   94CHL1   C23 9421   4.819   4.449   7.941  0.2407 -0.2603  0.7672
   94CHL1  H23A 9422   4.734   4.385   7.972 -1.0491  1.4565  0.8992
   94CHL1  H23B 9423   4.907   4.388   7.969  0.3183  0.1826  1.4899
   94CHL1   C24 9424   4.835   4.572   8.033  0.0314 -0.1478 -0.3349
   94CHL1  H24A 9425   4.924   4.635   8.010 -0.4376  0.6510 -0.0055
   94CHL1  H24B 9426   4.742   4.631   8.024  0.4518  0.5898  0.0252
   94CHL1   C25 9427   4.833   4.547   8.192 -0.7530  0.5534 -0.6447
   94CHL1   H25 9428   4.754   4.472   8.214  1.2634 -1.6540 -0.5405
   94CHL1   C26 9429   4.964   4.476   8.230 -1.0323 -0.2413  0.3896
   94CHL1  H26A 9430   4.973   4.367   8.209 -0.8610 -0.9386  3.5606
   94CHL1  H26B 9431   5.053   4.531   8.194  0.2938 -0.5633  2.8900
   94CHL1  H26C 9432   4.975   4.486   8.340  1.8032 -0.6212  0.1980
   94CHL1   C27 9433   4.811   4.684   8.253 -0.0060  1.1510  0.9582
   94CHL1  H27A 9434   4.813   4.658   8.361 -1.3443 -3.5591  0.1081
   94CHL1  H27B 9435   4.892   4.757   8.233  0.1122  0.6894 -0.3246
   94CHL1  H27C 9436   4.708   4.718   8.227  0.3966  0.5585 -1.7568
   95CHL1    C3 9437   3.571   2.503   6.700 -1.0520 -0.1184 -0.3741
   95CHL1    H3 9438   3.559   2.392   6.696  0.6071 -0.4248  1.5590
   95CHL1    O3 9439   3.568   2.553   6.562 -0.1542 -0.1896 -0.3174
   95CHL1   H3' 9440   3.647   2.512   6.527  1.0295 -0.1098  2.0936
   95CHL1    C4 9441   3.446   2.555   6.779 -0.3688  0.5585 -0.0497
   95CHL1   H4A 9442   3.433   2.665   6.770  0.9268  0.6523 -1.1750
   95CHL1   H4B 9443   3.353   2.519   6.729  0.7382  0.1506 -1.8887
   95CHL1    C5 9444   3.445   2.532   6.927 -0.2005  0.2936 -0.4997
   95CHL1    C6 9445   3.350   2.459   6.992 -0.8653 -0.1597  0.5618
   95CHL1    H6 9446   3.262   2.428   6.934 -0.4714  2.5489 -1.7370
   95CHL1    C7 9447   3.341   2.443   7.142  0.8088 -0.1290  0.1968
   95CHL1   H7A 9448   3.238   2.452   7.184 -0.9711 -1.8395 -3.3561
   95CHL1   H7B 9449   3.358   2.335   7.162  0.8763 -0.3919 -1.2018
   95CHL1    C8 9450   3.451   2.526   7.223 -0.4279 -0.3101 -0.3324
   95CHL1    H8 9451   3.423   2.633   7.209  0.2902 -0.1805 -0.8761
   95CHL1   C14 9452   3.457   2.489   7.365 -0.2524 -0.2260  0.2898
   95CHL1   H14 9453   3.488   2.382   7.363 -2.7326 -0.9954 -0.9048
   95CHL1   C15 9454   3.325   2.482   7.447 -0.4048 -0.1819 -0.2507
   95CHL1  H15A 9455   3.266   2.572   7.419 -0.9026 -0.8639 -1.4670
   95CHL1  H15B 9456   3.255   2.396   7.438 -0.9579  0.3973 -1.8237
   95CHL1   C16 9457   3.376   2.481   7.596 -0.1536  0.3715  0.4519
   95CHL1  H16A 9458   3.330   2.566   7.651  0.9903  1.6648 -0.5112
   95CHL1  H16B 9459   3.360   2.380   7.639  3.4646 -0.6601 -0.2673
   95CHL1   C17 9460   3.536   2.509   7.595  0.4560  0.3372  0.2521
   95CHL1   H17 9461   3.576   2.406   7.599 -0.0343  0.0917 -0.9191
   95CHL1   C13 9462   3.555   2.561   7.451  0.7971 -0.8462 -0.3515
   95CHL1   C18 9463   3.523   2.713   7.450  0.4747 -0.6442 -0.3559
   95CHL1  H18A 9464   3.530   2.760   7.349 -0.5431  0.7247  0.1925
   95CHL1  H18B 9465   3.422   2.729   7.493  0.5033  3.4748 -1.4146
   95CHL1  H18C 9466   3.595   2.776   7.505 -0.7302 -1.2391  2.0095
   95CHL1   C12 9467   3.693   2.529   7.385 -0.1640  0.4281  0.0054
   95CHL1  H12A 9468   3.773   2.586   7.437  0.9292  0.4100 -1.5805
   95CHL1  H12B 9469   3.705   2.419   7.395  0.7361  0.4284 -0.9134
   95CHL1   C11 9470   3.701   2.567   7.239 -0.3430  0.0421  0.8752
   95CHL1  H11A 9471   3.705   2.677   7.251  3.9276  0.3598 -1.4299
   95CHL1  H11B 9472   3.801   2.534   7.202 -0.2334  0.3675  0.8807
   95CHL1    C9 9473   3.582   2.516   7.151 -0.2461 -0.0514  0.0419
   95CHL1    H9 9474   3.593   2.407   7.137 -1.8157 -0.1449 -0.6600
   95CHL1   C10 9475   3.575   2.580   7.003 -0.0406  0.1847 -0.0965
   95CHL1   C19 9476   3.580   2.738   7.017 -0.2080 -0.3278  0.4341
   95CHL1  H19A 9477   3.682   2.756   7.058 -1.5403  3.3711  2.6131
   95CHL1  H19B 9478   3.582   2.773   6.912  0.9078 -2.1852 -0.2130
   95CHL1  H19C 9479   3.516   2.789   7.092  1.3147 -0.6324  2.0003
   95CHL1    C1 9480   3.690   2.517   6.918 -0.1909 -0.8993  0.0004
   95CHL1   H1A 9481   3.786   2.557   6.959 -0.0854 -0.0335 -1.0386
   95CHL1   H1B 9482   3.692   2.407   6.933 -0.8482 -0.7771  1.1172
   95CHL1    C2 9483   3.697   2.553   6.770  0.0877 -0.1503 -0.4536
   95CHL1   H2A 9484   3.782   2.500   6.721 -2.1635 -2.4458 -2.1000
   95CHL1   H2B 9485   3.712   2.664   6.772 -0.2510 -0.1001 -0.6584
   95CHL1   C20 9486   3.585   2.595   7.715  0.2331  0.1518  0.3075
   95CHL1   H20 9487   3.559   2.703   7.703  1.8749  0.5535  0.1604
   95CHL1   C21 9488   3.739   2.607   7.717 -0.0514  0.7818 -0.0416
   95CHL1  H21A 9489   3.785   2.651   7.808 -0.3457 -3.7850  2.6081
   95CHL1  H21B 9490   3.774   2.677   7.638 -2.5684 -0.1370 -2.0942
   95CHL1  H21C 9491   3.788   2.508   7.706  0.4550  0.9238  0.8587
   95CHL1   C22 9492   3.538   2.524   7.850  0.1493 -0.0402 -0.0422
   95CHL1  H22A 9493   3.429   2.502   7.846 -0.2208  1.7951 -1.1296
   95CHL1  H22B 9494   3.592   2.428   7.837  1.8446  1.1162 -2.2710
   95CHL1   C23 9495   3.582   2.596   7.977 -0.3720 -0.2145 -0.6285
   95CHL1  H23A 9496   3.574   2.515   8.053  2.4428  0.5933  0.6684
   95CHL1  H23B 9497   3.688   2.625   7.985 -0.0701 -1.4975  0.5237
   95CHL1   C24 9498   3.498   2.717   8.008  0.3006  0.4830  0.0070
   95CHL1  H24A 9499   3.519   2.803   7.941  1.0246  1.4546  1.4378
   95CHL1  H24B 9500   3.392   2.696   7.979 -0.3297  2.0537  1.0818
   95CHL1   C25 9501   3.488   2.764   8.153 -0.7162  0.2666 -0.6273
   95CHL1   H25 9502   3.442   2.681   8.211  1.4858 -0.3628  0.3524
   95CHL1   C26 9503   3.633   2.770   8.221 -0.1445 -0.2647 -0.4143
   95CHL1  H26A 9504   3.618   2.780   8.330  2.0719  0.5362 -0.1365
   95CHL1  H26B 9505   3.699   2.684   8.198  0.9225  0.9750 -2.2990
   95CHL1  H26C 9506   3.677   2.866   8.184  0.5157 -0.5551 -0.3799
   95CHL1   C27 9507   3.404   2.890   8.175 -0.2633  0.9339 -0.8751
   95CHL1  H27A 9508   3.307   2.866   8.127  0.5056 -3.5103 -0.6794
   95CHL1  H27B 9509   3.377   2.901   8.282 -2.3345 -0.1652 -1.2291
   95CHL1  H27C 9510   3.450   2.983   8.136  1.3796  0.0294 -1.1981
   96CHL1    C3 9511   3.022   0.463   6.666  0.2015  0.1608  0.0532
   96CHL1    H3 9512   3.086   0.550   6.690  0.4046 -0.8312  3.9211
   96CHL1    O3 9513   2.989   0.452   6.532  0.1602  0.5518 -0.3187
   96CHL1   H3' 9514   2.962   0.360   6.522 -0.5935  0.7019  0.2237
   96CHL1    C4 9515   3.106   0.343   6.718  0.3503  0.2194  0.2298
   96CHL1   H4A 9516   3.054   0.249   6.689  1.6277 -0.6323  0.6154
   96CHL1   H4B 9517   3.198   0.344   6.656  1.1049  1.2244  1.3265
   96CHL1    C5 9518   3.138   0.352   6.869  0.0371  0.0090  0.2978
   96CHL1    C6 9519   3.261   0.345   6.921  0.5413 -0.4600 -0.3690
   96CHL1    H6 9520   3.348   0.321   6.858 -0.5810 -1.9666 -1.4188
   96CHL1    C7 9521   3.298   0.347   7.065  0.6805  0.4964 -0.6474
   96CHL1   H7A 9522   3.376   0.271   7.088  0.5071  0.7799  1.0365
   96CHL1   H7B 9523   3.337   0.449   7.084 -1.8387  1.0821  2.0545
   96CHL1    C8 9524   3.178   0.330   7.151  0.3155  0.1340 -0.6971
   96CHL1    H8 9525   3.154   0.222   7.160 -0.8074  0.3493 -0.9895
   96CHL1   C14 9526   3.210   0.364   7.298 -0.0586  0.3065 -0.5869
   96CHL1   H14 9527   3.238   0.471   7.289 -1.5770  0.7476 -0.2846
   96CHL1   C15 9528   3.338   0.318   7.367 -0.3914 -0.5063  0.2623
   96CHL1  H15A 9529   3.357   0.210   7.349 -1.6192 -0.5654 -0.8366
   96CHL1  H15B 9530   3.427   0.378   7.338 -0.1052 -1.9046 -1.9441
   96CHL1   C16 9531   3.308   0.331   7.519 -0.2260 -0.0526 -0.7267
   96CHL1  H16A 9532   3.295   0.229   7.561  0.3771 -0.3726 -1.3009
   96CHL1  H16B 9533   3.394   0.387   7.563 -0.2068  0.6953 -1.6952
   96CHL1   C17 9534   3.169   0.402   7.528 -0.3629 -0.7083  0.7480
   96CHL1   H17 9535   3.194   0.507   7.502 -1.9206 -0.3731  0.5125
   96CHL1   C13 9536   3.094   0.361   7.398 -0.3328  0.1678  0.0086
   96CHL1   C18 9537   3.049   0.214   7.421  0.1210 -0.1527 -0.4006
   96CHL1  H18A 9538   2.987   0.176   7.337 -1.0886  0.0439  0.3831
   96CHL1  H18B 9539   3.127   0.135   7.431 -1.2789 -1.6123 -0.5709
   96CHL1  H18C 9540   2.979   0.199   7.506  0.6962 -2.2721 -0.2304
   96CHL1   C12 9541   2.979   0.455   7.346 -0.2899  0.2406 -0.2469
   96CHL1  H12A 9542   2.893   0.447   7.416 -0.3359 -1.5578 -0.4570
   96CHL1  H12B 9543   3.016   0.558   7.331 -0.2269  0.3646  0.6815
   96CHL1   C11 9544   2.933   0.418   7.203  0.3030 -0.3028 -0.1157
   96CHL1  H11A 9545   2.893   0.315   7.208 -1.4230  0.3022 -0.6360
   96CHL1  H11B 9546   2.860   0.500   7.182  2.0849  1.8000  1.4204
   96CHL1    C9 9547   3.053   0.414   7.106  0.3378  0.9185  0.8619
   96CHL1    H9 9548   3.085   0.520   7.102 -1.4945  1.5152  1.3376
   96CHL1   C10 9549   3.011   0.384   6.959  0.2553 -0.2200  0.6790
   96CHL1   C19 9550   2.924   0.257   6.959 -0.6630  0.0064 -0.0177
   96CHL1  H19A 9551   2.836   0.267   7.027 -0.8423  2.9865 -0.5216
   96CHL1  H19B 9552   2.888   0.232   6.857 -1.1266  1.3520 -0.2128
   96CHL1  H19C 9553   2.989   0.171   6.983  0.7647  1.2443  0.7633
   96CHL1    C1 9554   2.934   0.504   6.901  0.2114 -0.1431  0.0637
   96CHL1   H1A 9555   2.834   0.521   6.948 -0.0908 -0.8328 -0.3016
   96CHL1   H1B 9556   2.987   0.601   6.905  0.4946 -0.3257  2.8396
   96CHL1    C2 9557   2.897   0.482   6.752 -1.3740 -0.0851  0.3013
   96CHL1   H2A 9558   2.839   0.573   6.725  1.2629  1.9375  1.0041
   96CHL1   H2B 9559   2.832   0.396   6.729  1.4037 -2.7515  1.6214
   96CHL1   C20 9560   3.089   0.400   7.660 -0.0546 -0.1152 -0.4312
   96CHL1   H20 9561   2.983   0.381   7.631  0.0614  1.3400 -1.9251
   96CHL1   C21 9562   3.091   0.548   7.709 -0.2636 -0.6901 -0.7138
   96CHL1  H21A 9563   3.046   0.617   7.634 -1.1163 -0.4376  0.0167
   96CHL1  H21B 9564   3.194   0.582   7.732  0.3509 -1.2804 -2.4370
   96CHL1  H21C 9565   3.026   0.562   7.798 -0.8366  2.7558 -1.5231
   96CHL1   C22 9566   3.137   0.295   7.767 -0.0301  0.4518 -0.4515
   96CHL1  H22A 9567   3.151   0.189   7.737  0.0103  0.1230  0.6760
   96CHL1  H22B 9568   3.237   0.328   7.800 -0.7306  0.8600  1.3719
   96CHL1   C23 9569   3.041   0.289   7.893  0.3077 -0.5055 -0.3154
   96CHL1  H23A 9570   3.024   0.387   7.941 -1.1270 -0.2005 -1.3771
   96CHL1  H23B 9571   2.941   0.249   7.864  0.4369 -1.2611  0.2642
   96CHL1   C24 9572   3.082   0.183   7.997 -0.0246 -0.3720 -0.5410
   96CHL1  H24A 9573   3.111   0.090   7.944 -2.5684 -0.7647 -1.3505
   96CHL1  H24B 9574   3.168   0.233   8.047  0.6792 -1.3482 -0.7546
   96CHL1   C25 9575   2.980   0.156   8.108  0.3161 -0.7249  0.2223
   96CHL1   H25 9576   2.884   0.128   8.059 -0.6239  1.8647  0.4528
   96CHL1   C26 9577   3.035   0.040   8.189  0.4012 -0.7794  0.0435
   96CHL1  H26A 9578   3.049  -0.046   8.120  0.7163 -0.6461 -0.0635
   96CHL1  H26B 9579   3.139   0.069   8.218 -0.0869  0.3177  0.7824
   96CHL1  H26C 9580   2.979   0.007   8.280 -1.8536 -1.9966 -1.6959
   96CHL1   C27 9581   2.937   0.278   8.179 -0.2833  0.1168  0.0642
   96CHL1  H27A 9582   2.901   0.358   8.111  1.4749  0.9036  0.0246
   96CHL1  H27B 9583   2.854   0.252   8.249 -0.0678  0.9351  0.6463
   96CHL1  H27C 9584   3.029   0.310   8.231  1.3668 -2.8479 -0.8291
   97OSM      N 9585   0.877   6.165  11.148 -0.5565 -0.1174 -0.0502
   97OSM    C15 9586   0.811   6.085  11.253 -0.7813  0.0692  0.7746
   97OSM   H15A 9587   0.866   6.081  11.345 -0.9915 -0.2610  0.8849
   97OSM   H15B 9588   0.800   5.983  11.221  2.1018  0.0234 -0.3532
   97OSM   H15C 9589   0.721   6.138  11.282 -0.5968 -0.0451  1.5600
   97OSM    C14 9590   0.919   6.293  11.202  0.0021 -0.2547  0.2377
   97OSM   H14A 9591   0.970   6.292  11.296  2.5274  2.1306 -0.9452
   97OSM   H14B 9592   0.836   6.359  11.223  0.1067 -0.0421 -0.0011
   97OSM   H14C 9593   0.983   6.352  11.138  1.0496 -1.3805  0.2303
   97OSM    C13 9594   1.003   6.088  11.113 -0.2261  0.2995  0.2033
   97OSM   H13A 9595   1.061   6.156  11.052  1.6632 -0.1342  1.4217
   97OSM   H13B 9596   0.989   6.000  11.053  0.5567  0.7380 -0.6546
   97OSM   H13C 9597   1.050   6.047  11.201  0.1514 -0.4872 -0.3557
   97OSM    C12 9598   0.792   6.177  11.016 -0.2731  0.5427 -0.2581
   97OSM   H12A 9599   0.790   6.072  10.991  2.4463 -0.0862  1.6438
   97OSM   H12B 9600   0.859   6.213  10.940  1.1278 -2.3285 -0.5233
   97OSM    C11 9601   0.664   6.258  11.010  0.0049  0.2581 -0.1661
   97OSM   H11A 9602   0.597   6.213  11.086  0.3794 -0.9617 -0.5426
   97OSM   H11B 9603   0.602   6.236  10.920  1.3606  0.7282 -1.2559
   97OSM      P 9604   0.752   6.492  10.923  0.2180  0.1250 -0.0904
   97OSM    O13 9605   0.685   6.622  10.908 -0.1332 -0.0560 -0.2804
   97OSM    O14 9606   0.896   6.507  10.954 -0.0280  0.3698  0.0296
   97OSM    O11 9607   0.734   6.419  10.783 -0.1864  0.2489 -0.1395
   97OSM    O12 9608   0.677   6.397  11.026 -0.1343 -0.1347 -0.1403
   97OSM    C1S 9609   0.757   6.482  10.658 -0.3236  0.5987  0.3213
   97OSM    H1S 9610   0.867   6.497  10.661 -0.2093  0.3379 -1.3023
   97OSM    H1T 9611   0.728   6.589  10.648  1.7018  1.1929  0.3270
   97OSM     NF 9612   0.738   6.454  10.398  0.2235 -0.3628 -0.0621
   97OSM    HNF 9613   0.660   6.506  10.364 -0.3455 -0.2479  1.3494
   97OSM    C2S 9614   0.717   6.391  10.531  0.4818 -0.0097 -0.1112
   97OSM    H2S 9615   0.779   6.299  10.535  1.0710  0.1007 -3.7493
   97OSM    C3S 9616   0.566   6.346  10.547  0.3932  0.5031 -0.3863
   97OSM    H3S 9617   0.511   6.441  10.530  0.9028  0.5109 -2.1527
   97OSM     O3 9618   0.526   6.292  10.671 -0.2220  0.3395  0.3696
   97OSM    HO3 9619   0.599   6.317  10.728 -0.2907 -0.5664  0.8808
   97OSM    C4S 9620   0.535   6.234  10.443 -0.2902 -1.1929 -0.7003
   97OSM    H4S 9621   0.614   6.158  10.448 -0.4835 -1.2949  1.8407
   97OSM    C5S 9622   0.430   6.236  10.356 -0.2389 -0.2794 -0.0129
   97OSM    H5S 9623   0.358   6.318  10.361  1.1080  0.9673 -0.2865
   97OSM    C6S 9624   0.406   6.143  10.236 -0.4380  0.5092 -0.8462
   97OSM    H6S 9625   0.352   6.051  10.270 -1.3461  1.1614 -0.4688
   97OSM    H6T 9626   0.504   6.105  10.200 -0.9375 -0.8429 -0.8197
   97OSM    C7S 9627   0.319   6.208  10.120  0.5212  0.5686 -0.3636
   97OSM    H7S 9628   0.351   6.312  10.099  1.2307  0.6920  1.1627
   97OSM    H7T 9629   0.214   6.218  10.155 -0.4463 -1.8020 -2.3374
   97OSM    C8S 9630   0.311   6.137   9.984  0.8873  0.1954 -0.5767
   97OSM    H8S 9631   0.214   6.163   9.937  1.0496 -0.7494 -1.4682
   97OSM    H8T 9632   0.324   6.026   9.982 -0.6004 -0.0131 -0.4598
   97OSM    C9S 9633   0.416   6.193   9.886  0.1942  0.2247  0.3471
   97OSM    H9S 9634   0.512   6.137   9.889  0.6782  0.8104 -2.1236
   97OSM    H9T 9635   0.435   6.300   9.910  3.0614 -0.1976  0.3959
   97OSM   C10S 9636   0.366   6.200   9.744 -0.9253 -0.6090  0.1505
   97OSM   H10S 9637   0.441   6.243   9.674 -1.6550 -0.0120 -0.2698
   97OSM   H10T 9638   0.284   6.274   9.740  0.9497  1.5302 -1.4375
   97OSM   C11S 9639   0.323   6.063   9.684 -0.3515 -0.4178 -0.2295
   97OSM   H11S 9640   0.234   6.025   9.739  0.2315 -1.1680  0.1996
   97OSM   H11T 9641   0.405   5.990   9.695 -1.2536 -1.4598 -0.2010
   97OSM   C12S 9642   0.288   6.067   9.531  0.0308  0.0630  0.5845
   97OSM   H12S 9643   0.217   6.152   9.535 -0.3591 -0.1609 -1.0107
   97OSM   H12T 9644   0.238   5.978   9.489  1.0758 -0.6369  0.7590
   97OSM   C13S 9645   0.408   6.099   9.437 -0.5647 -0.2160  0.0309
   97OSM   H13S 9646   0.477   6.012   9.447 -2.0315 -1.2790  1.5185
   97OSM   H13T 9647   0.467   6.186   9.473 -0.4550  0.1871 -1.0963
   97OSM   C14S 9648   0.365   6.131   9.291  0.0588 -0.0718  0.2874
   97OSM   H14S 9649   0.364   6.239   9.266  0.4416 -0.4396 -1.4655
   97OSM   H14T 9650   0.266   6.085   9.269  0.5508 -0.7531 -0.5715
   97OSM   C15S 9651   0.459   6.053   9.193 -0.3435 -0.4442  0.2309
   97OSM   H15S 9652   0.443   5.943   9.187  0.5902 -0.5885  0.3084
   97OSM   H15T 9653   0.565   6.065   9.222 -0.4584 -1.2332  1.0408
   97OSM   C16S 9654   0.441   6.116   9.055 -0.0984  0.3848  0.0249
   97OSM   H16S 9655   0.331   6.111   9.038 -0.1015 -1.4541  0.4120
   97OSM   H16T 9656   0.489   6.045   8.985  0.1061  1.7722 -1.3057
   97OSM   C17S 9657   0.497   6.255   9.039  0.3795 -0.1153 -0.1078
   97OSM   H17S 9658   0.607   6.263   9.055  0.1435  0.8945  1.1758
   97OSM   H17T 9659   0.454   6.321   9.117  1.3465 -1.2999  1.4862
   97OSM   C18S 9660   0.468   6.311   8.900 -0.1034 -0.2757 -0.6049
   97OSM   H18S 9661   0.506   6.416   8.902 -2.1463  0.5203 -0.2665
   97OSM   H18T 9662   0.359   6.319   8.876 -0.0606 -1.3114 -1.1591
   97OSM   H18U 9663   0.516   6.246   8.824 -2.2441 -2.6257 -0.0672
   97OSM    C1F 9664   0.855   6.459  10.332  0.5017  0.1494 -0.4351
   97OSM     OF 9665   0.960   6.435  10.390  0.2408  0.1597 -0.5121
   97OSM    C2F 9666   0.849   6.515  10.196 -0.0178  0.1726  0.2625
   97OSM    H2F 9667   0.788   6.608  10.200 -0.2221  0.0025  1.3130
   97OSM    H2G 9668   0.805   6.448  10.119  0.8539 -1.0040  0.7679
   97OSM    C3F 9669   0.992   6.552  10.149  0.2064 -0.0937 -0.8220
   97OSM    H3F 9670   1.058   6.462  10.144  1.6013  0.8896 -0.6811
   97OSM    H3G 9671   1.044   6.605  10.232 -0.8600  2.4310 -1.6798
   97OSM    C4F 9672   1.017   6.637  10.019 -0.1262  0.5685 -0.6022
   97OSM    H4F 9673   1.123   6.664  10.040 -0.2953 -1.1198  3.5255
   97OSM    H4G 9674   0.962   6.733  10.024 -3.1797 -0.8758 -2.7951
   97OSM    C5F 9675   0.988   6.551   9.895  0.3579 -0.2997  0.2824
   97OSM    H5F 9676   0.894   6.494   9.904  1.1567 -1.2892  3.4977
   97OSM    H5G 9677   1.064   6.470   9.901  0.9187  0.3093  1.6226
   97OSM    C6F 9678   1.003   6.626   9.759  0.0267  0.0782  0.3578
   97OSM    H6F 9679   1.100   6.681   9.763  0.8166 -1.2304 -0.1434
   97OSM    H6G 9680   0.925   6.704   9.750 -0.9924 -0.6483  2.2534
   97OSM    C7F 9681   1.011   6.529   9.638 -0.4236 -0.7909 -0.0133
   97OSM    H7F 9682   0.927   6.457   9.645 -0.7886 -0.4517 -0.7834
   97OSM    H7G 9683   1.096   6.457   9.646  0.5068  0.1199 -1.1906
   97OSM    C8F 9684   1.018   6.594   9.495  0.0932  0.1032 -1.0094
   97OSM    H8F 9685   0.920   6.638   9.469 -0.0123  0.8815  0.5763
   97OSM    H8G 9686   1.048   6.509   9.431  2.6682 -1.4164  1.8976
   97OSM    C9F 9687   1.137   6.695   9.495  0.1295  0.3450  0.2307
   97OSM    H9F 9688   1.211   6.649   9.563 -1.1949  0.4692  1.8295
   97OSM   C10F 9689   1.139   6.814   9.434 -0.6537 -0.0654 -0.7477
   97OSM   H10F 9690   1.225   6.880   9.454 -0.8137 -0.6627  2.3360
   97OSM   C11F 9691   1.033   6.878   9.355 -0.4407  0.1547 -0.3813
   97OSM   H11F 9692   0.976   6.944   9.423 -2.1794 -0.5256 -1.1297
   97OSM   H11G 9693   0.956   6.802   9.330  0.7355 -1.3034  0.2175
   97OSM   C12F 9694   1.074   6.937   9.221 -0.2699 -0.6614  0.4318
   97OSM   H12F 9695   1.107   6.855   9.154  1.1796  0.7302 -0.6494
   97OSM   H12G 9696   1.165   6.998   9.243 -0.3729 -0.4166  0.1916
   97OSM   C13F 9697   0.965   7.022   9.153  0.5580 -0.0700 -1.2145
   97OSM   H13F 9698   0.931   7.094   9.231 -0.3792 -1.4131 -0.3088
   97OSM   H13G 9699   0.874   6.957   9.146  1.0416 -1.2608  1.7684
   97OSM   C14F 9700   1.009   7.083   9.028 -0.0481 -0.3199  0.6412
   97OSM   H14F 9701   1.007   6.999   8.956 -0.6326 -0.0407  0.3212
   97OSM   H14G 9702   1.113   7.123   9.031 -0.2300  0.1834  0.3540
   97OSM   C15F 9703   0.920   7.188   8.964 -0.0062  0.3769 -0.0858
   97OSM   H15F 9704   0.929   7.279   9.027 -0.0962  0.5452 -0.3152
   97OSM   H15G 9705   0.813   7.162   8.981 -0.6416  2.5828 -0.3907
   97OSM   C16F 9706   0.954   7.215   8.816  0.0195  0.1446 -0.7481
   97OSM   H16F 9707   0.937   7.123   8.756 -1.0721 -1.0184  1.2601
   97OSM   H16G 9708   1.061   7.244   8.809 -0.1903  0.9335 -0.8175
   97OSM   C17F 9709   0.869   7.327   8.759  0.3798 -0.2369 -0.1280
   97OSM   H17F 9710   0.867   7.415   8.826  0.8320 -1.0347  0.9638
   97OSM   H17G 9711   0.762   7.295   8.763  0.9105 -2.3548 -1.4662
   97OSM   C18F 9712   0.896   7.354   8.620  0.9054 -0.1326  0.7160
   97OSM   H18F 9713   0.901   7.260   8.561 -0.9573  0.7575 -0.9861
   97OSM   H18G 9714   0.998   7.399   8.622 -0.2095  2.6441  3.6463
   97OSM   H18H 9715   0.827   7.424   8.566 -1.0819 -1.7997  0.9675
   98OSM      N 9716   6.285   0.020  11.061 -0.8306  1.2705 -0.5954
   98OSM    C15 9717   6.229  -0.048  10.948  0.8630 -0.1995  0.7636
   98OSM   H15A 9718   6.175  -0.138  10.976 -0.3166  0.2534  0.0490
   98OSM   H15B 9719   6.299  -0.064  10.868  0.4683 -0.1212  0.3964
   98OSM   H15C 9720   6.152   0.012  10.900  1.7153  0.3413  0.0442
   98OSM    C14 9721   6.346   0.152  11.019  0.5015  0.6956  0.3462
   98OSM   H14A 9722   6.372   0.203  11.111  4.4929  0.1657 -0.3007
   98OSM   H14B 9723   6.276   0.210  10.962  0.2262 -1.7497 -2.0085
   98OSM   H14C 9724   6.439   0.138  10.965  0.4615  0.2947  0.3754
   98OSM    C13 9725   6.176   0.045  11.156  0.5022 -0.3790 -0.3203
   98OSM   H13A 9726   6.089   0.090  11.110 -0.2041 -1.3108  0.0576
   98OSM   H13B 9727   6.200   0.112  11.237  1.9186 -0.3761 -0.7273
   98OSM   H13C 9728   6.140  -0.045  11.204 -1.4857  0.9543  0.8467
   98OSM    C12 9729   6.399  -0.065  11.128 -0.1105 -0.8843 -0.6932
   98OSM   H12A 9730   6.346  -0.152  11.165 -0.1531 -0.8141 -0.5876
   98OSM   H12B 9731   6.430  -0.009  11.215  0.0341 -0.7823 -0.8119
   98OSM    C11 9732   6.516  -0.109  11.054 -0.6042  0.3205 -0.1456
   98OSM   H11A 9733   6.594  -0.143  11.125 -1.2275 -0.5057  0.1603
   98OSM   H11B 9734   6.560  -0.029  10.990  0.9499 -0.7248 -0.4282
   98OSM      P 9735   6.452  -0.354  11.013 -0.5015 -0.2148 -0.5639
   98OSM    O13 9736   6.578  -0.417  11.071 -0.7563  0.4363  0.3304
   98OSM    O14 9737   6.341  -0.351  11.110 -0.1351  0.2834 -0.6570
   98OSM    O11 9738   6.405  -0.431  10.884  0.4140 -0.1974  0.4184
   98OSM    O12 9739   6.480  -0.211  10.960  0.4635  0.4908  0.5658
   98OSM    C1S 9740   6.288  -0.420  10.804 -0.4567  0.2003 -0.2668
   98OSM    H1S 9741   6.226  -0.336  10.843 -1.5193  0.1789 -1.8125
   98OSM    H1T 9742   6.231  -0.514  10.814  0.0192  0.0087  0.7857
   98OSM     NF 9743   6.184  -0.409  10.573 -0.0385 -0.2544  0.1793
   98OSM    HNF 9744   6.165  -0.502  10.542  0.1650 -0.9090  1.8976
   98OSM    C2S 9745   6.304  -0.392  10.649  0.1361 -0.0553 -0.1249
   98OSM    H2S 9746   6.350  -0.291  10.642  0.2956 -0.0987  0.2652
   98OSM    C3S 9747   6.423  -0.476  10.594 -0.4165 -0.1517  0.1096
   98OSM    H3S 9748   6.394  -0.583  10.593 -0.5186 -0.1447  1.1189
   98OSM     O3 9749   6.549  -0.471  10.663 -0.3585  0.1554 -0.4728
   98OSM    HO3 9750   6.527  -0.453  10.754  2.0337 -1.7579  0.6094
   98OSM    C4S 9751   6.440  -0.436  10.454 -0.3061 -0.3285 -0.3479
   98OSM    H4S 9752   6.384  -0.509  10.394  0.1088  0.2165 -1.4260
   98OSM    C5S 9753   6.507  -0.336  10.400 -0.0019 -0.2914 -0.7842
   98OSM    H5S 9754   6.582  -0.279  10.457 -0.6061  1.5689 -1.7657
   98OSM    C6S 9755   6.524  -0.320  10.250  0.5059 -0.1300  0.2941
   98OSM    H6S 9756   6.522  -0.211  10.225  0.8192 -0.3973 -1.0057
   98OSM    H6T 9757   6.445  -0.358  10.181 -1.3390  0.3427  2.0553
   98OSM    C7S 9758   6.656  -0.384  10.195  0.2629  0.0943 -0.0706
   98OSM    H7S 9759   6.658  -0.494  10.203  1.9572  0.2003  1.7563
   98OSM    H7T 9760   6.733  -0.352  10.268 -1.2580 -0.8479  2.0357
   98OSM    C8S 9761   6.686  -0.343  10.053 -0.3179 -0.6875 -0.6806
   98OSM    H8S 9762   6.692  -0.232  10.059 -0.0486 -0.7894  2.2978
   98OSM    H8T 9763   6.590  -0.360   9.999 -1.1693 -0.6033  0.7469
   98OSM    C9S 9764   6.800  -0.420   9.978  0.0245  0.1400 -0.4053
   98OSM    H9S 9765   6.795  -0.530   9.994  0.7910 -0.0215 -1.1715
   98OSM    H9T 9766   6.899  -0.375  10.003 -0.0909 -0.5512  1.4370
   98OSM   C10S 9767   6.786  -0.384   9.831 -0.4152  0.3751 -0.5228
   98OSM   H10S 9768   6.781  -0.274   9.828  2.3156  0.7483  2.9282
   98OSM   H10T 9769   6.689  -0.432   9.805  0.2292 -2.8822  2.3052
   98OSM   C11S 9770   6.897  -0.430   9.734  0.2418  0.0740  0.1293
   98OSM   H11S 9771   6.883  -0.538   9.717 -0.0748  0.1949 -0.3981
   98OSM   H11T 9772   6.996  -0.410   9.781  0.8629 -0.3308 -0.9846
   98OSM   C12S 9773   6.879  -0.364   9.597 -0.3560 -0.0451 -0.1787
   98OSM   H12S 9774   6.863  -0.255   9.612 -1.4203 -0.2408  0.1859
   98OSM   H12T 9775   6.790  -0.401   9.543 -0.2057  0.4325 -0.7592
   98OSM   C13S 9776   7.008  -0.365   9.512 -0.0204  0.0679  0.8939
   98OSM   H13S 9777   7.036  -0.473   9.508  0.1048  0.1277 -0.1926
   98OSM   H13T 9778   7.083  -0.295   9.555  0.2245  0.9427 -0.8634
   98OSM   C14S 9779   6.982  -0.334   9.363  0.0360  0.0521 -0.0356
   98OSM   H14S 9780   6.909  -0.251   9.367 -2.8995 -2.2992 -0.6475
   98OSM   H14T 9781   6.924  -0.420   9.322  0.3280 -0.6215  0.9276
   98OSM   C15S 9782   7.102  -0.306   9.278 -0.4538  0.1183  0.8456
   98OSM   H15S 9783   7.176  -0.389   9.277 -0.7836 -0.1857 -0.5158
   98OSM   H15T 9784   7.158  -0.219   9.318  0.0030 -0.1431  0.7719
   98OSM   C16S 9785   7.069  -0.257   9.133 -0.3257  0.0253  0.2082
   98OSM   H16S 9786   6.997  -0.172   9.127 -1.1477 -0.7684 -2.1682
   98OSM   H16T 9787   7.036  -0.346   9.076  1.1061  0.3086 -1.1402
   98OSM   C17S 9788   7.197  -0.216   9.054  0.4206 -0.2114  0.1883
   98OSM   H17S 9789   7.264  -0.304   9.054  1.3743  0.4966 -0.7443
   98OSM   H17T 9790   7.247  -0.135   9.112 -1.4601  0.3456  1.1386
   98OSM   C18S 9791   7.167  -0.170   8.913 -0.8484 -0.7360 -0.1702
   98OSM   H18S 9792   7.131  -0.252   8.847  0.0368  1.3532 -3.5217
   98OSM   H18T 9793   7.266  -0.143   8.870 -0.7655  0.0067  0.4727
   98OSM   H18U 9794   7.104  -0.079   8.921  0.3781  0.0225  1.3484
   98OSM    C1F 9795   6.089  -0.321  10.573  0.1961  0.1957 -1.0402
   98OSM     OF 9796   6.108  -0.215  10.634 -0.3086  0.4460  0.4220
   98OSM    C2F 9797   5.959  -0.364  10.515 -0.1320 -0.2159  0.5781
   98OSM    H2F 9798   5.884  -0.399  10.590 -1.2397  1.3654  0.2597
   98OSM    H2G 9799   5.980  -0.452  10.450  3.3426 -0.6961  2.1340
   98OSM    C3F 9800   5.889  -0.257  10.436  0.0267 -0.0869  0.0170
   98OSM    H3F 9801   5.883  -0.165  10.499 -2.5582 -1.5284  2.1103
   98OSM    H3G 9802   5.787  -0.294  10.411  0.9038 -2.0999 -0.7345
   98OSM    C4F 9803   5.970  -0.222  10.309 -0.2142  0.2225  0.1476
   98OSM    H4F 9804   6.079  -0.227  10.329  0.2784 -2.1328 -2.4637
   98OSM    H4G 9805   5.949  -0.122  10.265  1.7730 -0.2007 -1.9191
   98OSM    C5F 9806   5.936  -0.324  10.202  0.5287  0.7273 -0.4915
   98OSM    H5F 9807   5.835  -0.299  10.162  0.2924  1.5519  0.5734
   98OSM    H5G 9808   5.931  -0.431  10.232  1.4755  0.3223 -1.7245
   98OSM    C6F 9809   6.046  -0.321  10.095 -0.1866  0.1789  0.3441
   98OSM    H6F 9810   6.126  -0.390  10.128 -0.8320 -2.0381 -2.2747
   98OSM    H6G 9811   6.092  -0.220  10.087  0.1878 -0.0211 -0.1290
   98OSM    C7F 9812   5.988  -0.378   9.960 -0.9682  1.2663 -0.6554
   98OSM    H7F 9813   5.933  -0.467   9.996  0.0487  0.5671 -0.7943
   98OSM    H7G 9814   6.079  -0.413   9.907 -0.9918  0.4765 -0.1845
   98OSM    C8F 9815   5.899  -0.284   9.877 -0.0985  0.1594 -0.4149
   98OSM    H8F 9816   5.966  -0.202   9.842  1.2511 -1.8081 -2.8161
   98OSM    H8G 9817   5.826  -0.234   9.943  1.3994  1.0917  0.5835
   98OSM    C9F 9818   5.846  -0.362   9.759  0.1451 -0.1731 -0.3321
   98OSM    H9F 9819   5.779  -0.442   9.795 -0.7972  0.5329 -0.4694
   98OSM   C10F 9820   5.893  -0.367   9.634  0.5461  0.1141 -0.0613
   98OSM   H10F 9821   5.848  -0.444   9.569 -1.2872  1.0186  0.0732
   98OSM   C11F 9822   6.008  -0.288   9.572 -0.3260  0.4805 -0.2259
   98OSM   H11F 9823   6.093  -0.355   9.547  0.4111  1.6711 -0.9948
   98OSM   H11G 9824   6.047  -0.214   9.646  2.9029 -1.7368  0.4947
   98OSM   C12F 9825   5.952  -0.225   9.445 -0.1526 -0.4050 -0.4029
   98OSM   H12F 9826   5.851  -0.184   9.464 -0.7897 -0.8010 -2.6187
   98OSM   H12G 9827   5.937  -0.308   9.373 -0.3457 -0.0664 -0.7562
   98OSM   C13F 9828   6.047  -0.128   9.367  0.6299  1.2182  0.1081
   98OSM   H13F 9829   6.141  -0.182   9.341  1.7327  3.2716 -0.3879
   98OSM   H13G 9830   6.083  -0.053   9.441  1.9779  1.4353 -0.7373
   98OSM   C14F 9831   5.977  -0.060   9.247 -0.2953 -0.4355  0.8333
   98OSM   H14F 9832   6.033   0.031   9.215  1.2174 -0.8838  2.0652
   98OSM   H14G 9833   5.873  -0.027   9.266  0.2573  2.3756 -0.4853
   98OSM   C15F 9834   5.952  -0.159   9.129  0.6696  0.5673  0.1844
   98OSM   H15F 9835   5.882  -0.234   9.170  0.7497  0.9415  1.0205
   98OSM   H15G 9836   6.050  -0.206   9.102 -1.0822 -2.5159 -1.4247
   98OSM   C16F 9837   5.904  -0.087   9.002 -0.1884 -0.5037 -0.0595
   98OSM   H16F 9838   5.927  -0.150   8.914 -0.6388 -0.9414  0.1319
   98OSM   H16G 9839   5.968   0.002   8.985 -0.3167 -0.2867  0.5682
   98OSM   C17F 9840   5.750  -0.061   9.005 -0.2818 -0.3048 -0.2408
   98OSM   H17F 9841   5.734   0.006   8.918 -0.4635  0.4842  0.3871
   98OSM   H17G 9842   5.727  -0.000   9.096 -0.1798 -2.2823  1.1719
   98OSM   C18F 9843   5.657  -0.178   8.996 -0.6720 -0.0772 -0.4880
   98OSM   H18F 9844   5.688  -0.249   8.918  0.7311 -2.0798  1.7618
   98OSM   H18G 9845   5.552  -0.146   8.978  0.0033  1.3561 -2.1650
   98OSM   H18H 9846   5.659  -0.231   9.094  0.8271  1.1598  0.1982
   99OSM      N 9847   1.637   0.462  11.012  0.7475 -0.3248 -0.2736
   99OSM    C15 9848   1.683   0.563  10.909  0.1044 -0.0314  0.0933
   99OSM   H15A 9849   1.599   0.590  10.847  1.9902  0.7774 -2.2816
   99OSM   H15B 9850   1.757   0.528  10.838 -0.9063  2.3503 -2.3122
   99OSM   H15C 9851   1.708   0.653  10.963 -0.9284 -0.3683  1.1731
   99OSM    C14 9852   1.745   0.422  11.110 -0.0609 -0.3489  0.2290
   99OSM   H14A 9853   1.835   0.373  11.076 -0.5831 -1.5745  0.5246
   99OSM   H14B 9854   1.694   0.360  11.182 -0.3592 -1.1112 -0.6082
   99OSM   H14C 9855   1.782   0.514  11.152  1.3182 -1.4899  1.6348
   99OSM    C13 9856   1.523   0.530  11.088  0.6400 -0.3822  0.4216
   99OSM   H13A 9857   1.568   0.601  11.156  2.3852 -1.7475  0.7674
   99OSM   H13B 9858   1.463   0.460  11.144 -2.2166  3.3090  2.4391
   99OSM   H13C 9859   1.449   0.573  11.022  0.8827 -0.4680  0.0876
   99OSM    C12 9860   1.591   0.340  10.944  0.5677  0.3413  0.3522
   99OSM   H12A 9861   1.556   0.262  11.011 -2.9007 -0.3285 -1.9714
   99OSM   H12B 9862   1.681   0.297  10.905 -0.4417 -3.1077  1.4265
   99OSM    C11 9863   1.481   0.342  10.830 -0.1074 -0.4557 -0.1183
   99OSM   H11A 9864   1.392   0.395  10.870 -0.2037 -1.0111  0.4069
   99OSM   H11B 9865   1.437   0.242  10.808 -1.0772  0.1102 -0.8699
   99OSM      P 9866   1.618   0.287  10.619 -0.1024  0.3866  0.3096
   99OSM    O13 9867   1.727   0.364  10.551 -0.0214 -0.2965  0.0924
   99OSM    O14 9868   1.649   0.166  10.702  0.1195 -0.4790  0.3038
   99OSM    O11 9869   1.517   0.241  10.510  0.4209  0.2629 -0.7051
   99OSM    O12 9870   1.537   0.396  10.710  0.1538  0.3779 -0.0939
   99OSM    C1S 9871   1.415   0.333  10.472 -0.4098 -0.3604 -0.0648
   99OSM    H1S 9872   1.445   0.437  10.495 -0.4974 -0.5109  0.7648
   99OSM    H1T 9873   1.326   0.304  10.531  0.6836 -0.5687  1.5493
   99OSM     NF 9874   1.271   0.419  10.281 -0.3260 -0.8766  0.2638
   99OSM    HNF 9875   1.185   0.380  10.251  0.8086 -0.8098 -3.5319
   99OSM    C2S 9876   1.378   0.327  10.323 -0.3259  0.0506  0.0377
   99OSM    H2S 9877   1.471   0.359  10.271 -0.9773  0.7713 -0.7026
   99OSM    C3S 9878   1.347   0.181  10.290  0.6845  0.4213  0.2411
   99OSM    H3S 9879   1.266   0.149  10.360 -0.6526 -2.4304 -2.3631
   99OSM     O3 9880   1.454   0.085  10.296 -0.1138 -0.4417 -0.1424
   99OSM    HO3 9881   1.519   0.138  10.343 -0.2419  1.2990 -1.8059
   99OSM    C4S 9882   1.298   0.170  10.153 -0.2296  0.3086  0.3540
   99OSM    H4S 9883   1.366   0.211  10.077  1.5077  1.9700  2.6804
   99OSM    C5S 9884   1.172   0.147  10.122 -0.1517  0.2808 -0.1674
   99OSM    H5S 9885   1.091   0.149  10.197 -0.5607 -1.2589 -0.5216
   99OSM    C6S 9886   1.120   0.151   9.986 -0.4322 -0.1570  0.0417
   99OSM    H6S 9887   1.025   0.205   9.968  0.8049  1.1467 -3.4565
   99OSM    H6T 9888   1.114   0.042   9.962  1.5981 -0.8352  2.2337
   99OSM    C7S 9889   1.214   0.215   9.873  0.2837  0.2365  0.3139
   99OSM    H7S 9890   1.313   0.164   9.874  0.0508 -0.2537  1.8895
   99OSM    H7T 9891   1.226   0.317   9.916  0.7731 -0.4821  1.9771
   99OSM    C8S 9892   1.145   0.225   9.736  0.1033  0.0619 -0.4874
   99OSM    H8S 9893   1.035   0.217   9.753  0.1135  2.0385  0.8187
   99OSM    H8T 9894   1.172   0.131   9.683  1.9035 -0.6740  1.5592
   99OSM    C9S 9895   1.195   0.347   9.662  0.1690 -0.2188  1.0633
   99OSM    H9S 9896   1.305   0.355   9.669  0.0787  1.1471  1.1993
   99OSM    H9T 9897   1.151   0.438   9.708 -2.4369  1.0027 -3.2235
   99OSM   C10S 9898   1.164   0.349   9.512 -0.6153 -0.1601  0.0454
   99OSM   H10S 9899   1.055   0.356   9.491 -0.7740  1.4254  1.2356
   99OSM   H10T 9900   1.209   0.255   9.473  2.2442  1.6541 -1.3575
   99OSM   C11S 9901   1.240   0.453   9.442  0.5267 -0.2287  0.3721
   99OSM   H11S 9902   1.351   0.452   9.447  0.5478 -1.8847 -0.0909
   99OSM   H11T 9903   1.194   0.547   9.480  1.8454 -0.0429  1.6065
   99OSM   C12S 9904   1.209   0.456   9.291 -0.7425 -0.8421  0.1085
   99OSM   H12S 9905   1.263   0.372   9.243  0.5710  1.1190 -2.0266
   99OSM   H12T 9906   1.101   0.441   9.272 -0.2811 -3.1703 -0.9496
   99OSM   C13S 9907   1.259   0.592   9.239 -0.3009  0.5226 -0.1702
   99OSM   H13S 9908   1.365   0.606   9.268 -0.0539 -1.2569 -0.0669
   99OSM   H13T 9909   1.197   0.669   9.289 -0.6183  0.2666 -0.1582
   99OSM   C14S 9910   1.234   0.600   9.094 -0.8652  0.3724  0.6758
   99OSM   H14S 9911   1.139   0.546   9.076 -1.0960 -0.4662  3.9401
   99OSM   H14T 9912   1.326   0.569   9.039 -0.1565  1.0427  1.4698
   99OSM   C15S 9913   1.201   0.746   9.049 -0.2461 -0.7556  0.2003
   99OSM   H15S 9914   1.298   0.801   9.053  0.5815 -2.1147 -0.3722
   99OSM   H15T 9915   1.129   0.795   9.117 -2.1844 -0.2495 -2.0689
   99OSM   C16S 9916   1.152   0.755   8.902  0.3027 -0.0931 -0.3693
   99OSM   H16S 9917   1.056   0.700   8.891  0.0353  0.3428 -0.2428
   99OSM   H16T 9918   1.221   0.710   8.827  0.7372  0.1295 -0.1011
   99OSM   C17S 9919   1.117   0.893   8.864  0.3538 -0.2531  0.5221
   99OSM   H17S 9920   1.201   0.965   8.854  1.0035 -0.9314  0.9734
   99OSM   H17T 9921   1.039   0.929   8.934  0.9279 -0.0037  1.0438
   99OSM   C18S 9922   1.044   0.889   8.727  0.3632 -0.6147  0.3107
   99OSM   H18S 9923   1.116   0.866   8.645  1.3901 -0.5499  1.1706
   99OSM   H18T 9924   0.995   0.988   8.713 -0.6655 -1.1416  0.1149
   99OSM   H18U 9925   0.968   0.808   8.731 -0.4355  0.1424  0.7408
   99OSM    C1F 9926   1.302   0.549  10.258  0.0503 -0.1079  0.0323
   99OSM     OF 9927   1.415   0.593  10.265 -0.4922  0.3342 -0.5689
   99OSM    C2F 9928   1.188   0.626  10.201  0.5528  0.6602  0.0460
   99OSM    H2F 9929   1.167   0.715  10.263 -0.5610  1.3380 -1.2439
   99OSM    H2G 9930   1.097   0.563  10.211 -0.9532  2.2758 -2.4527
   99OSM    C3F 9931   1.211   0.663  10.058 -0.4799 -0.0974 -0.4367
   99OSM    H3F 9932   1.299   0.730  10.048 -1.1741  1.2024  1.6189
   99OSM    H3G 9933   1.223   0.577   9.989 -0.1881 -2.0186  1.8913
   99OSM    C4F 9934   1.091   0.744  10.000 -0.0925  0.1887  0.1043
   99OSM    H4F 9935   1.134   0.834   9.952 -0.5734  0.0778 -0.5443
   99OSM    H4G 9936   1.018   0.793  10.069 -0.4460  1.7989 -1.3247
   99OSM    C5F 9937   1.014   0.672   9.886  0.1058  0.5575  0.0642
   99OSM    H5F 9938   0.916   0.643   9.929 -1.2533  0.9955 -2.5452
   99OSM    H5G 9939   1.056   0.569   9.874 -1.1007  0.2270 -1.6225
   99OSM    C6F 9940   0.991   0.751   9.759 -0.1216 -0.0759 -0.3177
   99OSM    H6F 9941   1.079   0.760   9.693 -0.3061  0.7705 -0.4505
   99OSM    H6G 9942   0.969   0.857   9.782  2.6239  0.3769  0.5838
   99OSM    C7F 9943   0.888   0.683   9.672 -0.0821 -0.4615  0.4496
   99OSM    H7F 9944   0.803   0.668   9.742  1.6259  1.1000  3.0577
   99OSM    H7G 9945   0.924   0.580   9.651 -0.4958 -0.0706 -2.5661
   99OSM    C8F 9946   0.845   0.763   9.544 -0.0361  0.1972  0.5331
   99OSM    H8F 9947   0.852   0.869   9.576  2.3361 -0.3393  2.0410
   99OSM    H8G 9948   0.737   0.749   9.523  0.3306  0.2815 -1.6626
   99OSM    C9F 9949   0.934   0.753   9.426  0.0808 -0.1470  0.0548
   99OSM    H9F 9950   1.035   0.794   9.436  0.2645 -0.5280 -0.2162
   99OSM   C10F 9951   0.919   0.683   9.316  0.2266  0.1439 -0.4229
   99OSM   H10F 9952   1.000   0.674   9.241  1.2492  0.5827  0.5923
   99OSM   C11F 9953   0.793   0.602   9.296  0.0019 -0.3994  0.4822
   99OSM   H11F 9954   0.742   0.567   9.388 -1.3135  2.1473  0.8241
   99OSM   H11G 9955   0.807   0.514   9.229 -1.9664 -0.5156  0.1658
   99OSM   C12F 9956   0.688   0.686   9.226 -0.3255 -0.7113  0.1504
   99OSM   H12F 9957   0.648   0.765   9.293  0.1558 -1.9163  1.9098
   99OSM   H12G 9958   0.604   0.618   9.202  0.0674 -1.2821  0.3661
   99OSM   C13F 9959   0.733   0.750   9.091 -0.2921 -0.9443  0.7246
   99OSM   H13F 9960   0.778   0.674   9.024 -1.9464 -1.5693  0.2576
   99OSM   H13G 9961   0.808   0.829   9.114 -0.9544  0.3385 -1.2696
   99OSM   C14F 9962   0.606   0.802   9.025  0.1844 -0.5225 -0.5513
   99OSM   H14F 9963   0.553   0.860   9.103  1.3129 -0.7318  0.3966
   99OSM   H14G 9964   0.548   0.714   8.990  1.7180 -1.2872 -1.3002
   99OSM   C15F 9965   0.645   0.891   8.898 -0.0868  0.2621 -0.4779
   99OSM   H15F 9966   0.723   0.834   8.844  1.5576  0.0407  1.9634
   99OSM   H15G 9967   0.694   0.984   8.936 -0.2181 -0.7644  2.4625
   99OSM   C16F 9968   0.525   0.924   8.807 -0.4808  0.0438 -0.2158
   99OSM   H16F 9969   0.485   0.832   8.760 -2.7365  0.7290  0.2301
   99OSM   H16G 9970   0.549   0.981   8.715  0.8795 -1.0087 -0.5465
   99OSM   C17F 9971   0.410   0.993   8.889  0.5007 -0.6357 -0.6223
   99OSM   H17F 9972   0.458   1.037   8.979  0.6150 -0.5438 -0.7270
   99OSM   H17G 9973   0.345   0.913   8.930  2.4733 -2.5449 -0.9851
   99OSM   C18F 9974   0.328   1.095   8.802  0.1597  0.5182 -0.6505
   99OSM   H18F 9975   0.260   1.161   8.860  0.8423  0.3031  0.4184
   99OSM   H18G 9976   0.282   1.055   8.709 -1.0027  1.2589 -0.4208
   99OSM   H18H 9977   0.401   1.167   8.760 -0.1648  0.4101 -1.4255
  100OSM      N 9978   5.235   6.011  10.974 -0.4529 -0.6180  0.4035
  100OSM    C15 9979   5.260   5.892  11.058 -0.0343  0.3903 -0.4546
  100OSM   H15A 9980   5.263   5.942  11.154 -0.3568  2.4925 -1.4614
  100OSM   H15B 9981   5.355   5.843  11.045  0.5465  0.9150  1.4577
  100OSM   H15C 9982   5.183   5.818  11.044  1.3595 -0.9906 -1.0599
  100OSM    C14 9983   5.086   6.053  10.979  0.4861 -0.4983 -0.2645
  100OSM   H14A 9984   5.056   6.084  11.078 -0.8010  0.5291 -0.9434
  100OSM   H14B 9985   5.025   5.969  10.950  1.3637 -1.8401  1.6303
  100OSM   H14C 9986   5.068   6.136  10.912 -1.5235  0.4444  1.3388
  100OSM    C13 9987   5.330   6.118  11.019  0.7516  0.4496  0.1334
  100OSM   H13A 9988   5.335   6.205  10.956  1.2225  2.5535  2.8813
  100OSM   H13B 9989   5.430   6.082  11.040  0.5516  0.1713  0.6452
  100OSM   H13C 9990   5.288   6.160  11.109  1.6292  2.7264 -0.4553
  100OSM    C12 9991   5.273   5.985  10.823 -0.0311  0.0869 -0.3975
  100OSM   H12A 9992   5.197   5.919  10.785 -0.9755  0.3002  1.0342
  100OSM   H12B 9993   5.365   5.930  10.825 -0.7618 -1.1798  1.4638
  100OSM    C11 9994   5.287   6.099  10.723  0.2062  0.4416  0.3546
  100OSM   H11A 9995   5.286   6.055  10.621 -2.2988 -2.6082  1.5234
  100OSM   H11B 9996   5.389   6.143  10.727  0.8875 -1.0385  0.1878
  100OSM      P 9997   5.054   6.216  10.658 -0.1333  0.1123 -0.3479
  100OSM    O13 9998   4.984   6.094  10.627  0.3030 -0.2659 -0.2154
  100OSM    O14 9999   4.972   6.326  10.720 -0.3370  0.0980  0.2348
  100OSM    O1110000   5.122   6.270  10.531  0.2334 -0.2644 -0.1746
  100OSM    O1210001   5.180   6.194  10.747 -0.2279  0.1339  1.1020
  100OSM    C1S10002   5.104   6.199  10.408 -0.4120  0.3676  0.4577
  100OSM    H1S10003   5.000   6.210  10.370 -0.8188  0.2357  1.5059
  100OSM    H1T10004   5.119   6.089  10.411 -1.7751  0.0802 -1.3467
  100OSM     NF10005   5.194   6.175  10.177  0.3650 -0.7418 -0.3151
  100OSM    HNF10006   5.260   6.102  10.159  2.7072  1.5054 -1.5509
  100OSM    C2S10007   5.215   6.243  10.300 -0.9748  0.1186 -0.3417
  100OSM    H2S10008   5.194   6.349  10.275 -0.5090 -0.7407 -5.3862
  100OSM    C3S10009   5.366   6.236  10.354  0.4707 -0.7400 -0.5385
  100OSM    H3S10010   5.388   6.127  10.360  0.2168 -0.7655 -0.0155
  100OSM     O310011   5.388   6.298  10.481  0.2058 -0.2127  0.0180
  100OSM    HO310012   5.301   6.309  10.519  0.5136  1.2783  0.3427
  100OSM    C4S10013   5.453   6.295  10.244 -0.8135 -0.0884  0.0468
  100OSM    H4S10014   5.443   6.405  10.239 -2.1762 -0.1559  0.9265
  100OSM    C5S10015   5.550   6.243  10.162 -0.2046 -0.2816  0.4142
  100OSM    H5S10016   5.574   6.136  10.174 -1.6494 -0.6284  0.4993
  100OSM    C6S10017   5.633   6.336  10.072  0.0354 -0.6308 -1.0881
  100OSM    H6S10018   5.696   6.287   9.994 -0.9525 -2.2128 -0.9381
  100OSM    H6T10019   5.707   6.394  10.131 -0.2575 -1.6339  0.3064
  100OSM    C7S10020   5.533   6.417   9.995  0.2836 -0.0276 -0.3656
  100OSM    H7S10021   5.588   6.480   9.922  0.5613 -0.6906 -0.7360
  100OSM    H7T10022   5.465   6.478  10.058  0.6796  2.2808 -2.0591
  100OSM    C8S10023   5.429   6.351   9.899 -1.3462  0.4713 -0.3475
  100OSM    H8S10024   5.361   6.285   9.957 -0.4579 -1.4907 -1.4466
  100OSM    H8T10025   5.487   6.279   9.837  0.5067 -0.2080  2.0365
  100OSM    C9S10026   5.348   6.446   9.809  0.3773  0.6263  0.1837
  100OSM    H9S10027   5.408   6.539   9.794 -0.7845  1.4962  0.7647
  100OSM    H9T10028   5.259   6.476   9.867 -0.4983 -1.6864  0.1432
  100OSM   C10S10029   5.321   6.392   9.663 -0.0474  0.2407  0.4966
  100OSM   H10S10030   5.257   6.472   9.619  1.5072  1.8796  1.1182
  100OSM   H10T10031   5.266   6.295   9.665 -0.1686  0.3133  0.8155
  100OSM   C11S10032   5.451   6.379   9.578  0.4719 -0.3165  0.5443
  100OSM   H11S10033   5.499   6.283   9.609  1.7825  0.4237  0.8928
  100OSM   H11T10034   5.518   6.466   9.592  0.9977 -0.3641 -1.3930
  100OSM   C12S10035   5.414   6.379   9.426  0.4079  0.3342 -1.0646
  100OSM   H12S10036   5.377   6.477   9.389  0.0010  1.4281  1.9040
  100OSM   H12T10037   5.335   6.302   9.412 -0.1387  0.8766 -1.0235
  100OSM   C13S10038   5.535   6.332   9.350 -0.2140  0.0894  0.1457
  100OSM   H13S10039   5.573   6.248   9.412  0.2123  0.9428  1.0633
  100OSM   H13T10040   5.609   6.415   9.343 -1.5952  1.3923  0.5349
  100OSM   C14S10041   5.499   6.281   9.210  0.1786 -0.1092  0.4135
  100OSM   H14S10042   5.460   6.369   9.154  0.6929 -0.5269 -0.6434
  100OSM   H14T10043   5.416   6.209   9.224 -0.9117  1.1783  0.6822
  100OSM   C15S10044   5.612   6.223   9.134 -0.4681 -0.0586  0.3947
  100OSM   H15S10045   5.654   6.135   9.188  0.2426  0.7621  1.2138
  100OSM   H15T10046   5.695   6.296   9.140  0.0005 -0.6123  0.7546
  100OSM   C16S10047   5.592   6.196   8.986  0.1665 -0.0067 -0.1105
  100OSM   H16S10048   5.570   6.295   8.940  1.1377  1.7205  2.8406
  100OSM   H16T10049   5.499   6.138   8.965  0.1046 -0.5922  1.6073
  100OSM   C17S10050   5.722   6.141   8.917 -0.2356  0.0470 -0.6293
  100OSM   H17S10051   5.751   6.052   8.978 -0.7208  0.9681  1.0038
  100OSM   H17T10052   5.807   6.208   8.941 -1.4110  0.9482  1.2687
  100OSM   C18S10053   5.706   6.100   8.772  0.1819 -0.7459  0.2452
  100OSM   H18S10054   5.760   6.004   8.759  2.1479  0.1928  1.1703
  100OSM   H18T10055   5.753   6.181   8.712  3.2669 -0.3588  2.9301
  100OSM   H18U10056   5.597   6.088   8.752 -0.3094  0.0654  2.2233
  100OSM    C1F10057   5.087   6.182  10.103  0.2931  0.1721  1.0802
  100OSM     OF10058   4.989   6.247  10.127  0.5148  0.2253 -0.9914
  100OSM    C2F10059   5.088   6.105   9.978 -0.6334 -0.5254  0.4099
  100OSM    H2F10060   5.161   6.022   9.978  2.3809  1.8978 -2.2672
  100OSM    H2G10061   5.128   6.169   9.897 -0.2327 -0.1608  0.8948
  100OSM    C3F10062   4.957   6.042   9.944  0.5748  0.4174  0.6073
  100OSM    H3F10063   4.882   6.122   9.925 -0.0224  0.1377  1.7124
  100OSM    H3G10064   4.921   5.975  10.024  1.2295 -0.6319  0.0406
  100OSM    C4F10065   4.970   5.968   9.814  0.0322  0.1457  0.6443
  100OSM    H4F10066   4.875   5.924   9.776  1.5107  0.1408 -3.4819
  100OSM    H4G10067   5.031   5.879   9.840 -0.7175 -0.2830  0.9754
  100OSM    C5F10068   5.029   6.045   9.695 -0.1969  0.2720 -0.5795
  100OSM    H5F10069   5.134   6.074   9.718  0.0632 -1.1289  0.1489
  100OSM    H5G10070   4.974   6.137   9.666  1.9480  2.1430  0.9505
  100OSM    C6F10071   5.032   5.968   9.561  0.9264 -0.9222 -0.4834
  100OSM    H6F10072   4.931   5.933   9.529  0.2814 -1.5349  2.0320
  100OSM    H6G10073   5.086   5.872   9.574 -0.3943 -1.8370 -1.5360
  100OSM    C7F10074   5.109   6.035   9.440  0.2804 -0.2453  0.3672
  100OSM    H7F10075   5.208   6.069   9.479  0.2149  0.6352 -0.2014
  100OSM    H7G10076   5.056   6.131   9.423  0.1471 -0.3346  0.2770
  100OSM    C8F10077   5.123   5.954   9.309 -0.1608 -0.0092 -0.3351
  100OSM    H8F10078   5.129   5.845   9.329  0.6664 -0.2788 -1.8799
  100OSM    H8G10079   5.219   5.965   9.255  0.6659 -1.5929  0.7539
  100OSM    C9F10080   5.001   5.975   9.228  0.7944  0.7551  0.1758
  100OSM    H9F10081   4.905   5.931   9.258  0.2696  1.8861  0.1813
  100OSM   C10F10082   4.993   6.029   9.103 -0.4952  0.4974  0.2310
  100OSM   H10F10083   4.892   6.052   9.066 -0.5961 -2.6564 -1.7775
  100OSM   C11F10084   5.101   6.098   9.027  0.6212  0.3175 -0.4268
  100OSM   H11F10085   5.152   6.170   9.094  2.5510  1.3990 -2.8736
  100OSM   H11G10086   5.053   6.164   8.952 -2.1144  0.0077  0.9491
  100OSM   C12F10087   5.219   6.008   8.967 -0.4569 -0.2771 -0.4024
  100OSM   H12F10088   5.265   5.951   9.051 -0.6391 -1.8467 -1.3144
  100OSM   H12G10089   5.291   6.087   8.938 -0.4271 -0.7519 -1.7082
  100OSM   C13F10090   5.197   5.918   8.847  0.4842 -0.2313 -0.2173
  100OSM   H13F10091   5.115   5.953   8.782 -0.2708 -0.9975  0.2992
  100OSM   H13G10092   5.169   5.817   8.883 -0.5761  0.3709  0.7407
  100OSM   C14F10093   5.326   5.910   8.764  0.0608 -0.1610 -1.0392
  100OSM   H14F10094   5.406   5.861   8.823  0.2836 -1.2380 -2.1872
  100OSM   H14G10095   5.362   6.013   8.741 -0.0821 -0.0870 -0.9305
  100OSM   C15F10096   5.312   5.830   8.635  0.6679  0.4168 -0.4665
  100OSM   H15F10097   5.242   5.886   8.569 -0.2383 -0.4367 -0.2503
  100OSM   H15G10098   5.257   5.735   8.655  1.0359  0.5151  1.0871
  100OSM   C16F10099   5.433   5.795   8.556  0.1904 -0.2087 -0.7039
  100OSM   H16F10100   5.471   5.696   8.591  2.4909  0.3859 -1.3003
  100OSM   H16G10101   5.508   5.875   8.574 -0.6800  0.5973 -0.6253
  100OSM   C17F10102   5.417   5.779   8.406  0.3316 -0.6554 -0.1661
  100OSM   H17F10103   5.520   5.754   8.372  1.1904 -1.3862  2.6636
  100OSM   H17G10104   5.401   5.885   8.378  3.6108  0.8913  2.9058
  100OSM   C18F10105   5.311   5.686   8.360 -0.2004 -0.1567  0.3966
  100OSM   H18F10106   5.307   5.591   8.417 -1.8733 -0.9000 -0.8526
  100OSM   H18G10107   5.321   5.671   8.250 -1.1718  1.5516  0.0242
  100OSM   H18H10108   5.211   5.728   8.386 -1.4074 -2.3044 -0.4336
  101OSM      N10109   5.959   1.185  10.954 -0.3221  0.0732 -0.2455
  101OSM    C1510110   5.843   1.180  11.041  0.3905  0.1001  0.6749
  101OSM   H15A10111   5.762   1.219  10.981  0.3261  0.4024  0.9571
  101OSM   H15B10112   5.854   1.242  11.129 -2.6604 -0.4244  1.5431
  101OSM   H15C10113   5.812   1.082  11.072  1.5162 -0.7156 -0.6322
  101OSM    C1410114   6.066   1.096  11.015 -0.6356 -0.4167 -0.2825
  101OSM   H14A10115   6.122   1.129  11.102  1.6534 -1.9056 -1.0939
  101OSM   H14B10116   6.137   1.102  10.934 -1.6539 -0.8024 -1.2187
  101OSM   H14C10117   6.044   0.992  11.034  0.4249 -0.3847  1.3841
  101OSM    C1310118   5.909   1.139  10.815 -0.3376  0.5249 -0.5966
  101OSM   H13A10119   5.987   1.089  10.760  0.3300  0.6898  0.1795
  101OSM   H13B10120   5.880   1.218  10.748 -0.5265  1.0719  0.1220
  101OSM   H13C10121   5.834   1.063  10.832 -2.0066  1.5617 -2.7691
  101OSM    C1210122   6.007   1.324  10.942  0.3603 -0.4583 -0.2368
  101OSM   H12A10123   6.023   1.364  11.041  0.7652  0.1580 -0.5454
  101OSM   H12B10124   5.939   1.378  10.877  0.2044 -0.4574 -0.0737
  101OSM    C1110125   6.145   1.356  10.875 -0.1009  0.5507 -0.4901
  101OSM   H11A10126   6.227   1.310  10.934  0.1657  0.9650 -0.5360
  101OSM   H11B10127   6.153   1.467  10.874  0.8020  0.5072 -1.9704
  101OSM      P10128   6.256   1.220  10.673  0.1770  0.0041  0.3188
  101OSM    O1310129   6.258   1.097  10.754  0.0838  0.1376  0.8023
  101OSM    O1410130   6.213   1.203  10.532  0.0001  0.1802 -0.1501
  101OSM    O1110131   6.391   1.303  10.675  0.3448 -0.2841  0.3908
  101OSM    O1210132   6.154   1.326  10.735 -0.1461 -0.4314  0.0775
  101OSM    C1S10133   6.508   1.253  10.613 -0.7119  0.3827 -0.4837
  101OSM    H1S10134   6.518   1.143  10.629 -2.5827  0.1327 -0.8359
  101OSM    H1T10135   6.598   1.303  10.656  0.6807 -1.0675 -1.5537
  101OSM     NF10136   6.617   1.196  10.403  0.3751  0.0976  0.0625
  101OSM    HNF10137   6.695   1.246  10.367  0.5023 -0.6520 -0.7370
  101OSM    C2S10138   6.518   1.286  10.467 -0.0136  0.2446 -0.7469
  101OSM    H2S10139   6.419   1.276  10.417 -1.0123  4.1118  0.1588
  101OSM    C3S10140   6.549   1.440  10.448 -0.3601  0.1373  0.2561
  101OSM    H3S10141   6.645   1.461  10.499  1.2516 -0.1542 -2.4311
  101OSM     O310142   6.445   1.512  10.508  0.0603 -0.2865 -0.4448
  101OSM    HO310143   6.378   1.450  10.535  0.8077 -0.9194  0.0035
  101OSM    C4S10144   6.579   1.488  10.301 -0.8825 -0.2293  0.4996
  101OSM    H4S10145   6.504   1.443  10.234 -0.2519  2.0523 -1.9013
  101OSM    C5S10146   6.685   1.554  10.254  0.6085 -0.7064 -0.6013
  101OSM    H5S10147   6.769   1.588  10.315  1.4150 -1.1386 -1.4453
  101OSM    C6S10148   6.696   1.583  10.105 -0.0971  0.2445  0.5310
  101OSM    H6S10149   6.694   1.694  10.092  0.4312  0.3566  1.3495
  101OSM    H6T10150   6.614   1.542  10.042  0.8184  0.5786 -0.9214
  101OSM    C7S10151   6.827   1.519  10.047 -0.3164  0.2401  0.3312
  101OSM    H7S10152   6.820   1.412  10.073  0.2109 -0.6586 -2.7691
  101OSM    H7T10153   6.913   1.556  10.107 -0.7037  0.0031  1.0385
  101OSM    C8S10154   6.868   1.527   9.903  0.3540  0.7337 -0.8492
  101OSM    H8S10155   6.956   1.459   9.893 -0.6381 -0.8516  0.6159
  101OSM    H8T10156   6.893   1.633   9.880 -0.3558  1.5178  1.6991
  101OSM    C9S10157   6.762   1.489   9.797  0.1101  0.4618  0.3557
  101OSM    H9S10158   6.680   1.562   9.817  0.6478  0.7446  1.6190
  101OSM    H9T10159   6.734   1.385   9.826  0.7208 -0.0988 -1.0139
  101OSM   C10S10160   6.810   1.510   9.656 -0.5949  0.0100 -0.2218
  101OSM   H10S10161   6.897   1.444   9.633  0.6361  1.4623  0.0866
  101OSM   H10T10162   6.840   1.616   9.641  2.9931 -0.5037  2.1180
  101OSM   C11S10163   6.693   1.467   9.553 -0.3574 -0.2137 -0.2435
  101OSM   H11S10164   6.664   1.364   9.579 -1.0036  0.1437  0.4755
  101OSM   H11T10165   6.730   1.469   9.448  2.4360  2.3851  0.6482
  101OSM   C12S10166   6.577   1.572   9.557  0.1974  0.2627 -0.3653
  101OSM   H12S10167   6.605   1.668   9.511 -2.1481  1.1087 -0.1822
  101OSM   H12T10168   6.550   1.594   9.663  2.0487  1.1476 -0.0546
  101OSM   C13S10169   6.454   1.515   9.492 -0.0210  0.1225 -0.5007
  101OSM   H13S10170   6.362   1.545   9.547 -0.1107  1.0350 -1.1154
  101OSM   H13T10171   6.447   1.405   9.508  0.8523  0.3140  1.4808
  101OSM   C14S10172   6.456   1.541   9.335 -0.7432 -0.4583 -0.4761
  101OSM   H14S10173   6.551   1.496   9.300 -0.6254 -0.2003 -0.4961
  101OSM   H14T10174   6.458   1.651   9.319  0.3836  0.1658  3.0717
  101OSM   C15S10175   6.334   1.482   9.257 -0.1434 -0.2255  0.5575
  101OSM   H15S10176   6.239   1.531   9.286 -1.2118 -2.9686  2.0504
  101OSM   H15T10177   6.321   1.376   9.287  0.3657 -0.9041 -1.4238
  101OSM   C16S10178   6.344   1.499   9.107 -0.4721 -0.0851  0.2804
  101OSM   H16S10179   6.441   1.466   9.062 -1.2236 -1.0137 -0.7141
  101OSM   H16T10180   6.343   1.608   9.084  0.2367 -0.5630 -2.4193
  101OSM   C17S10181   6.222   1.441   9.028  0.1414  0.0410 -0.9139
  101OSM   H17S10182   6.132   1.468   9.088 -0.2204 -0.7090 -1.1148
  101OSM   H17T10183   6.225   1.332   9.046  1.2928  0.5478  2.9130
  101OSM   C18S10184   6.207   1.491   8.885  1.3437  0.3461  0.5860
  101OSM   H18S10185   6.116   1.452   8.834  1.5532 -0.0212  0.4891
  101OSM   H18T10186   6.295   1.448   8.833  0.5079  1.9217 -2.3297
  101OSM   H18U10187   6.219   1.601   8.883 -1.1089  0.6637  0.1908
  101OSM    C1F10188   6.613   1.061  10.397 -0.2636 -0.0586  0.3969
  101OSM     OF10189   6.512   1.004  10.434  0.0126 -0.0582 -0.0370
  101OSM    C2F10190   6.736   0.991  10.341 -0.3167 -0.1925 -0.6896
  101OSM    H2F10191   6.776   0.941  10.432 -0.0423  0.5042 -0.4124
  101OSM    H2G10192   6.816   1.059  10.305 -0.8107  0.0604 -1.3263
  101OSM    C3F10193   6.700   0.886  10.235  0.3656  0.2034  0.0895
  101OSM    H3F10194   6.663   0.939  10.145  2.8466  1.9921  0.0348
  101OSM    H3G10195   6.614   0.827  10.276 -3.0801  3.9267 -1.1440
  101OSM    C4F10196   6.819   0.790  10.202 -0.2476 -0.7873  0.4110
  101OSM    H4F10197   6.846   0.745  10.301  0.4059 -0.9441  0.1695
  101OSM    H4G10198   6.901   0.856  10.167 -0.7609  1.7696  3.5778
  101OSM    C5F10199   6.789   0.675  10.106 -0.4773 -0.2063  0.2615
  101OSM    H5F10200   6.861   0.593  10.128 -2.8623 -2.2362  0.9755
  101OSM    H5G10201   6.797   0.703   9.999 -1.2973  0.4894  0.3756
  101OSM    C6F10202   6.646   0.620  10.113 -0.2330  0.4668 -0.3934
  101OSM    H6F10203   6.616   0.602  10.219  2.4662  2.0119  0.7227
  101OSM    H6G10204   6.563   0.681  10.072 -1.0915 -0.5431 -0.2165
  101OSM    C7F10205   6.643   0.486  10.037 -0.8807  0.4630 -0.1150
  101OSM    H7F10206   6.728   0.430  10.080  1.2636  1.0927 -3.1969
  101OSM    H7G10207   6.678   0.515   9.935  2.2844  0.4908  0.8713
  101OSM    C8F10208   6.515   0.408  10.046  0.5322  0.5357 -0.8223
  101OSM    H8F10209   6.484   0.393  10.152 -1.3681  1.6683 -1.1770
  101OSM    H8G10210   6.539   0.303  10.017 -1.7755  0.5915 -3.3641
  101OSM    C9F10211   6.394   0.460   9.969 -0.1094  0.2567 -0.0437
  101OSM    H9F10212   6.359   0.551  10.020 -0.5280 -0.3084  0.6895
  101OSM   C10F10213   6.322   0.410   9.870  0.7276  0.2500  0.1848
  101OSM   H10F10214   6.232   0.470   9.849  0.4274  0.8726  2.9679
  101OSM   C11F10215   6.330   0.288   9.786 -0.3318  0.3570  0.8051
  101OSM   H11F10216   6.243   0.227   9.817 -0.6785  1.2504  1.6434
  101OSM   H11G10217   6.414   0.218   9.806  0.1818 -0.5584 -3.5609
  101OSM   C12F10218   6.309   0.311   9.634  0.2940 -0.2309 -0.3089
  101OSM   H12F10219   6.403   0.348   9.590  0.8573 -0.5111  0.6324
  101OSM   H12G10220   6.223   0.377   9.608  1.2482  1.0293 -0.3625
  101OSM   C13F10221   6.286   0.177   9.561 -0.1519  0.2707  0.1966
  101OSM   H13F10222   6.196   0.117   9.585 -1.0272  1.4925  0.0717
  101OSM   H13G10223   6.376   0.118   9.587  0.9742  1.6154 -0.5226
  101OSM   C14F10224   6.290   0.198   9.412 -0.2738 -0.2099 -0.4231
  101OSM   H14F10225   6.236   0.291   9.383 -1.1591 -0.6067 -0.0998
  101OSM   H14G10226   6.241   0.110   9.365 -0.1105 -0.1137 -0.7750
  101OSM   C15F10227   6.423   0.196   9.349 -0.6309  0.5518 -0.4479
  101OSM   H15F10228   6.477   0.101   9.366  0.2182  0.8646 -1.3069
  101OSM   H15G10229   6.478   0.283   9.392  2.1636 -1.4715  0.4000
  101OSM   C16F10230   6.427   0.228   9.201  0.8959  0.4373  0.4646
  101OSM   H16F10231   6.531   0.213   9.164  0.9224 -3.8017  1.7514
  101OSM   H16G10232   6.412   0.339   9.200  0.2919  0.3557  0.0860
  101OSM   C17F10233   6.326   0.158   9.113 -0.4837 -0.1271  0.5657
  101OSM   H17F10234   6.223   0.191   9.135 -0.1708  1.6354 -0.4415
  101OSM   H17G10235   6.326   0.054   9.151  0.4235 -0.3298  0.0422
  101OSM   C18F10236   6.351   0.153   8.960  0.3151 -1.1278 -0.0347
  101OSM   H18F10237   6.362   0.257   8.922 -1.4418 -0.1547  1.9200
  101OSM   H18G10238   6.272   0.104   8.900  0.1362 -0.1357 -0.6444
  101OSM   H18H10239   6.453   0.112   8.945  1.2387  0.9936  0.0108
  102OSM      N10240   5.170   2.553  10.762  0.4495  0.0733 -0.0153
  102OSM    C1510241   5.121   2.699  10.795  0.2595 -0.1554  0.4347
  102OSM   H15A10242   5.026   2.721  10.750  1.0746  1.3826 -0.6440
  102OSM   H15B10243   5.207   2.760  10.770  0.4586 -0.1681  1.0616
  102OSM   H15C10244   5.115   2.707  10.902  0.9417 -0.7498  0.5309
  102OSM    C1410245   5.303   2.526  10.811 -0.3096  0.1307  0.0159
  102OSM   H14A10246   5.311   2.478  10.908  1.3573  2.3094  1.0557
  102OSM   H14B10247   5.368   2.612  10.809  3.1476 -2.2170 -3.1656
  102OSM   H14C10248   5.354   2.459  10.744  0.2232 -2.6627  2.9334
  102OSM    C1310249   5.079   2.451  10.817 -0.2805 -0.2500  0.0453
  102OSM   H13A10250   4.980   2.461  10.775  0.5101  2.4184 -1.3977
  102OSM   H13B10251   5.082   2.454  10.925 -0.8084  0.3624  0.0437
  102OSM   H13C10252   5.114   2.350  10.798 -1.1318 -0.7994  1.2854
  102OSM    C1210253   5.170   2.558  10.605 -0.1032  0.3235  1.2316
  102OSM   H12A10254   5.243   2.628  10.568 -1.2233  0.2133 -1.3890
  102OSM   H12B10255   5.080   2.592  10.557 -0.2205 -1.6056 -0.0774
  102OSM    C1110256   5.207   2.422  10.535  0.0582  0.3063  0.4654
  102OSM   H11A10257   5.293   2.373  10.584 -0.1951  0.1579  0.7567
  102OSM   H11B10258   5.247   2.432  10.431 -0.3936  1.3830  0.3782
  102OSM      P10259   5.101   2.181  10.546  0.2527 -0.3328  0.0756
  102OSM    O1310260   5.231   2.127  10.496 -0.9379  0.2906 -0.3197
  102OSM    O1410261   5.072   2.145  10.689 -0.6062  0.4814  0.8970
  102OSM    O1110262   4.983   2.132  10.465 -0.2790  0.5212  0.5057
  102OSM    O1210263   5.093   2.337  10.521 -0.0450 -0.6014 -0.4953
  102OSM    C1S10264   4.972   2.170  10.327  0.5239 -0.6039 -0.3454
  102OSM    H1S10265   5.073   2.189  10.284 -0.1708  0.9237 -1.3559
  102OSM    H1T10266   4.913   2.263  10.315  0.1142 -0.6362  1.1280
  102OSM     NF10267   4.915   2.099  10.103  0.0401  0.0310  0.4286
  102OSM    HNF10268   4.836   2.147  10.066  0.5332  0.1526 -0.5185
  102OSM    C2S10269   4.911   2.057  10.240 -0.2694  0.0108 -0.6406
  102OSM    H2S10270   4.975   1.967  10.248 -0.1154  0.2092  0.6049
  102OSM    C3S10271   4.768   2.022  10.293  0.1799  0.2387  0.6275
  102OSM    H3S10272   4.698   2.108  10.285 -0.0847  0.1180  1.5029
  102OSM     O310273   4.759   1.963  10.427  0.4352 -0.5360  0.2965
  102OSM    HO310274   4.852   1.966  10.450  1.4242 -2.8093 -2.6811
  102OSM    C4S10275   4.710   1.913  10.208  0.6089  0.2967 -0.6892
  102OSM    H4S10276   4.785   1.834  10.192 -0.6026 -1.1460  0.5718
  102OSM    C5S10277   4.591   1.906  10.138 -0.6813  0.6058  0.0710
  102OSM    H5S10278   4.522   1.992  10.141 -2.8658 -1.0667  0.5920
  102OSM    C6S10279   4.556   1.783  10.052 -0.1275  0.0494  0.8280
  102OSM    H6S10280   4.473   1.725  10.097  0.2583 -0.7022  0.6010
  102OSM    H6T10281   4.650   1.724  10.043  1.5855  2.8903 -1.6004
  102OSM    C7S10282   4.516   1.803   9.907  0.1361  0.1459  0.5989
  102OSM    H7S10283   4.417   1.851   9.895  0.9991  2.0838  0.8817
  102OSM    H7T10284   4.519   1.704   9.856 -0.1970  0.8581 -0.8268
  102OSM    C8S10285   4.619   1.900   9.841  0.1750  0.1645 -0.7783
  102OSM    H8S10286   4.721   1.859   9.858 -0.7045 -2.0853 -0.5743
  102OSM    H8T10287   4.614   1.981   9.917 -1.5913 -1.8281  1.3352
  102OSM    C9S10288   4.591   1.937   9.692  0.4865 -0.5683  0.0578
  102OSM    H9S10289   4.489   1.980   9.687  0.9541  0.5415 -0.2134
  102OSM    H9T10290   4.578   1.842   9.636 -1.4765  1.0167 -2.4032
  102OSM   C10S10291   4.702   2.023   9.630 -0.4214  0.0282 -0.2544
  102OSM   H10S10292   4.801   1.991   9.669 -1.2519 -0.7125  1.3205
  102OSM   H10T10293   4.689   2.126   9.671 -1.1588  0.3988 -1.3665
  102OSM   C11S10294   4.683   2.035   9.477  0.1186 -0.5577  0.2026
  102OSM   H11S10295   4.575   2.058   9.465  0.3643 -0.1040 -1.2944
  102OSM   H11T10296   4.716   1.935   9.442  1.8654 -0.1085  0.4755
  102OSM   C12S10297   4.754   2.154   9.412 -0.2663  0.0993 -0.0873
  102OSM   H12S10298   4.863   2.153   9.433  0.0542  0.8916 -1.6402
  102OSM   H12T10299   4.709   2.241   9.464  0.2088  1.2827 -1.5876
  102OSM   C13S10300   4.732   2.156   9.265  0.3955  0.4145  0.1156
  102OSM   H13S10301   4.769   2.257   9.237  5.5871 -1.3075 -0.2886
  102OSM   H13T10302   4.624   2.143   9.240  0.1085  1.3443  0.8076
  102OSM   C14S10303   4.824   2.059   9.183  0.1350 -0.8622  0.7496
  102OSM   H14S10304   4.799   1.954   9.209  0.4082 -1.1038  0.0481
  102OSM   H14T10305   4.927   2.071   9.222  0.2433 -1.2716  0.5988
  102OSM   C15S10306   4.808   2.074   9.033  0.1892 -0.6492  0.2944
  102OSM   H15S10307   4.847   2.176   9.018  0.5230 -0.9791 -1.2833
  102OSM   H15T10308   4.702   2.075   9.001  0.0158  1.3662  0.7881
  102OSM   C16S10309   4.872   1.962   8.956 -0.2449  0.1156 -0.0085
  102OSM   H16S10310   4.833   1.862   8.983 -1.8933  0.2010 -1.8288
  102OSM   H16T10311   4.982   1.956   8.975 -0.1900 -0.9974 -0.5476
  102OSM   C17S10312   4.852   1.974   8.802  1.0100  0.6618  0.1838
  102OSM   H17S10313   4.908   2.061   8.762  0.8230  1.4534  1.5690
  102OSM   H17T10314   4.745   1.990   8.778  1.3846  0.9317 -1.4445
  102OSM   C18S10315   4.908   1.870   8.701 -0.1805  0.2498 -0.3080
  102OSM   H18S10316   4.848   1.782   8.732  2.2607 -1.2390  0.4141
  102OSM   H18T10317   5.016   1.848   8.712  0.0305  0.6877 -1.3353
  102OSM   H18U10318   4.880   1.890   8.595 -2.4652 -1.1139 -0.0298
  102OSM    C1F10319   5.023   2.104  10.019 -0.1842 -0.2598  0.5524
  102OSM     OF10320   5.132   2.078  10.056  0.0596  0.4150  0.0941
  102OSM    C2F10321   5.003   2.154   9.879 -1.0823  0.5724 -0.3655
  102OSM    H2F10322   4.933   2.240   9.888 -1.5248  0.1308  0.5839
  102OSM    H2G10323   4.959   2.066   9.827  1.1280 -1.8325  1.5520
  102OSM    C3F10324   5.139   2.199   9.804 -0.2649  1.0526 -0.3947
  102OSM    H3F10325   5.212   2.116   9.810  1.9772  2.9976  2.8571
  102OSM    H3G10326   5.195   2.279   9.857  1.8535 -0.6686  0.1224
  102OSM    C4F10327   5.115   2.243   9.663 -0.5031  0.5664  0.2187
  102OSM    H4F10328   5.044   2.329   9.660  0.2188  1.1519 -1.2745
  102OSM    H4G10329   5.067   2.162   9.605  1.1275 -1.0090  0.9630
  102OSM    C5F10330   5.241   2.280   9.584 -0.5450 -0.1891 -0.0693
  102OSM    H5F10331   5.308   2.193   9.570 -0.6299 -0.2919  0.1586
  102OSM    H5G10332   5.293   2.358   9.643 -1.2272 -1.8839  3.0023
  102OSM    C6F10333   5.215   2.340   9.447  0.0423  1.0328 -0.7207
  102OSM    H6F10334   5.311   2.388   9.420  0.0120  1.0060 -0.8756
  102OSM    H6G10335   5.136   2.417   9.461  0.3410  1.0675  1.1113
  102OSM    C7F10336   5.167   2.242   9.334 -1.2142 -0.2518  0.3746
  102OSM    H7F10337   5.064   2.202   9.341 -1.5345  0.2409 -1.1238
  102OSM    H7G10338   5.247   2.165   9.334  1.3320  2.1942 -0.7453
  102OSM    C8F10339   5.165   2.318   9.196 -0.6132  0.3473 -0.6427
  102OSM    H8F10340   5.137   2.239   9.123  0.0946 -0.3351 -0.1933
  102OSM    H8G10341   5.272   2.341   9.178  0.4375 -1.8211  2.0018
  102OSM    C9F10342   5.070   2.427   9.187 -0.2623  0.1828  0.6913
  102OSM    H9F10343   4.982   2.396   9.244 -1.5367  0.2165 -1.1496
  102OSM   C10F10344   5.082   2.546   9.118 -0.0862 -0.3428  0.1099
  102OSM   H10F10345   4.996   2.614   9.118  0.2213  0.0506  0.2938
  102OSM   C11F10346   5.195   2.592   9.031  0.2715  0.1885 -0.6619
  102OSM   H11F10347   5.297   2.553   9.055  1.7403  2.2090 -3.1155
  102OSM   H11G10348   5.220   2.699   9.049  2.1615 -0.5681  1.7295
  102OSM   C12F10349   5.177   2.567   8.882 -0.2277 -0.0473 -0.5109
  102OSM   H12F10350   5.267   2.600   8.825  0.8614 -0.8234  0.7097
  102OSM   H12G10351   5.092   2.626   8.842 -0.7972 -0.1546  0.5113
  102OSM   C13F10352   5.152   2.425   8.848  0.3226 -0.0213  0.4225
  102OSM   H13F10353   5.057   2.393   8.897  1.5603 -2.3875  1.4552
  102OSM   H13G10354   5.238   2.372   8.894 -2.1727 -1.8294  3.4624
  102OSM   C14F10355   5.129   2.396   8.697  0.0058  0.1821  0.2715
  102OSM   H14F10356   5.198   2.451   8.629  1.8677 -0.6059  1.4662
  102OSM   H14G10357   5.031   2.446   8.679 -0.4169 -1.0986 -1.1336
  102OSM   C15F10358   5.134   2.249   8.645  0.1679 -0.5474 -0.0072
  102OSM   H15F10359   5.075   2.189   8.718 -0.9606  0.8834  0.2976
  102OSM   H15G10360   5.238   2.210   8.643  0.2259 -0.4126 -1.8973
  102OSM   C16F10361   5.082   2.235   8.503  0.1446 -0.5325 -0.0258
  102OSM   H16F10362   5.135   2.309   8.440 -0.2406  1.0976  1.4885
  102OSM   H16G10363   4.977   2.269   8.491  0.2570 -0.3280 -0.4585
  102OSM   C17F10364   5.116   2.102   8.444  0.7070  1.1563  0.2531
  102OSM   H17F10365   5.084   2.014   8.503 -0.6847  0.3014 -1.6585
  102OSM   H17G10366   5.227   2.100   8.447  0.7510 -0.1015 -1.0332
  102OSM   C18F10367   5.067   2.089   8.295 -0.0824 -0.1601 -0.4278
  102OSM   H18F10368   5.077   1.980   8.280  0.1424 -0.1049 -0.6899
  102OSM   H18G10369   5.126   2.152   8.225  1.1046 -0.0072  0.6620
  102OSM   H18H10370   4.960   2.118   8.294 -0.4429 -1.3905  0.1054
  103OSM      N10371   3.141   5.410  10.871 -0.6652  0.1320  0.2520
  103OSM    C1510372   3.029   5.463  10.954 -1.0788  0.0713  0.4285
  103OSM   H15A10373   2.950   5.505  10.893 -0.6295 -0.8732 -0.8469
  103OSM   H15B10374   3.069   5.520  11.036  0.5536 -2.0748  1.1985
  103OSM   H15C10375   2.982   5.377  10.999  0.4347  0.0710  2.1082
  103OSM    C1410376   3.217   5.528  10.807 -0.4569  0.1047  0.5467
  103OSM   H14A10377   3.253   5.589  10.889  1.2293 -1.8815  1.3788
  103OSM   H14B10378   3.158   5.590  10.742 -1.2709 -2.9285 -1.8329
  103OSM   H14C10379   3.308   5.501  10.755 -1.2191 -1.5158 -0.0264
  103OSM    C1310380   3.236   5.324  10.953 -0.0072 -0.5428  0.3228
  103OSM   H13A10381   3.179   5.253  11.010 -0.4541 -0.8367 -0.4629
  103OSM   H13B10382   3.303   5.373  11.022 -0.3699 -1.5363  1.4064
  103OSM   H13C10383   3.298   5.265  10.887  0.7656  0.0785  0.4751
  103OSM    C1210384   3.098   5.323  10.762  0.0882 -0.0826  0.3133
  103OSM   H12A10385   3.177   5.288  10.697  0.0699 -3.6661  1.9720
  103OSM   H12B10386   3.021   5.366  10.699 -1.7649 -3.2111  0.1908
  103OSM    C1110387   3.036   5.182  10.801 -0.1438 -0.0778  0.5514
  103OSM   H11A10388   3.107   5.121  10.862 -0.2256 -1.3296 -0.5731
  103OSM   H11B10389   3.012   5.134  10.704 -1.2345 -2.2903  1.8427
  103OSM      P10390   2.776   5.219  10.818  0.3812  0.0347  0.1836
  103OSM    O1310391   2.689   5.119  10.875  0.1630  0.0757  0.4322
  103OSM    O1410392   2.745   5.359  10.835  0.3919  0.2058 -0.3823
  103OSM    O1110393   2.788   5.186  10.661 -0.2935  0.2383 -0.5041
  103OSM    O1210394   2.919   5.200  10.876  0.1191 -0.1548 -0.0231
  103OSM    C1S10395   2.756   5.294  10.576  0.0343 -0.1079  0.2144
  103OSM    H1S10396   2.818   5.384  10.596  0.3679 -0.4016  0.5436
  103OSM    H1T10397   2.649   5.319  10.566 -0.5730 -1.4744  2.4834
  103OSM     NF10398   2.765   5.380  10.348 -0.0496  0.7080 -0.0861
  103OSM    HNF10399   2.675   5.387  10.305  0.4054  1.1271 -0.9750
  103OSM    C2S10400   2.784   5.259  10.425  0.0980 -0.7405  0.7271
  103OSM    H2S10401   2.890   5.228  10.414  0.2512 -0.4444  1.3163
  103OSM    C3S10402   2.696   5.138  10.374 -0.0984 -0.7457 -0.1201
  103OSM    H3S10403   2.589   5.166  10.382  0.3679  1.4314 -0.9027
  103OSM     O310404   2.729   5.030  10.461  0.2908 -0.1213  0.1159
  103OSM    HO310405   2.783   5.077  10.526 -1.4172  1.1197  0.7165
  103OSM    C4S10406   2.728   5.090  10.233 -0.3168  0.4191 -0.0506
  103OSM    H4S10407   2.824   5.037  10.226 -1.6303 -1.9244 -3.0304
  103OSM    C5S10408   2.656   5.096  10.125 -0.2164  0.1563  0.5909
  103OSM    H5S10409   2.561   5.150  10.138 -1.1578 -1.0828 -0.7858
  103OSM    C6S10410   2.694   5.036   9.994 -0.2651  0.4153 -0.0682
  103OSM    H6S10411   2.634   4.944   9.976 -0.4872  0.7086 -0.8850
  103OSM    H6T10412   2.799   5.001   9.991 -0.6967 -1.4553  2.8138
  103OSM    C7S10413   2.673   5.138   9.873  0.5640  0.0207 -0.3497
  103OSM    H7S10414   2.720   5.233   9.906  2.4395 -0.5781 -1.0940
  103OSM    H7T10415   2.565   5.137   9.848  0.7105 -0.9468 -1.0056
  103OSM    C8S10416   2.754   5.109   9.752  0.5204 -0.1695  0.2318
  103OSM    H8S10417   2.725   5.019   9.693  1.4347 -0.9925  0.9983
  103OSM    H8T10418   2.861   5.091   9.778  0.8011  1.6513  0.4405
  103OSM    C9S10419   2.742   5.221   9.647 -0.7818 -0.3994 -0.7256
  103OSM    H9S10420   2.801   5.312   9.670  1.0599 -1.4516 -1.0611
  103OSM    H9T10421   2.637   5.255   9.638 -0.6065  0.2286 -0.4796
  103OSM   C10S10422   2.785   5.167   9.504 -0.7063 -0.2274 -0.9266
  103OSM   H10S10423   2.757   5.061   9.487  0.5428 -0.6188 -0.6441
  103OSM   H10T10424   2.894   5.152   9.512 -0.6514  0.4933 -0.2793
  103OSM   C11S10425   2.747   5.244   9.375  0.3721 -0.0144  0.6569
  103OSM   H11S10426   2.803   5.218   9.282 -1.8531 -1.2202 -0.4243
  103OSM   H11T10427   2.768   5.351   9.397  2.1996 -0.0644 -0.5854
  103OSM   C12S10428   2.606   5.216   9.338 -0.3551 -0.0263  0.3642
  103OSM   H12S10429   2.546   5.265   9.417  0.9417  1.6184  0.3760
  103OSM   H12T10430   2.603   5.105   9.335  1.5823 -0.1039 -0.8032
  103OSM   C13S10431   2.572   5.272   9.198 -0.4086 -0.2840  0.0364
  103OSM   H13S10432   2.640   5.224   9.125  1.3744  0.0413  1.4038
  103OSM   H13T10433   2.603   5.379   9.206  0.5206 -0.5135 -0.3126
  103OSM   C14S10434   2.424   5.266   9.153 -0.2048  0.1625  0.4080
  103OSM   H14S10435   2.365   5.308   9.237  0.8320 -0.0116  1.2366
  103OSM   H14T10436   2.379   5.165   9.145  2.0737 -0.8843  0.0581
  103OSM   C15S10437   2.393   5.353   9.031  0.1747  0.4648 -0.2674
  103OSM   H15S10438   2.283   5.352   9.015  0.2792  1.7932 -1.1737
  103OSM   H15T10439   2.449   5.312   8.945 -1.9743  0.6752 -1.8445
  103OSM   C16S10440   2.429   5.498   9.045 -0.3560  0.2705 -0.3859
  103OSM   H16S10441   2.539   5.516   9.048 -0.6334  2.2304  1.9156
  103OSM   H16T10442   2.379   5.530   9.139  1.4705 -1.9345  1.4518
  103OSM   C17S10443   2.371   5.609   8.953 -0.2573 -0.1444 -0.5971
  103OSM   H17S10444   2.262   5.613   8.977 -0.0084  0.8435  0.4508
  103OSM   H17T10445   2.387   5.585   8.846 -0.8542  2.5119 -1.3419
  103OSM   C18S10446   2.436   5.739   8.971 -0.0517 -0.4597  0.3283
  103OSM   H18S10447   2.389   5.810   8.898 -1.0089 -2.2000 -0.8109
  103OSM   H18T10448   2.543   5.743   8.944 -0.1658 -2.4229 -0.5265
  103OSM   H18U10449   2.421   5.773   9.075  0.3929 -0.7430  0.4840
  103OSM    C1F10450   2.845   5.489  10.351  1.0224 -0.5721  0.5582
  103OSM     OF10451   2.956   5.483  10.394 -0.0412  0.1113  0.3575
  103OSM    C2F10452   2.792   5.623  10.290 -0.3293  0.0871 -1.0542
  103OSM    H2F10453   2.818   5.704  10.362  2.4697 -2.7136  1.3702
  103OSM    H2G10454   2.681   5.613  10.283 -0.8150  2.8487  0.9862
  103OSM    C3F10455   2.854   5.641  10.157  0.0181  0.8558  0.2726
  103OSM    H3F10456   2.962   5.665  10.172 -0.0578  0.7846  0.9987
  103OSM    H3G10457   2.822   5.737  10.110  0.6135  0.7743 -0.3167
  103OSM    C4F10458   2.828   5.526  10.053 -0.7139 -0.1079 -0.4797
  103OSM    H4F10459   2.723   5.493  10.070 -1.0296  1.0950  0.0323
  103OSM    H4G10460   2.889   5.440  10.085 -1.2789  0.8346  3.7420
  103OSM    C5F10461   2.856   5.557   9.902  0.3337  0.2116 -0.1823
  103OSM    H5F10462   2.790   5.642   9.875  1.2094  0.9950  0.1096
  103OSM    H5G10463   2.828   5.468   9.840 -0.4655 -0.1280  0.6357
  103OSM    C6F10464   3.000   5.608   9.878 -0.6336 -0.0357  0.3586
  103OSM    H6F10465   3.076   5.531   9.901 -1.4028 -0.8091  0.3758
  103OSM    H6G10466   3.018   5.699   9.939 -0.7154  0.4289 -0.2996
  103OSM    C7F10467   3.029   5.642   9.731 -0.2905  0.2817  0.0008
  103OSM    H7F10468   2.949   5.715   9.704 -0.3806 -0.1946 -1.0983
  103OSM    H7G10469   3.034   5.556   9.661  3.0811 -0.1791  0.6491
  103OSM    C8F10470   3.163   5.722   9.706 -0.2575 -0.0870 -0.6253
  103OSM    H8F10471   3.171   5.805   9.779  1.3683 -2.4054  1.9966
  103OSM    H8G10472   3.152   5.769   9.606  0.3864  0.6654 -0.3541
  103OSM    C9F10473   3.290   5.642   9.734  0.2001 -0.6528 -0.6230
  103OSM    H9F10474   3.298   5.610   9.839 -1.6156 -1.5529 -0.7276
  103OSM   C10F10475   3.390   5.600   9.648 -0.0375 -0.2583  0.2271
  103OSM   H10F10476   3.473   5.538   9.685  0.9538  0.0761 -1.3483
  103OSM   C11F10477   3.394   5.639   9.498  1.0163  1.1285 -0.7159
  103OSM   H11F10478   3.492   5.691   9.484  2.5984 -1.1365  1.1639
  103OSM   H11G10479   3.312   5.704   9.460  0.6593  1.4773  0.6121
  103OSM   C12F10480   3.394   5.510   9.410  0.1345 -0.3829 -0.4993
  103OSM   H12F10481   3.290   5.470   9.413 -0.0381  0.1012  0.4857
  103OSM   H12G10482   3.461   5.431   9.451 -0.6382 -2.4795 -3.0150
  103OSM   C13F10483   3.426   5.536   9.263 -0.0775  0.0293  0.4083
  103OSM   H13F10484   3.535   5.558   9.258 -0.3688  1.6082  0.4103
  103OSM   H13G10485   3.368   5.628   9.243 -0.6938 -0.8172 -2.0470
  103OSM   C14F10486   3.384   5.425   9.165 -0.1057  0.2096 -0.6171
  103OSM   H14F10487   3.273   5.424   9.164 -0.1132 -1.2460 -0.8237
  103OSM   H14G10488   3.431   5.329   9.198  1.9838  1.4328  0.1799
  103OSM   C15F10489   3.440   5.440   9.025  0.4787 -0.4675  0.5674
  103OSM   H15F10490   3.427   5.347   8.965  1.3146 -1.1526  1.4181
  103OSM   H15G10491   3.549   5.459   9.033  0.4856 -1.1477  2.3606
  103OSM   C16F10492   3.379   5.558   8.956  0.5357 -0.0832 -0.1020
  103OSM   H16F10493   3.402   5.658   9.000  0.3119  0.6228 -1.5098
  103OSM   H16G10494   3.270   5.549   8.939  0.2171  2.1535  0.4351
  103OSM   C17F10495   3.434   5.563   8.812 -0.5404 -0.5705  0.0145
  103OSM   H17F10496   3.545   5.562   8.810 -0.5191 -2.0674  0.7535
  103OSM   H17G10497   3.382   5.653   8.772 -1.7474 -1.3472 -0.2155
  103OSM   C18F10498   3.383   5.453   8.720  0.2426  0.0129 -0.6806
  103OSM   H18F10499   3.453   5.369   8.742  0.2613  0.4400  1.0153
  103OSM   H18G10500   3.382   5.484   8.613  2.8114  0.6109 -0.6035
  103OSM   H18H10501   3.277   5.428   8.741 -0.2304  2.5775  0.2788
  104OSM      N10502   4.831   3.461  10.785  0.3417 -0.1697  0.3277
  104OSM    C1510503   4.928   3.530  10.868  0.0571  0.1175  0.1541
  104OSM   H15A10504   5.001   3.465  10.915  0.8221  0.6249 -0.3025
  104OSM   H15B10505   4.878   3.576  10.952 -0.5520  2.3369 -1.3423
  104OSM   H15C10506   4.987   3.607  10.820  0.3103 -0.1718  0.0002
  104OSM    C1410507   4.907   3.386  10.680 -0.0165  0.2239  0.7275
  104OSM   H14A10508   4.846   3.331  10.611  0.0351  1.5214 -0.3730
  104OSM   H14B10509   4.975   3.325  10.738 -0.2887 -0.2015  0.6035
  104OSM   H14C10510   4.964   3.446  10.611 -0.0098  0.0191  0.5553
  104OSM    C1310511   4.777   3.353  10.873  0.2668  0.3735  0.3874
  104OSM   H13A10512   4.707   3.293  10.816  0.7988 -0.2529  0.3758
  104OSM   H13B10513   4.722   3.384  10.961 -1.4721  2.8117 -1.4087
  104OSM   H13C10514   4.845   3.284  10.921 -1.9891 -2.5449 -0.2802
  104OSM    C1210515   4.721   3.556  10.725 -0.7335 -0.1088 -0.3759
  104OSM   H12A10516   4.661   3.593  10.807 -2.8456  0.1096 -1.9471
  104OSM   H12B10517   4.653   3.496  10.667 -2.3496  0.1239  1.1885
  104OSM    C1110518   4.769   3.672  10.638  0.6427  0.7562 -0.0168
  104OSM   H11A10519   4.675   3.706  10.590 -1.8048 -1.2095  3.0387
  104OSM   H11B10520   4.823   3.652  10.543  1.1496  2.4827 -0.1417
  104OSM      P10521   4.748   3.872  10.804 -0.2489  0.3131  0.0433
  104OSM    O1310522   4.649   3.795  10.885 -0.8240  0.6438  0.3672
  104OSM    O1410523   4.844   3.959  10.877 -0.2115  0.3749  0.2453
  104OSM    O1110524   4.673   3.956  10.694  0.4636  0.1416 -0.0850
  104OSM    O1210525   4.829   3.778  10.709 -0.0433  0.1400  0.1539
  104OSM    C1S10526   4.756   4.046  10.615  0.3070  0.3312  0.1385
  104OSM    H1S10527   4.863   4.032  10.643 -0.1253 -0.4304  1.4987
  104OSM    H1T10528   4.722   4.149  10.638  0.4704  0.3177  0.4468
  104OSM     NF10529   4.863   4.122  10.399  0.0227  1.2751 -0.3375
  104OSM    HNF10530   4.812   4.185  10.341 -0.8273 -0.2727 -1.3553
  104OSM    C2S10531   4.762   4.034  10.459  0.6383  0.5804 -0.5594
  104OSM    H2S10532   4.799   3.931  10.444  1.1022  0.3961  1.5179
  104OSM    C3S10533   4.615   4.040  10.396  0.0293  0.4778 -0.0340
  104OSM    H3S10534   4.571   4.141  10.409 -2.9053 -0.9493  2.2798
  104OSM     O310535   4.514   3.967  10.463  0.4280  0.1597 -0.0263
  104OSM    HO310536   4.561   3.944  10.544  0.6171  2.1653  0.4997
  104OSM    C4S10537   4.633   4.007  10.255 -0.2878  0.5390 -0.0210
  104OSM    H4S10538   4.630   4.097  10.192 -0.1370  1.3842  1.1359
  104OSM    C5S10539   4.645   3.883  10.193 -0.0033  0.7182 -0.7173
  104OSM    H5S10540   4.628   3.788  10.244 -1.3089  1.3818  0.1196
  104OSM    C6S10541   4.675   3.851  10.047  0.1889 -0.1109  0.3834
  104OSM    H6S10542   4.593   3.785  10.013 -1.7651  0.5577  3.4429
  104OSM    H6T10543   4.769   3.791  10.041 -0.0521 -0.5873  1.2090
  104OSM    C7S10544   4.679   3.977   9.958 -0.1561 -0.1546  0.1120
  104OSM    H7S10545   4.775   4.031   9.972 -0.1401 -0.2751  0.4655
  104OSM    H7T10546   4.595   4.044   9.983  0.1895  0.9830 -1.5609
  104OSM    C8S10547   4.677   3.946   9.804  0.2991  0.3870  0.0739
  104OSM    H8S10548   4.777   3.899   9.792  0.4432  0.4089  1.0761
  104OSM    H8T10549   4.680   4.040   9.745 -0.4254 -0.4911 -1.4353
  104OSM    C9S10550   4.560   3.876   9.746  0.2896  0.6082 -0.3661
  104OSM    H9S10551   4.488   3.871   9.830  1.8507  0.9715  1.0520
  104OSM    H9T10552   4.604   3.778   9.718  1.2552  0.0091  2.7980
  104OSM   C10S10553   4.493   3.959   9.639  0.3594 -0.2334 -0.1006
  104OSM   H10S10554   4.456   4.053   9.685  0.2217 -1.5214  2.6501
  104OSM   H10T10555   4.408   3.901   9.596 -0.6842  1.5929 -0.5777
  104OSM   C11S10556   4.572   3.996   9.514  0.5492 -0.1940 -0.1787
  104OSM   H11S10557   4.658   3.926   9.505  0.2570 -0.4698 -0.8933
  104OSM   H11T10558   4.617   4.096   9.531  0.1023 -0.0770  0.3281
  104OSM   C12S10559   4.497   3.979   9.373  0.7449 -0.4770 -0.7911
  104OSM   H12S10560   4.407   4.045   9.373  0.6834 -0.5612 -0.8945
  104OSM   H12T10561   4.455   3.877   9.383 -1.7349  0.4428 -1.1992
  104OSM   C13S10562   4.574   3.998   9.245 -0.7543 -0.2046 -0.4748
  104OSM   H13S10563   4.667   3.938   9.252 -0.5740 -0.2507 -2.7809
  104OSM   H13T10564   4.604   4.106   9.245 -0.0152 -0.3827 -1.9911
  104OSM   C14S10565   4.488   3.963   9.121 -0.1607 -0.5196  0.1198
  104OSM   H14S10566   4.386   4.006   9.134 -0.4946 -1.4879  0.8534
  104OSM   H14T10567   4.468   3.854   9.114  2.1745 -1.0316  0.5660
  104OSM   C15S10568   4.543   4.003   8.989  0.3701 -0.3912  0.1207
  104OSM   H15S10569   4.565   4.112   8.984  1.5677 -0.5698  1.0578
  104OSM   H15T10570   4.482   3.972   8.901  2.0822 -0.2086 -1.1939
  104OSM   C16S10571   4.661   3.923   8.956 -0.0386  0.4081 -0.1932
  104OSM   H16S10572   4.629   3.817   8.956  0.3958  0.2743 -0.3468
  104OSM   H16T10573   4.733   3.921   9.040 -1.4526 -0.5605  1.0539
  104OSM   C17S10574   4.743   3.950   8.816 -0.0218  0.0533 -0.1266
  104OSM   H17S10575   4.665   3.979   8.742  0.6299 -1.5629 -1.5105
  104OSM   H17T10576   4.795   3.863   8.771  0.8207  1.2035 -1.5073
  104OSM   C18S10577   4.856   4.059   8.833 -0.8390  0.1405 -0.4546
  104OSM   H18S10578   4.903   4.090   8.737 -0.6672  1.2005 -0.0296
  104OSM   H18T10579   4.945   4.014   8.883  0.0877 -0.9828 -2.9412
  104OSM   H18U10580   4.827   4.149   8.890 -0.5412  0.5677 -0.9705
  104OSM    C1F10581   4.992   4.126  10.434 -0.2802  0.1835 -0.4395
  104OSM     OF10582   5.035   4.036  10.505 -0.1844  0.9168  0.1309
  104OSM    C2F10583   5.077   4.242  10.385  0.1005  0.4543  0.6389
  104OSM    H2F10584   5.108   4.300  10.475  1.5208  0.2801  0.2863
  104OSM    H2G10585   5.018   4.314  10.324 -1.0330  0.1715  1.3772
  104OSM    C3F10586   5.213   4.206  10.315  0.6276 -0.5999 -0.8481
  104OSM    H3F10587   5.266   4.141  10.389 -1.0207 -0.3789  0.6033
  104OSM    H3G10588   5.256   4.308  10.302 -0.8111 -0.2408 -3.3461
  104OSM    C4F10589   5.198   4.159  10.169  0.5010 -0.4977  0.6080
  104OSM    H4F10590   5.299   4.175  10.124 -0.2701 -0.1690 -1.0643
  104OSM    H4G10591   5.119   4.220  10.122  2.2342  0.2954 -1.4182
  104OSM    C5F10592   5.165   4.017  10.164 -0.4036 -0.0360  0.3310
  104OSM    H5F10593   5.057   3.996  10.179 -1.1102  0.9795 -2.5028
  104OSM    H5G10594   5.223   3.965  10.243 -1.0609 -1.6456 -0.2044
  104OSM    C6F10595   5.201   3.951  10.029  0.2981  0.9476 -0.2031
  104OSM    H6F10596   5.149   3.854  10.045 -1.1987  1.6550 -0.6512
  104OSM    H6G10597   5.309   3.927  10.019  0.1498  0.6559 -1.1506
  104OSM    C7F10598   5.131   4.020   9.912  0.2246  0.5935 -0.2022
  104OSM    H7F10599   5.168   4.125   9.923  1.8118 -0.2024  5.0036
  104OSM    H7G10600   5.022   4.015   9.928  0.0607 -0.0096 -1.4121
  104OSM    C8F10601   5.165   3.955   9.778  0.8778  0.1098 -0.1408
  104OSM    H8F10602   5.120   3.854   9.776  2.8340 -0.9384  2.3742
  104OSM    H8G10603   5.276   3.949   9.779  0.8680 -0.4800 -1.2571
  104OSM    C9F10604   5.108   4.035   9.666 -0.1148  0.2604 -0.6484
  104OSM    H9F10605   5.103   4.143   9.690  1.1497 -0.0141  1.0240
  104OSM   C10F10606   5.063   3.992   9.549 -0.7483 -0.0365 -0.1454
  104OSM   H10F10607   5.049   4.067   9.470 -0.4793 -0.5143 -0.6546
  104OSM   C11F10608   5.064   3.843   9.506 -0.4711 -0.3471  0.1628
  104OSM   H11F10609   4.962   3.814   9.473  0.0140 -1.5418 -0.3433
  104OSM   H11G10610   5.088   3.772   9.588  0.2312 -2.3802 -1.6957
  104OSM   C12F10611   5.176   3.815   9.398 -0.3506 -0.1364 -0.3772
  104OSM   H12F10612   5.191   3.705   9.400  0.9670  0.0082  2.4154
  104OSM   H12G10613   5.268   3.862   9.438 -0.6612 -0.3184  0.5611
  104OSM   C13F10614   5.133   3.860   9.250 -0.5383 -0.3079 -0.0582
  104OSM   H13F10615   5.125   3.971   9.254  3.9927  0.2745 -1.3612
  104OSM   H13G10616   5.027   3.830   9.239 -1.2661  2.0446 -0.1375
  104OSM   C14F10617   5.231   3.822   9.148 -0.2932 -0.0864  0.4043
  104OSM   H14F10618   5.235   3.711   9.140  0.2754 -0.0756  0.5341
  104OSM   H14G10619   5.333   3.837   9.189  0.2788 -1.2934 -0.4910
  104OSM   C15F10620   5.194   3.889   9.018  0.0203  0.6102  0.6592
  104OSM   H15F10621   5.171   3.997   9.031  0.8298  1.1212 -1.5996
  104OSM   H15G10622   5.102   3.839   8.981  0.4412  0.0645  0.3311
  104OSM   C16F10623   5.304   3.881   8.908  0.1576  0.7993 -0.1269
  104OSM   H16F10624   5.334   3.774   8.915 -1.4334 -0.2640 -5.0745
  104OSM   H16G10625   5.392   3.946   8.924  0.3265  1.2960 -2.5900
  104OSM   C17F10626   5.249   3.907   8.765  0.1136  0.2063  0.6437
  104OSM   H17F10627   5.214   4.009   8.736 -0.6825 -0.1940  0.1436
  104OSM   H17G10628   5.155   3.850   8.750  1.9714 -2.3608 -2.5707
  104OSM   C18F10629   5.348   3.876   8.651 -0.9080 -0.7822 -0.5598
  104OSM   H18F10630   5.428   3.951   8.668 -2.5101  0.4077  2.3992
  104OSM   H18G10631   5.303   3.893   8.550  0.6640  2.7401 -0.8047
  104OSM   H18H10632   5.384   3.771   8.642 -2.5907 -1.4285 -0.2189
  105OSM      N10633   1.265   6.679  10.533  0.0947  0.3927  0.0599
  105OSM    C1510634   1.284   6.687  10.384  0.4147  0.1414  0.0753
  105OSM   H15A10635   1.274   6.595  10.329  0.7170  0.6229 -0.8116
  105OSM   H15B10636   1.381   6.728  10.360  0.6437 -0.5402 -0.1732
  105OSM   H15C10637   1.208   6.755  10.347  1.6691  1.1829 -0.6532
  105OSM    C1410638   1.386   6.606  10.583 -0.0234 -0.5593 -0.2630
  105OSM   H14A10639   1.475   6.664  10.561 -0.3983 -0.2376 -0.9714
  105OSM   H14B10640   1.395   6.506  10.542  1.4790 -0.0724 -1.2011
  105OSM   H14C10641   1.377   6.598  10.690 -0.3163 -0.7145 -0.2976
  105OSM    C1310642   1.287   6.817  10.586  0.0238  0.3596  0.3805
  105OSM   H13A10643   1.205   6.881  10.557 -1.6683 -2.6311 -2.1381
  105OSM   H13B10644   1.385   6.849  10.555  0.0679 -1.5910 -1.7798
  105OSM   H13C10645   1.288   6.806  10.694 -1.7377 -0.3412  0.3630
  105OSM    C1210646   1.128   6.619  10.575 -0.0897 -0.1977 -0.2179
  105OSM   H12A10647   1.130   6.593  10.680 -0.8911 -0.2747 -0.2170
  105OSM   H12B10648   1.121   6.528  10.517  2.4577 -1.4078  1.1912
  105OSM    C1110649   1.007   6.707  10.542  0.5430  0.1325  0.2364
  105OSM   H11A10650   0.911   6.651  10.547 -1.0897  2.8696  2.1744
  105OSM   H11B10651   1.017   6.737  10.436  1.0766 -1.1006 -0.0824
  105OSM      P10652   0.880   6.920  10.601 -0.0653  0.1904  0.1404
  105OSM    O1310653   0.823   6.967  10.732  0.1366  0.0521  0.0125
  105OSM    O1410654   0.932   7.028  10.517  0.2443  0.1635  0.3417
  105OSM    O1110655   0.782   6.828  10.533 -0.4091  0.6552 -0.3573
  105OSM    O1210656   1.003   6.821  10.621 -0.0131 -0.4535 -0.9268
  105OSM    C1S10657   0.659   6.877  10.480  0.1574  0.2380 -0.3117
  105OSM    H1S10658   0.590   6.908  10.561 -0.1258 -1.1699  0.0102
  105OSM    H1T10659   0.601   6.793  10.436 -3.0172  2.7558 -1.3473
  105OSM     NF10660   0.537   7.029  10.345  0.5814 -0.6911  0.3170
  105OSM    HNF10661   0.475   6.980  10.285  1.5267 -1.4449 -0.0689
  105OSM    C2S10662   0.669   6.984  10.365 -0.6353 -0.1664  0.7716
  105OSM    H2S10663   0.736   7.069  10.391 -0.2805 -0.2394  0.1195
  105OSM    C3S10664   0.737   6.931  10.237  0.4170  0.6401 -0.0183
  105OSM    H3S10665   0.692   6.835  10.206  1.0502 -0.1283  1.3130
  105OSM     O310666   0.870   6.900  10.248 -0.3836  0.8610 -0.1262
  105OSM    HO310667   0.892   6.892  10.341 -1.7710 -0.0498  0.1638
  105OSM    C4S10668   0.719   7.027  10.120  0.1340  0.3958 -0.0591
  105OSM    H4S10669   0.787   7.114  10.123 -0.0581  0.5925 -1.0963
  105OSM    C5S10670   0.642   7.005  10.011 -0.0526  0.0017  0.1416
  105OSM    H5S10671   0.584   6.912   9.999  2.0702 -1.2481 -0.9160
  105OSM    C6S10672   0.627   7.097   9.892 -0.0872 -0.0187  0.4983
  105OSM    H6S10673   0.675   7.196   9.902 -2.5724  1.2248  0.9770
  105OSM    H6T10674   0.517   7.117   9.887 -0.2934 -1.0593  0.5644
  105OSM    C7S10675   0.654   7.039   9.750  0.0226  0.2030  0.1301
  105OSM    H7S10676   0.610   6.940   9.724 -2.6840  1.4013 -0.2505
  105OSM    H7T10677   0.761   7.010   9.759 -0.9068 -3.4754  0.9642
  105OSM    C8S10678   0.636   7.142   9.639 -0.3899 -0.1513 -0.1368
  105OSM    H8S10679   0.688   7.239   9.654 -0.1367 -0.2329 -0.4783
  105OSM    H8T10680   0.528   7.166   9.632 -0.5003  0.2472  2.0579
  105OSM    C9S10681   0.666   7.086   9.499  0.5121 -0.6392  0.1775
  105OSM    H9S10682   0.775   7.069   9.492  0.5840  0.2777 -1.4649
  105OSM    H9T10683   0.652   7.160   9.417 -0.2180 -0.5997  0.3331
  105OSM   C10S10684   0.577   6.969   9.455 -0.1777  0.8787  0.0778
  105OSM   H10S10685   0.469   6.984   9.478 -0.6944  1.0580 -2.2133
  105OSM   H10T10686   0.609   6.885   9.521  0.0742  1.5450  0.8166
  105OSM   C11S10687   0.587   6.923   9.305  0.1231  0.1307  0.5088
  105OSM   H11S10688   0.525   6.831   9.295 -1.2641  1.2245 -1.3787
  105OSM   H11T10689   0.694   6.900   9.283  1.0429  0.5288  3.9652
  105OSM   C12S10690   0.544   7.023   9.199 -0.3454  0.0961 -0.2233
  105OSM   H12S10691   0.588   7.124   9.212 -0.1807  0.3070 -2.1059
  105OSM   H12T10692   0.434   7.037   9.208 -0.4081  0.8444 -1.7563
  105OSM   C13S10693   0.573   6.964   9.054  0.1512  0.6534 -0.6082
  105OSM   H13S10694   0.548   6.856   9.047 -0.3379  0.8437 -2.2181
  105OSM   H13T10695   0.683   6.955   9.052  0.3081  1.4509  1.7281
  105OSM   C14S10696   0.503   7.049   8.944 -0.0110  0.0190  0.2470
  105OSM   H14S10697   0.534   7.153   8.971  3.3426 -0.7032 -0.3889
  105OSM   H14T10698   0.392   7.050   8.942 -0.0436  1.2626 -1.9589
  105OSM   C15S10699   0.558   7.022   8.807 -0.2713 -0.1313  0.6261
  105OSM   H15S10700   0.559   6.912   8.791  0.3938 -0.0660  0.1963
  105OSM   H15T10701   0.663   7.057   8.797  0.4878 -2.1667  0.9588
  105OSM   C16S10702   0.470   7.096   8.702  0.0309 -0.0837  0.2920
  105OSM   H16S10703   0.459   7.202   8.734  1.5480 -0.2836  1.6231
  105OSM   H16T10704   0.368   7.055   8.715 -0.7940  1.5466 -0.6676
  105OSM   C17S10705   0.515   7.072   8.548  0.8736  0.3499 -0.8653
  105OSM   H17S10706   0.431   7.108   8.485  0.2651  1.9239  0.7468
  105OSM   H17T10707   0.531   6.963   8.537  0.5546  0.2833 -0.6833
  105OSM   C18S10708   0.643   7.137   8.513 -0.3809  0.3262 -0.5797
  105OSM   H18S10709   0.663   7.124   8.404  2.0586 -1.7000  0.0050
  105OSM   H18T10710   0.728   7.091   8.568 -1.4431 -0.6028  0.3148
  105OSM   H18U10711   0.639   7.247   8.532 -3.3963  1.1188 -4.4894
  105OSM    C1F10712   0.479   7.119  10.430  0.2176 -0.3477  0.6226
  105OSM     OF10713   0.544   7.168  10.524 -0.3164  0.7154  0.2048
  105OSM    C2F10714   0.337   7.162  10.403  0.4998  0.2500 -0.0616
  105OSM    H2F10715   0.261   7.114  10.469  0.1416  0.6694 -0.1647
  105OSM    H2G10716   0.306   7.136  10.300 -3.0984  0.2999  0.8518
  105OSM    C3F10717   0.314   7.321  10.414  0.0974  0.0383  0.0769
  105OSM    H3F10718   0.320   7.356  10.519  1.2681  2.4790 -0.7141
  105OSM    H3G10719   0.213   7.348  10.379  0.8463  0.9296 -1.5135
  105OSM    C4F10720   0.410   7.412  10.328 -0.1535 -0.3333 -0.1428
  105OSM    H4F10721   0.513   7.414  10.369  0.0446  0.9835 -0.6646
  105OSM    H4G10722   0.371   7.516  10.331  2.2667  0.6275 -0.3304
  105OSM    C5F10723   0.413   7.372  10.180 -0.6277  0.3713 -0.5475
  105OSM    H5F10724   0.312   7.344  10.144 -1.6194  1.7767  1.0194
  105OSM    H5G10725   0.481   7.284  10.169  0.2215  0.8520  0.6600
  105OSM    C6F10726   0.469   7.494  10.096 -0.3077  0.6813 -1.0579
  105OSM    H6F10727   0.557   7.543  10.143 -0.5475 -2.4708  3.3641
  105OSM    H6G10728   0.389   7.571  10.097 -0.7002  0.3386  1.2793
  105OSM    C7F10729   0.495   7.474   9.949  0.1288  0.2650 -0.0338
  105OSM    H7F10730   0.577   7.398   9.944 -0.3967 -0.5821  2.6105
  105OSM    H7G10731   0.536   7.568   9.908 -0.1078  0.7648  0.8522
  105OSM    C8F10732   0.390   7.416   9.854 -0.4474  0.4568 -1.1884
  105OSM    H8F10733   0.362   7.325   9.912  0.8268  2.1556  2.3913
  105OSM    H8G10734   0.445   7.390   9.761  3.4635  1.6655  0.5785
  105OSM    C9F10735   0.274   7.511   9.833 -0.3566  0.3332 -0.2985
  105OSM    H9F10736   0.230   7.554   9.924 -0.8195  0.4973 -0.5993
  105OSM   C10F10737   0.211   7.522   9.719  0.6547  0.4649  0.0158
  105OSM   H10F10738   0.132   7.598   9.713  1.0035  0.8490  0.2414
  105OSM   C11F10739   0.237   7.443   9.604  0.5633 -0.2995 -0.3940
  105OSM   H11F10740   0.135   7.409   9.575  0.2938  1.6671 -1.9602
  105OSM   H11G10741   0.288   7.346   9.626 -2.2469 -1.4733  1.4720
  105OSM   C12F10742   0.301   7.524   9.490  0.2877 -0.0838  0.1112
  105OSM   H12F10743   0.379   7.593   9.527 -0.1654  1.5923 -1.8867
  105OSM   H12G10744   0.226   7.595   9.451  1.5667  1.2234 -0.0472
  105OSM   C13F10745   0.345   7.446   9.366  0.1281  0.4546  0.3414
  105OSM   H13F10746   0.429   7.374   9.379 -0.2572  0.3176  2.2846
  105OSM   H13G10747   0.363   7.512   9.278 -1.7841 -0.0222 -0.4675
  105OSM   C14F10748   0.223   7.365   9.308 -0.2138  0.0300 -0.7629
  105OSM   H14F10749   0.133   7.424   9.336  0.5934  0.3337  1.3340
  105OSM   H14G10750   0.215   7.270   9.365  0.6797 -0.4826 -1.4744
  105OSM   C15F10751   0.222   7.345   9.154  0.4343 -0.1003 -0.0113
  105OSM   H15F10752   0.150   7.274   9.108 -0.1542  0.2374  0.3820
  105OSM   H15G10753   0.325   7.311   9.128  0.7654 -0.8773  2.1291
  105OSM   C16F10754   0.187   7.473   9.075  0.0869 -0.2117 -0.7081
  105OSM   H16F10755   0.278   7.536   9.084 -1.1545  1.5029  0.5369
  105OSM   H16G10756   0.097   7.522   9.117 -0.1017  2.0360 -3.4133
  105OSM   C17F10757   0.162   7.462   8.928  0.1460 -0.3676 -0.5431
  105OSM   H17F10758   0.121   7.558   8.890  0.2905  0.3073  0.9333
  105OSM   H17G10759   0.092   7.376   8.918 -0.8886  0.5435 -1.3700
  105OSM   C18F10760   0.289   7.422   8.856  0.0042 -0.4775  0.2597
  105OSM   H18F10761   0.277   7.426   8.746 -0.6646  1.2587  0.3566
  105OSM   H18G10762   0.323   7.325   8.898 -1.4932 -1.5410 -0.8942
  105OSM   H18H10763   0.374   7.494   8.866  2.0646 -2.6331 -0.9398
  106OSM      N10764   1.016   0.436  10.823  0.5058  0.3360 -0.0383
  106OSM    C1510765   0.945   0.345  10.913 -0.6110 -0.3767 -0.1221
  106OSM   H15A10766   0.998   0.286  10.987 -2.8259 -0.6478  1.3383
  106OSM   H15B10767   0.890   0.271  10.857  0.2386 -2.1778  1.3063
  106OSM   H15C10768   0.873   0.409  10.962 -0.0855 -1.0442  1.6040
  106OSM    C1410769   1.091   0.535  10.896 -0.1837  0.7553  1.0268
  106OSM   H14A10770   1.168   0.576  10.832  0.9359 -1.1990  1.0257
  106OSM   H14B10771   1.125   0.486  10.987 -2.2261 -3.9999 -0.4798
  106OSM   H14C10772   1.030   0.620  10.924 -1.3618  0.6101 -0.9639
  106OSM    C1310773   1.117   0.344  10.750 -0.4135  0.4716  0.1794
  106OSM   H13A10774   1.057   0.266  10.704  0.1662  0.2382 -0.1883
  106OSM   H13B10775   1.179   0.303  10.828 -0.3223 -0.1258 -0.2015
  106OSM   H13C10776   1.179   0.397  10.680  2.1303 -2.7124 -0.2343
  106OSM    C1210777   0.927   0.497  10.716 -0.1505  0.5481  1.1762
  106OSM   H12A10778   0.905   0.419  10.644  2.1065  1.8218 -1.0205
  106OSM   H12B10779   0.972   0.574  10.655  0.6705 -0.1550  0.8810
  106OSM    C1110780   0.794   0.559  10.763  1.2757 -1.1977 -0.0456
  106OSM   H11A10781   0.730   0.491  10.824 -0.1196 -0.4928 -0.6891
  106OSM   H11B10782   0.732   0.583  10.674  2.4527  0.9991 -0.3439
  106OSM      P10783   0.843   0.819  10.814 -0.3727  0.0360  0.1080
  106OSM    O1310784   0.722   0.890  10.861 -0.0772 -0.8264 -0.3709
  106OSM    O1410785   0.973   0.868  10.865  0.8268 -0.0696 -0.1337
  106OSM    O1110786   0.855   0.815  10.661 -0.1301 -0.1331  0.1247
  106OSM    O1210787   0.820   0.667  10.849  0.7067 -0.1488 -0.0312
  106OSM    C1S10788   0.927   0.913  10.596 -0.4319  0.5596 -0.4045
  106OSM    H1S10789   1.035   0.912  10.622  0.0928 -0.2983 -2.4086
  106OSM    H1T10790   0.876   1.009  10.619 -1.5366  0.5453 -2.5084
  106OSM     NF10791   1.011   1.003  10.391 -0.1010  0.0397 -0.0010
  106OSM    HNF10792   0.968   1.085  10.353  2.2336  0.7677 -1.2354
  106OSM    C2S10793   0.929   0.899  10.443 -0.5171 -0.3641 -0.2482
  106OSM    H2S10794   0.977   0.805  10.409  1.0355  0.8363 -1.5816
  106OSM    C3S10795   0.783   0.904  10.385  0.7141 -0.4203  0.2520
  106OSM    H3S10796   0.742   1.006  10.404 -0.0918 -0.7000  0.0665
  106OSM     O310797   0.696   0.815  10.449  0.4410  0.3416  0.0434
  106OSM    HO310798   0.756   0.798  10.523  2.4416  2.9886 -0.7915
  106OSM    C4S10799   0.780   0.876  10.233  0.0578  0.6028  0.1038
  106OSM    H4S10800   0.773   0.768  10.209 -1.9703  0.7467 -0.1561
  106OSM    C5S10801   0.773   0.968  10.136 -0.2637 -0.2682 -0.7405
  106OSM    H5S10802   0.796   1.073  10.155  2.2839 -0.3193 -3.0156
  106OSM    C6S10803   0.762   0.936   9.992  0.6369  0.0647 -0.4282
  106OSM    H6S10804   0.750   0.826   9.977  3.0094 -0.3616  0.4124
  106OSM    H6T10805   0.856   0.959   9.938  1.1496  1.8714  1.1225
  106OSM    C7S10806   0.639   1.005   9.923 -0.5796 -0.5855 -0.6855
  106OSM    H7S10807   0.629   1.111   9.954 -1.5142 -1.4969  2.5281
  106OSM    H7T10808   0.555   0.961   9.981 -0.1318  2.6021  2.7342
  106OSM    C8S10809   0.635   0.967   9.774  0.5375 -0.0561  0.1155
  106OSM    H8S10810   0.612   0.860   9.753 -1.9931  0.2334  1.0915
  106OSM    H8T10811   0.739   0.982   9.737  0.0203  1.5944 -0.7756
  106OSM    C9S10812   0.550   1.061   9.690 -0.6458 -0.7057  0.3684
  106OSM    H9S10813   0.576   1.165   9.717  0.6594 -1.5149  2.5296
  106OSM    H9T10814   0.442   1.056   9.716 -0.3495  0.3535  1.9216
  106OSM   C10S10815   0.573   1.039   9.539  0.1904 -0.3942  0.2993
  106OSM   H10S10816   0.491   1.089   9.483 -0.0914 -1.2814 -0.0906
  106OSM   H10T10817   0.566   0.932   9.511  1.3353  0.2914 -3.0383
  106OSM   C11S10818   0.707   1.106   9.478  0.4412  0.2669 -0.4196
  106OSM   H11S10819   0.790   1.069   9.542 -1.3375 -3.7022 -0.0801
  106OSM   H11T10820   0.695   1.216   9.487  0.4468  0.3013 -0.8263
  106OSM   C12S10821   0.713   1.090   9.331 -0.5518 -0.4545  0.0060
  106OSM   H12S10822   0.614   1.107   9.283 -0.2462 -2.8406 -1.6399
  106OSM   H12T10823   0.740   0.984   9.314 -2.5382 -1.0689  0.5315
  106OSM   C13S10824   0.813   1.189   9.275  0.7983  0.5287  0.0581
  106OSM   H13S10825   0.913   1.175   9.322  0.3481 -0.3728  0.7863
  106OSM   H13T10826   0.775   1.293   9.291  0.5207  0.2319  1.5382
  106OSM   C14S10827   0.832   1.169   9.122 -0.6894  0.6579  0.0488
  106OSM   H14S10828   0.733   1.191   9.075  0.2897 -0.1386 -2.5533
  106OSM   H14T10829   0.859   1.063   9.101 -0.0873  0.5955  1.0617
  106OSM   C15S10830   0.938   1.265   9.067 -0.2403  0.4205  0.0339
  106OSM   H15S10831   1.036   1.232   9.107  0.2345 -0.0836 -1.4687
  106OSM   H15T10832   0.914   1.367   9.102  0.3458 -0.0398  1.8687
  106OSM   C16S10833   0.948   1.245   8.919 -0.0598  0.1120 -0.0171
  106OSM   H16S10834   0.840   1.246   8.892  0.0960 -2.7543 -1.1276
  106OSM   H16T10835   0.991   1.147   8.890  1.4947  1.3130 -2.0279
  106OSM   C17S10836   1.034   1.350   8.853 -0.6478 -0.8781 -0.3600
  106OSM   H17S10837   1.112   1.389   8.922 -1.5277 -2.2797  1.5025
  106OSM   H17T10838   0.968   1.436   8.827  0.8177  0.5116  0.2928
  106OSM   C18S10839   1.101   1.308   8.724  0.3812 -0.4651 -0.6384
  106OSM   H18S10840   1.139   1.203   8.728 -0.0506 -0.6180 -0.4118
  106OSM   H18T10841   1.179   1.382   8.697 -1.9422  1.8027 -1.5647
  106OSM   H18U10842   1.024   1.302   8.644 -0.9278  0.7236  0.4883
  106OSM    C1F10843   1.147   1.009  10.401 -1.2084  0.1746 -0.0709
  106OSM     OF10844   1.212   0.911  10.441 -0.0295 -0.0560 -0.1021
  106OSM    C2F10845   1.212   1.130  10.351 -0.4576  0.4190 -0.4832
  106OSM    H2F10846   1.311   1.124  10.401 -1.1175  1.9761  1.1295
  106OSM    H2G10847   1.162   1.225  10.382  0.9912  0.1867  3.0169
  106OSM    C3F10848   1.228   1.120  10.192  0.4186 -0.8861 -0.1940
  106OSM    H3F10849   1.124   1.114  10.152  0.4968  0.7216 -0.7050
  106OSM    H3G10850   1.292   1.035  10.159  0.6443 -1.0341  0.6053
  106OSM    C4F10851   1.280   1.251  10.118  1.0469  1.4383  0.3075
  106OSM    H4F10852   1.375   1.271  10.172  0.8660 -0.4948  1.4639
  106OSM    H4G10853   1.212   1.337  10.135  0.2450  1.1491 -1.2458
  106OSM    C5F10854   1.325   1.218   9.972 -0.2404 -0.2128 -0.1231
  106OSM    H5F10855   1.361   1.112   9.971 -1.9312 -0.8323  0.3619
  106OSM    H5G10856   1.397   1.296   9.942  1.7945 -1.9369  0.0612
  106OSM    C6F10857   1.203   1.232   9.876  0.8616 -0.0482  0.5437
  106OSM    H6F10858   1.196   1.339   9.844 -0.2758 -0.6612 -1.4268
  106OSM    H6G10859   1.107   1.208   9.926 -0.0582  0.0272 -1.1220
  106OSM    C7F10860   1.203   1.137   9.753 -0.3664  0.3674 -0.0615
  106OSM    H7F10861   1.106   1.148   9.699  0.1691 -0.5044 -1.2399
  106OSM    H7G10862   1.200   1.033   9.791 -2.4755  0.3649 -0.0658
  106OSM    C8F10863   1.321   1.156   9.663 -0.3777  0.1638  0.6224
  106OSM    H8F10864   1.295   1.082   9.585 -1.4973  0.6793  0.4840
  106OSM    H8G10865   1.415   1.113   9.703 -0.4976 -1.1831 -0.4890
  106OSM    C9F10866   1.329   1.294   9.606  0.1047  0.2889 -0.0866
  106OSM    H9F10867   1.382   1.366   9.670 -0.5147  2.2969 -1.7173
  106OSM   C10F10868   1.274   1.345   9.494  0.1095 -0.2011  0.0875
  106OSM   H10F10869   1.284   1.453   9.478 -2.7942  0.3575  1.3120
  106OSM   C11F10870   1.190   1.265   9.398  0.2520  0.3044 -0.5031
  106OSM   H11F10871   1.117   1.326   9.340  0.0832 -0.7174 -1.3822
  106OSM   H11G10872   1.132   1.186   9.450 -0.7289  1.8251  0.8082
  106OSM   C12F10873   1.285   1.199   9.282  0.1840  0.0689 -0.4146
  106OSM   H12F10874   1.224   1.126   9.224  1.5912 -0.8747 -0.7724
  106OSM   H12G10875   1.358   1.135   9.337 -0.3154 -0.3856 -0.2756
  106OSM   C13F10876   1.341   1.303   9.185 -0.0867  0.1503  0.4685
  106OSM   H13F10877   1.422   1.362   9.233  1.3102  0.2303 -1.8411
  106OSM   H13G10878   1.255   1.365   9.151  0.8597  0.5980 -1.2002
  106OSM   C14F10879   1.409   1.239   9.064 -0.3531 -0.6639 -0.0833
  106OSM   H14F10880   1.333   1.176   9.013  0.5425 -1.1677 -0.8228
  106OSM   H14G10881   1.492   1.180   9.108 -0.9184 -1.4211 -0.0175
  106OSM   C15F10882   1.457   1.347   8.965 -0.0377  0.1723 -0.4417
  106OSM   H15F10883   1.548   1.404   8.993 -0.0979 -0.3701  0.9989
  106OSM   H15G10884   1.379   1.424   8.950 -0.7510 -0.3035  0.6839
  106OSM   C16F10885   1.483   1.288   8.830  0.3011  0.4438  0.4758
  106OSM   H16F10886   1.394   1.228   8.802  0.6404  0.3779 -0.5061
  106OSM   H16G10887   1.574   1.224   8.828  0.1898  0.3033 -0.3978
  106OSM   C17F10888   1.503   1.395   8.725  0.0417 -0.3627  0.1816
  106OSM   H17F10889   1.591   1.459   8.748  0.3651 -0.4101 -0.8646
  106OSM   H17G10890   1.416   1.465   8.721 -0.6999 -1.2457  0.6813
  106OSM   C18F10891   1.514   1.335   8.582  0.0206 -0.1531  0.0751
  106OSM   H18F10892   1.543   1.415   8.512  0.4952 -0.1088  0.3148
  106OSM   H18G10893   1.419   1.285   8.554 -0.2345 -0.3510  1.2163
  106OSM   H18H10894   1.594   1.258   8.578 -1.8984 -2.2881  0.5915
  107OSM      N10895   3.839   4.495  10.644  0.0702 -0.0287 -0.2697
  107OSM    C1510896   3.974   4.505  10.573  0.5745  0.1485  0.0550
  107OSM   H15A10897   3.999   4.597  10.523  1.0324 -1.5488 -3.0493
  107OSM   H15B10898   3.979   4.426  10.499 -2.6004  0.9519 -1.1966
  107OSM   H15C10899   4.050   4.482  10.646  0.0219  0.0627  0.6153
  107OSM    C1410900   3.733   4.513  10.539 -0.3364  0.3775  0.1997
  107OSM   H14A10901   3.750   4.604  10.483  4.0244 -0.6445 -0.5106
  107OSM   H14B10902   3.631   4.507  10.572 -0.0444 -1.6253  0.8698
  107OSM   H14C10903   3.752   4.445  10.457 -0.6618  2.4110 -1.6880
  107OSM    C1310904   3.822   4.353  10.698  0.3910 -0.4299  0.1672
  107OSM   H13A10905   3.727   4.340  10.748  0.7929 -1.9534  0.6081
  107OSM   H13B10906   3.900   4.314  10.762  0.8495 -0.8377 -0.6264
  107OSM   H13C10907   3.817   4.286  10.614  0.7167  0.7360 -0.8081
  107OSM    C1210908   3.823   4.600  10.757  0.1734  0.2207  0.9572
  107OSM   H12A10909   3.849   4.696  10.716 -0.5219 -0.4783 -1.2753
  107OSM   H12B10910   3.899   4.578  10.831  1.0014 -1.6925 -0.3893
  107OSM    C1110911   3.683   4.624  10.818  0.1303  0.3199  0.9918
  107OSM   H11A10912   3.687   4.656  10.924 -2.0800  1.8957  0.6723
  107OSM   H11B10913   3.629   4.527  10.817 -3.0940  2.0047  1.1191
  107OSM      P10914   3.611   4.854  10.732  0.3699 -0.2349  0.1058
  107OSM    O1310915   3.500   4.922  10.797  0.4597  0.2295  0.0728
  107OSM    O1410916   3.745   4.893  10.779  0.4137  0.0421  0.2895
  107OSM    O1110917   3.612   4.877  10.575  0.0736 -0.2180 -0.2907
  107OSM    O1210918   3.592   4.699  10.744  0.2860  0.2948  0.1965
  107OSM    C1S10919   3.485   4.867  10.501 -0.5916 -0.9151 -0.2775
  107OSM    H1S10920   3.416   4.946  10.536  1.5302  0.2255  1.6175
  107OSM    H1T10921   3.436   4.770  10.523  0.6880 -1.6432 -0.5378
  107OSM     NF10922   3.383   4.908  10.295 -0.0642  0.7923  0.0889
  107OSM    HNF10923   3.347   4.834  10.238 -3.5149  1.5631  1.0708
  107OSM    C2S10924   3.510   4.885  10.347 -0.2553 -0.0386 -0.8130
  107OSM    H2S10925   3.571   4.975  10.325  1.1850  0.0538  2.8937
  107OSM    C3S10926   3.587   4.768  10.284 -0.0794  0.7663  0.2086
  107OSM    H3S10927   3.540   4.678  10.330  2.5706  0.0314  1.6726
  107OSM     O310928   3.723   4.764  10.333 -0.0550 -0.0328  0.1096
  107OSM    HO310929   3.725   4.827  10.406 -0.4496  1.0545 -0.7908
  107OSM    C4S10930   3.586   4.764  10.135 -0.0512  0.1094  0.7872
  107OSM    H4S10931   3.636   4.853  10.093 -0.5964 -0.8222 -2.0381
  107OSM    C5S10932   3.524   4.676  10.052 -0.1772 -0.3941 -0.7229
  107OSM    H5S10933   3.466   4.590  10.090 -0.6988 -0.0231 -0.6698
  107OSM    C6S10934   3.509   4.681   9.902  0.2198 -0.6399 -0.3668
  107OSM    H6S10935   3.403   4.670   9.874  0.5677  1.5653 -2.8558
  107OSM    H6T10936   3.578   4.618   9.841  1.9061  1.7107 -1.0319
  107OSM    C7S10937   3.535   4.821   9.843 -0.0257 -0.3631 -0.0561
  107OSM    H7S10938   3.643   4.847   9.841  0.3184 -1.7247  0.1311
  107OSM    H7T10939   3.488   4.892   9.915 -0.8990  0.0371 -1.0069
  107OSM    C8S10940   3.463   4.854   9.714  0.3481  0.3251  1.0702
  107OSM    H8S10941   3.474   4.957   9.675  0.2619  0.2579  0.8643
  107OSM    H8T10942   3.353   4.852   9.730 -0.2692  0.3543 -2.3371
  107OSM    C9S10943   3.497   4.752   9.600  0.7711 -0.3658 -0.1673
  107OSM    H9S10944   3.468   4.645   9.613  0.0157 -0.1314  0.1430
  107OSM    H9T10945   3.605   4.760   9.576  0.6355  3.4317 -0.1470
  107OSM   C10S10946   3.427   4.793   9.467 -0.9866  0.4507  0.2373
  107OSM   H10S10947   3.436   4.903   9.457  0.5425  0.7018  3.1217
  107OSM   H10T10948   3.318   4.772   9.467 -0.7490 -0.9056  0.6870
  107OSM   C11S10949   3.488   4.706   9.345 -0.4381  0.0141  0.1144
  107OSM   H11S10950   3.490   4.605   9.390 -1.0899  0.1821  0.5297
  107OSM   H11T10951   3.592   4.743   9.338 -0.1229 -0.3765  2.0972
  107OSM   C12S10952   3.400   4.733   9.219 -0.3208  0.0657 -0.4004
  107OSM   H12S10953   3.402   4.841   9.193  0.8645  0.2809  0.5043
  107OSM   H12T10954   3.296   4.700   9.242 -0.8634  1.5149 -0.6488
  107OSM   C13S10955   3.441   4.633   9.105 -0.1944 -0.4138 -0.3094
  107OSM   H13S10956   3.444   4.533   9.152 -1.5678 -0.2633  0.1270
  107OSM   H13T10957   3.544   4.654   9.068  0.0117 -3.2403 -1.6094
  107OSM   C14S10958   3.336   4.608   8.994 -0.0665 -0.4768  0.4505
  107OSM   H14S10959   3.243   4.591   9.051  1.4049 -1.2699  2.7841
  107OSM   H14T10960   3.365   4.528   8.923  0.0669 -0.9065  0.9781
  107OSM   C15S10961   3.333   4.738   8.919 -0.2093  0.0976  0.7271
  107OSM   H15S10962   3.431   4.753   8.869 -0.3093 -0.4108  0.3615
  107OSM   H15T10963   3.302   4.820   8.987 -1.7278 -1.3500  1.8654
  107OSM   C16S10964   3.220   4.729   8.812  0.5789  0.1063  0.3071
  107OSM   H16S10965   3.128   4.695   8.864  1.3566 -2.5662  0.0953
  107OSM   H16T10966   3.246   4.641   8.749  0.9587 -0.5738  1.3835
  107OSM   C17S10967   3.213   4.851   8.723 -0.3424 -0.5704  0.6008
  107OSM   H17S10968   3.216   4.936   8.794 -0.5255  0.0596 -0.1303
  107OSM   H17T10969   3.121   4.849   8.661 -2.1914  3.0853  2.8741
  107OSM   C18S10970   3.335   4.866   8.627  0.2653  0.2456 -0.1782
  107OSM   H18S10971   3.361   4.770   8.578 -0.5061  0.7876 -1.7037
  107OSM   H18T10972   3.428   4.901   8.677  0.2069  0.4293 -0.1998
  107OSM   H18U10973   3.305   4.937   8.547 -0.5180  0.5867  0.3991
  107OSM    C1F10974   3.307   5.016  10.302  0.0312  0.2859  0.3423
  107OSM     OF10975   3.352   5.121  10.340  0.2986  0.2072 -0.6227
  107OSM    C2F10976   3.167   4.990  10.255 -0.3819  0.2353 -0.4227
  107OSM    H2F10977   3.095   4.977  10.339 -2.3641 -1.2506 -2.2261
  107OSM    H2G10978   3.158   4.887  10.215  0.6842  0.4220 -1.1823
  107OSM    C3F10979   3.121   5.095  10.148  0.2264 -0.0633  0.3028
  107OSM    H3F10980   3.091   5.189  10.199 -3.1643 -0.1162 -1.3050
  107OSM    H3G10981   3.029   5.042  10.113  0.6120 -1.3109  1.0953
  107OSM    C4F10982   3.204   5.124  10.027  0.0811 -0.1854 -0.4316
  107OSM    H4F10983   3.258   5.033   9.996  2.9107  1.0739  0.4155
  107OSM    H4G10984   3.283   5.201  10.042 -3.2828  3.3784  0.9748
  107OSM    C5F10985   3.126   5.179   9.914  0.1999  0.4318  0.2750
  107OSM    H5F10986   3.119   5.290   9.925 -3.2625  0.2214  1.3324
  107OSM    H5G10987   3.030   5.124   9.910  0.4422  0.0135 -3.3574
  107OSM    C6F10988   3.198   5.160   9.781  0.1729  0.2018  0.2770
  107OSM    H6F10989   3.189   5.052   9.758  0.6600  0.0488  0.7687
  107OSM    H6G10990   3.306   5.184   9.796  0.6084 -2.3462  1.8879
  107OSM    C7F10991   3.141   5.243   9.668 -0.3044 -0.4033  0.4186
  107OSM    H7F10992   3.150   5.351   9.691 -1.6518 -0.2020  0.1030
  107OSM    H7G10993   3.033   5.221   9.654 -0.1959 -0.8003  0.1902
  107OSM    C8F10994   3.211   5.207   9.534  0.1992  0.4305  0.1734
  107OSM    H8F10995   3.317   5.239   9.525  0.0999  0.1969 -3.1810
  107OSM    H8G10996   3.157   5.285   9.476 -0.0451  0.8373  0.9281
  107OSM    C9F10997   3.186   5.063   9.484  0.8753 -0.0327 -0.1060
  107OSM    H9F10998   3.187   4.980   9.557 -0.6321  1.0772  1.2588
  107OSM   C10F10999   3.175   5.021   9.352 -0.4098  0.1912 -0.0943
  107OSM   H10F11000   3.175   4.915   9.324 -1.0863  0.7410 -2.3802
  107OSM   C11F11001   3.189   5.106   9.232 -0.7821  0.2785 -0.2131
  107OSM   H11F11002   3.268   5.057   9.171 -2.0486  0.5516 -2.1802
  107OSM   H11G11003   3.223   5.207   9.263  2.5681 -1.2756  1.6930
  107OSM   C12F11004   3.065   5.114   9.130  0.8360  0.1132 -0.2183
  107OSM   H12F11005   2.967   5.096   9.179 -0.2019 -1.1811 -2.5923
  107OSM   H12G11006   3.069   5.027   9.061  1.6316  0.4585 -0.6200
  107OSM   C13F11007   3.060   5.250   9.048 -0.2665  0.2002 -0.1721
  107OSM   H13F11008   3.154   5.289   9.003 -0.5283 -0.0911 -0.9943
  107OSM   H13G11009   3.025   5.324   9.123 -1.7201 -0.7234  0.0883
  107OSM   C14F11010   2.945   5.238   8.951  0.1944  0.2155 -0.4959
  107OSM   H14F11011   2.897   5.337   8.939 -0.0791  0.4413  2.0178
  107OSM   H14G11012   2.868   5.173   8.998 -0.6544  0.5801 -1.3463
  107OSM   C15F11013   2.989   5.194   8.803  0.6380  0.8092 -0.1745
  107OSM   H15F11014   3.032   5.092   8.791 -0.0988  0.3062  1.2596
  107OSM   H15G11015   3.060   5.270   8.764  1.4836 -0.2251 -0.6869
  107OSM   C16F11016   2.865   5.193   8.708 -0.4152  0.3716 -0.7526
  107OSM   H16F11017   2.834   5.300   8.699 -3.5130 -0.3530  0.0917
  107OSM   H16G11018   2.779   5.142   8.755 -0.6036 -0.7384 -2.2193
  107OSM   C17F11019   2.889   5.127   8.563  0.5664 -0.0004  0.0514
  107OSM   H17F11020   2.908   5.020   8.584 -0.4830  0.0198  1.1966
  107OSM   H17G11021   2.977   5.180   8.521 -1.3039  4.4135  1.1080
  107OSM   C18F11022   2.770   5.148   8.470  0.9476  0.0388  0.6568
  107OSM   H18F11023   2.681   5.105   8.520  1.0536  0.4299  1.2062
  107OSM   H18G11024   2.792   5.097   8.374 -0.0090  1.3215 -0.2895
  107OSM   H18H11025   2.761   5.257   8.451 -0.6033  0.1365  1.7774
  108OSM      N11026   4.606   4.952  10.864 -0.2341 -0.4232 -0.5729
  108OSM    C1511027   4.640   4.831  10.952 -0.6884  0.3240  0.1001
  108OSM   H15A11028   4.611   4.735  10.912  1.6192 -1.1509  1.7345
  108OSM   H15B11029   4.583   4.833  11.043 -0.4815  1.8430  0.2354
  108OSM   H15C11030   4.745   4.827  10.979 -0.6124  2.2078  0.2618
  108OSM    C1411031   4.459   4.961  10.838  0.1090  0.1451 -0.2135
  108OSM   H14A11032   4.409   4.980  10.932  2.3011  2.3599  0.6217
  108OSM   H14B11033   4.417   4.870  10.799 -1.2673  0.9872 -0.7745
  108OSM   H14C11034   4.433   5.041  10.770  0.2375 -0.9959 -1.6728
  108OSM    C1311035   4.653   5.074  10.939  0.3549  0.1399 -0.0920
  108OSM   H13A11036   4.607   5.165  10.903 -1.4299 -1.6236 -2.6098
  108OSM   H13B11037   4.760   5.089  10.936 -0.0499  3.5604 -1.6547
  108OSM   H13C11038   4.618   5.073  11.041 -0.2752 -1.1648 -0.2874
  108OSM    C1211039   4.670   4.931  10.724  0.6685  0.8997 -0.5176
  108OSM   H12A11040   4.622   4.854  10.667  0.9561  1.9999 -2.3390
  108OSM   H12B11041   4.771   4.896  10.740  0.2569 -0.4802 -0.8743
  108OSM    C1111042   4.669   5.062  10.638 -0.7084 -0.2262 -0.1159
  108OSM   H11A11043   4.573   5.118  10.642 -0.8028 -0.4812  1.6212
  108OSM   H11B11044   4.683   5.041  10.529  2.0178  1.7267 -0.2545
  108OSM      P11045   4.882   5.211  10.580 -0.2450 -0.0811 -0.1589
  108OSM    O1311046   4.907   5.356  10.618  0.1265  0.1141  0.5493
  108OSM    O1411047   4.992   5.120  10.561 -0.1725  0.1298  0.3659
  108OSM    O1111048   4.804   5.215  10.441  0.0072 -0.5633 -0.3337
  108OSM    O1211049   4.780   5.147  10.681 -0.4973  0.3622 -0.4734
  108OSM    C1S11050   4.696   5.305  10.412 -0.0282  0.1046  0.0550
  108OSM    H1S11051   4.676   5.380  10.491 -1.4283  0.1236 -0.2773
  108OSM    H1T11052   4.596   5.255  10.411 -0.6373  1.2992 -0.8983
  108OSM     NF11053   4.614   5.480  10.248  0.1150  0.2966  0.0059
  108OSM    HNF11054   4.525   5.461  10.208 -0.3857  0.5463  0.9724
  108OSM    C2S11055   4.705   5.368  10.269 -0.1913 -0.2320  0.2962
  108OSM    H2S11056   4.812   5.397  10.264 -0.8166  2.3052  0.5645
  108OSM    C3S11057   4.686   5.251  10.163  0.0683 -0.9305 -0.0829
  108OSM    H3S11058   4.589   5.200  10.182  0.1276 -1.5403 -1.3426
  108OSM     O311059   4.774   5.138  10.179  0.2393 -0.2731 -0.1537
  108OSM    HO311060   4.804   5.134  10.270 -0.1407 -1.1828 -0.0663
  108OSM    C4S11061   4.702   5.307  10.026  0.0227  0.0677 -0.7196
  108OSM    H4S11062   4.806   5.330   9.999  1.1292  0.1366  3.0661
  108OSM    C5S11063   4.595   5.330   9.946 -0.5459  0.1580  0.3780
  108OSM    H5S11064   4.492   5.320   9.982 -1.9454 -0.4727 -3.3070
  108OSM    C6S11065   4.618   5.376   9.806  0.3187 -0.0903  0.5179
  108OSM    H6S11066   4.727   5.377   9.782  0.5733 -1.2863  1.5798
  108OSM    H6T11067   4.584   5.482   9.806 -0.8025 -0.3382 -2.7356
  108OSM    C7S11068   4.534   5.313   9.693 -0.1070 -0.1378  0.0703
  108OSM    H7S11069   4.429   5.296   9.722 -0.2634  1.5132  0.6067
  108OSM    H7T11070   4.567   5.208   9.676 -3.2787 -1.0098 -1.3705
  108OSM    C8S11071   4.550   5.386   9.560  0.2677 -0.0924 -0.1979
  108OSM    H8S11072   4.649   5.436   9.555 -0.5377  1.7287  1.0613
  108OSM    H8T11073   4.471   5.461   9.539  1.0639  1.1184  0.9635
  108OSM    C9S11074   4.548   5.287   9.439  0.3137 -0.7439  0.6117
  108OSM    H9S11075   4.440   5.264   9.431  0.3520 -1.0035  0.8393
  108OSM    H9T11076   4.610   5.196   9.450  1.1098 -0.7835 -3.0570
  108OSM   C10S11077   4.573   5.358   9.309  0.5569 -0.1137  0.0735
  108OSM   H10S11078   4.678   5.390   9.292  0.7121 -0.6622 -0.0309
  108OSM   H10T11079   4.518   5.454   9.302  1.6316  0.6540  1.4774
  108OSM   C11S11080   4.548   5.266   9.186  0.1368  0.4146 -0.3095
  108OSM   H11S11081   4.439   5.250   9.172  0.0889  0.9461 -0.5872
  108OSM   H11T11082   4.584   5.162   9.201 -1.2905 -0.1379 -0.6054
  108OSM   C12S11083   4.603   5.320   9.051  0.7676  0.4487 -1.2985
  108OSM   H12S11084   4.714   5.316   9.058  0.5987 -0.6372  2.2844
  108OSM   H12T11085   4.572   5.425   9.033 -2.2670  0.0384  0.8379
  108OSM   C13S11086   4.552   5.247   8.929  0.1527  1.1028 -0.7203
  108OSM   H13S11087   4.443   5.265   8.918  0.3315  1.5325 -1.9218
  108OSM   H13T11088   4.560   5.136   8.940 -1.2480  0.7545 -2.6326
  108OSM   C14S11089   4.627   5.286   8.802  0.6964  0.1218 -0.2688
  108OSM   H14S11090   4.732   5.252   8.811  0.3193 -0.9651  0.2167
  108OSM   H14T11091   4.641   5.396   8.810 -1.3525  0.4147 -0.1824
  108OSM   C15S11092   4.563   5.240   8.671  0.4643  0.4856  0.0228
  108OSM   H15S11093   4.585   5.324   8.602  1.6696  0.5629  0.4733
  108OSM   H15T11094   4.452   5.243   8.678  0.3208 -0.0804 -1.4804
  108OSM   C16S11095   4.615   5.100   8.626 -0.6262 -0.6119  0.4117
  108OSM   H16S11096   4.631   5.027   8.708  0.9044 -0.5560  0.1949
  108OSM   H16T11097   4.715   5.114   8.580 -1.6909 -0.2015 -1.9284
  108OSM   C17S11098   4.539   5.036   8.513  0.2198  0.1466  0.0970
  108OSM   H17S11099   4.548   5.104   8.425  1.5822  0.0631  0.1537
  108OSM   H17T11100   4.430   5.026   8.532  0.2331 -2.1543 -0.7522
  108OSM   C18S11101   4.579   4.890   8.477 -0.8306 -0.3372  0.0102
  108OSM   H18S11102   4.509   4.839   8.408 -2.9425  0.4501  1.4352
  108OSM   H18T11103   4.584   4.832   8.572 -1.2614  0.1343  0.3322
  108OSM   H18U11104   4.682   4.898   8.438 -0.9140 -0.3679 -0.2148
  108OSM    C1F11105   4.654   5.605  10.288  0.7189  0.4827 -0.3354
  108OSM     OF11106   4.761   5.624  10.350  0.5364  0.0263 -0.2253
  108OSM    C2F11107   4.551   5.713  10.274  0.2190  0.0170 -0.4056
  108OSM    H2F11108   4.539   5.756  10.376 -1.2965 -1.3641  0.0512
  108OSM    H2G11109   4.456   5.665  10.240  0.5423 -1.3437  0.5087
  108OSM    C3F11110   4.585   5.817  10.164  0.8627 -0.1511  0.2007
  108OSM    H3F11111   4.672   5.878  10.197  0.2903  1.9513 -1.9175
  108OSM    H3G11112   4.495   5.882  10.160  1.2813  0.4031 -0.2523
  108OSM    C4F11113   4.616   5.747  10.026 -0.9460 -0.2208 -0.5932
  108OSM    H4F11114   4.560   5.651  10.021 -2.5821  0.5923  0.6924
  108OSM    H4G11115   4.722   5.721  10.009 -0.4437  1.4884 -0.3036
  108OSM    C5F11116   4.572   5.837   9.914  0.2717  0.2757  0.2092
  108OSM    H5F11117   4.619   5.935   9.935  0.3039  0.0840  1.0821
  108OSM    H5G11118   4.463   5.846   9.934  0.3573  0.2425  0.7009
  108OSM    C6F11119   4.593   5.770   9.777  0.0920 -0.5967  0.1330
  108OSM    H6F11120   4.538   5.673   9.774  0.9037 -1.0490 -1.2769
  108OSM    H6G11121   4.701   5.746   9.770  0.4152  0.6988  0.4612
  108OSM    C7F11122   4.560   5.859   9.653 -0.3086 -0.8865  0.4362
  108OSM    H7F11123   4.632   5.941   9.635  0.4191 -1.5927  0.0258
  108OSM    H7G11124   4.467   5.916   9.672 -0.2092 -0.0445 -1.3713
  108OSM    C8F11125   4.563   5.783   9.522 -0.2517  0.2361 -0.6174
  108OSM    H8F11126   4.499   5.837   9.449 -0.0679  0.4045 -0.6514
  108OSM    H8G11127   4.515   5.683   9.532 -1.2231  0.6172 -1.2565
  108OSM    C9F11128   4.699   5.761   9.459  0.3375 -0.4012 -0.1909
  108OSM    H9F11129   4.780   5.791   9.527 -1.1970  2.0032  0.7208
  108OSM   C10F11130   4.722   5.722   9.334 -0.8565  0.5017  0.0580
  108OSM   H10F11131   4.821   5.716   9.286 -2.2620  0.5790 -3.1114
  108OSM   C11F11132   4.621   5.689   9.221  0.4977 -0.6671  0.1206
  108OSM   H11F11133   4.520   5.694   9.266  0.6444  1.4884  0.2782
  108OSM   H11G11134   4.627   5.581   9.194 -3.8426 -1.2292  0.7582
  108OSM   C12F11135   4.640   5.783   9.109  0.2047 -0.1330 -0.1913
  108OSM   H12F11136   4.624   5.885   9.150 -1.6433 -1.0361  1.4697
  108OSM   H12G11137   4.545   5.772   9.053 -1.7565  0.6135  2.7431
  108OSM   C13F11138   4.748   5.758   9.005  0.4356 -0.7791 -0.2581
  108OSM   H13F11139   4.746   5.648   8.989 -1.7731 -0.7961 -0.1564
  108OSM   H13G11140   4.849   5.791   9.037  0.6832 -3.2570  1.8332
  108OSM   C14F11141   4.717   5.835   8.876 -0.3193 -0.1532  0.2406
  108OSM   H14F11142   4.805   5.842   8.808  0.2245 -0.6499  0.8800
  108OSM   H14G11143   4.696   5.939   8.907  1.0599  0.2379 -0.0625
  108OSM   C15F11144   4.591   5.785   8.796  0.6364  0.4326 -0.9567
  108OSM   H15F11145   4.499   5.801   8.857  2.1567 -1.2980  1.9650
  108OSM   H15G11146   4.593   5.674   8.790 -2.1531  0.3489 -2.0611
  108OSM   C16F11147   4.584   5.844   8.659  0.2165  0.8655  0.5287
  108OSM   H16F11148   4.587   5.954   8.672 -1.0363  0.6933  2.6440
  108OSM   H16G11149   4.485   5.813   8.619  0.0596 -0.5314  1.9207
  108OSM   C17F11150   4.688   5.814   8.548  0.6609 -0.2152 -0.1307
  108OSM   H17F11151   4.792   5.814   8.588  0.2835  0.2669  0.8836
  108OSM   H17G11152   4.672   5.883   8.462 -2.1330 -0.7227 -0.1294
  108OSM   C18F11153   4.673   5.674   8.487  0.3394  0.1959 -0.0095
  108OSM   H18F11154   4.681   5.595   8.566 -0.0360  0.5952  0.4399
  108OSM   H18G11155   4.755   5.657   8.415  2.5313  0.9976  2.1785
  108OSM   H18H11156   4.578   5.669   8.429  0.9136  2.0220 -1.1777
  109OSM      N11157   6.165   3.350  10.825  0.2122 -0.1047  0.8151
  109OSM    C1511158   6.105   3.434  10.716 -0.1374 -0.1571 -0.0379
  109OSM   H15A11159   6.163   3.523  10.698  0.5391 -0.4282  0.7606
  109OSM   H15B11160   6.002   3.458  10.742 -0.2297  0.1173 -0.6414
  109OSM   H15C11161   6.108   3.382  10.621  0.2191  2.4085 -1.5094
  109OSM    C1411162   6.183   3.426  10.953  0.4442  0.2821  0.1893
  109OSM   H14A11163   6.259   3.501  10.937  0.8012 -0.2546 -0.7568
  109OSM   H14B11164   6.215   3.355  11.027 -0.3561  0.3250  0.5889
  109OSM   H14C11165   6.089   3.468  10.987 -1.9433 -2.1102 -2.7888
  109OSM    C1311166   6.060   3.254  10.875 -0.4331 -0.5002  0.0770
  109OSM   H13A11167   5.992   3.304  10.942  0.2311 -1.4717  1.5041
  109OSM   H13B11168   6.097   3.178  10.941 -1.9575 -2.2743 -0.9971
  109OSM   H13C11169   6.015   3.205  10.790  3.2128 -4.0190 -0.0964
  109OSM    C1211170   6.288   3.279  10.773 -0.5021  0.0118 -0.0386
  109OSM   H12A11171   6.355   3.354  10.733 -0.0640 -0.7200 -0.7037
  109OSM   H12B11172   6.262   3.202  10.702  0.1325  1.2125 -1.6419
  109OSM    C1111173   6.373   3.212  10.885  0.0895 -0.0925 -0.4386
  109OSM   H11A11174   6.405   3.280  10.967  1.5547 -1.0212 -0.2017
  109OSM   H11B11175   6.466   3.179  10.834 -0.6054 -2.4160 -0.2926
  109OSM      P11176   6.295   2.956  10.905 -0.1372  0.0624 -0.3975
  109OSM    O1311177   6.393   2.882  10.986  0.3197  0.2033 -0.5038
  109OSM    O1411178   6.155   2.912  10.918  0.2371  0.1461 -0.3825
  109OSM    O1111179   6.343   2.966  10.750 -0.5003 -0.4855  0.0527
  109OSM    O1211180   6.304   3.106  10.950 -0.3546 -0.5554 -0.2938
  109OSM    C1S11181   6.239   2.975  10.652 -0.4288  0.3672  0.1123
  109OSM    H1S11182   6.166   3.055  10.675  1.0009  2.1201 -1.1592
  109OSM    H1T11183   6.184   2.879  10.643  3.9082 -2.2576 -2.5603
  109OSM     NF11184   6.209   3.053  10.417  0.2542 -0.1772 -0.4011
  109OSM    HNF11185   6.148   2.995  10.363 -2.7969 -0.3383  2.8500
  109OSM    C2S11186   6.309   3.000  10.513  0.2981 -0.0737  0.4493
  109OSM    H2S11187   6.388   3.075  10.534  1.6734 -1.3029 -0.1130
  109OSM    C3S11188   6.378   2.878  10.462  1.0771  0.3973  0.3809
  109OSM    H3S11189   6.302   2.803  10.431  2.5718 -1.4882  1.0666
  109OSM     O311190   6.452   2.798  10.553  0.1098  0.2363  0.1253
  109OSM    HO311191   6.413   2.823  10.637  0.3007 -0.7954  0.5375
  109OSM    C4S11192   6.459   2.911  10.339 -0.2755  0.0935  0.1400
  109OSM    H4S11193   6.392   2.896  10.253 -3.3566 -0.9265  2.5399
  109OSM    C5S11194   6.587   2.948  10.323 -0.6315  0.2199  0.6479
  109OSM    H5S11195   6.662   2.927  10.401 -1.4763  0.1816  1.4657
  109OSM    C6S11196   6.641   2.973  10.181  0.1248 -0.3088  0.4192
  109OSM    H6S11197   6.694   2.881  10.149  2.7130  1.6571 -1.4296
  109OSM    H6T11198   6.717   3.054  10.169  0.3802 -0.6332 -0.1553
  109OSM    C7S11199   6.538   3.010  10.070  0.4823 -0.0443 -0.0168
  109OSM    H7S11200   6.488   3.096  10.120 -1.6331 -0.9879 -0.3925
  109OSM    H7T11201   6.458   2.935  10.052  0.5249  0.4535 -2.7887
  109OSM    C8S11202   6.609   3.056   9.942  0.3866 -0.0066 -0.1003
  109OSM    H8S11203   6.688   3.130   9.969 -0.8902  1.4922 -0.2846
  109OSM    H8T11204   6.537   3.110   9.877  0.7874 -0.8616 -1.2824
  109OSM    C9S11205   6.695   2.946   9.884 -0.2107  0.5146  0.6006
  109OSM    H9S11206   6.627   2.859   9.870  1.1710 -0.5625  0.4621
  109OSM    H9T11207   6.773   2.916   9.956 -0.5092  1.5045  1.3547
  109OSM   C10S11208   6.766   2.970   9.746  0.4237  0.3112  0.5474
  109OSM   H10S11209   6.803   2.874   9.707  0.6558  0.1950  1.0459
  109OSM   H10T11210   6.834   3.058   9.750 -1.1455  1.6473 -0.3455
  109OSM   C11S11211   6.670   3.006   9.637  0.5606  0.1511 -0.1197
  109OSM   H11S11212   6.625   3.107   9.638  0.1153 -0.0281 -0.9584
  109OSM   H11T11213   6.591   2.928   9.639  3.3382 -2.8629  0.1832
  109OSM   C12S11214   6.725   2.978   9.496  0.2584  0.9564  0.4110
  109OSM   H12S11215   6.737   2.868   9.489 -0.3325  0.9643 -1.4721
  109OSM   H12T11216   6.829   3.017   9.492  0.5578  0.3144  1.5549
  109OSM   C13S11217   6.642   3.017   9.370 -0.2883  0.4346  0.1056
  109OSM   H13S11218   6.627   3.126   9.378  0.2006  0.6035 -1.1039
  109OSM   H13T11219   6.544   2.966   9.379 -1.7112  3.2498  1.6767
  109OSM   C14S11220   6.693   2.978   9.233 -0.4968  0.4042  0.2109
  109OSM   H14S11221   6.606   3.000   9.168  0.2934  0.9390 -0.6917
  109OSM   H14T11222   6.712   2.869   9.223  2.3906  0.9867 -2.0308
  109OSM   C15S11223   6.808   3.061   9.177  0.1389  0.1450  0.1007
  109OSM   H15S11224   6.902   3.038   9.230 -0.9288 -1.1400  1.5306
  109OSM   H15T11225   6.772   3.162   9.208 -0.3949 -0.1119  0.3351
  109OSM   C16S11226   6.806   3.049   9.023 -0.0002  0.3357  0.1597
  109OSM   H16S11227   6.714   3.098   8.985  0.3077  0.0739 -0.9754
  109OSM   H16T11228   6.806   2.945   8.983  0.5536  0.5236 -0.3482
  109OSM   C17S11229   6.923   3.138   8.959 -0.4705  0.1511  0.7027
  109OSM   H17S11230   7.022   3.094   8.982 -1.3039 -0.3301  3.8714
  109OSM   H17T11231   6.928   3.237   9.011 -1.1342 -0.5024  2.0804
  109OSM   C18S11232   6.906   3.173   8.814 -0.5970  0.4400 -0.2449
  109OSM   H18S11233   6.921   3.082   8.752 -1.7218 -0.2408  0.4607
  109OSM   H18T11234   6.969   3.255   8.774  1.4131  0.0174  1.8307
  109OSM   H18U11235   6.801   3.202   8.792 -1.1541 -0.0117  1.6276
  109OSM    C1F11236   6.172   3.183  10.438  0.2160 -0.0031  0.0462
  109OSM     OF11237   6.244   3.263  10.497 -0.3118  0.2382  0.2981
  109OSM    C2F11238   6.044   3.230  10.371 -0.0670 -0.2413 -0.3927
  109OSM    H2F11239   5.977   3.248  10.458  1.1551 -0.2511  0.5792
  109OSM    H2G11240   6.002   3.150  10.307  3.8589 -1.5473 -1.6404
  109OSM    C3F11241   6.050   3.357  10.277 -0.5708  0.0434 -0.4594
  109OSM    H3F11242   6.071   3.316  10.176 -1.1395 -0.4827 -0.3712
  109OSM    H3G11243   6.137   3.415  10.314  0.3529 -0.3071 -1.9402
  109OSM    C4F11244   5.915   3.430  10.272  0.2061 -0.0848 -0.4754
  109OSM    H4F11245   5.873   3.432  10.375 -0.1408  0.3062 -0.6249
  109OSM    H4G11246   5.865   3.362  10.200  0.4134  0.2288 -0.9249
  109OSM    C5F11247   5.925   3.572  10.214  0.1194  0.4259  0.3738
  109OSM    H5F11248   5.997   3.628  10.279  0.2744  0.6590  0.0041
  109OSM    H5G11249   5.824   3.617  10.217 -2.3108 -4.4359 -0.1427
  109OSM    C6F11250   5.984   3.562  10.071  0.3667 -0.1843 -0.3302
  109OSM    H6F11251   5.926   3.484  10.017 -0.8117 -0.1252  0.8055
  109OSM    H6G11252   6.088   3.525  10.065  0.3394 -0.4389  0.6700
  109OSM    C7F11253   5.966   3.688   9.994 -0.3150 -0.1463  0.5730
  109OSM    H7F11254   5.985   3.764  10.072  0.7411 -2.3264  2.5545
  109OSM    H7G11255   5.859   3.696   9.964  0.0503 -0.5438 -0.9541
  109OSM    C8F11256   6.060   3.698   9.871  0.5601 -0.0953 -0.2283
  109OSM    H8F11257   6.067   3.598   9.823  1.2305  0.6974 -1.8652
  109OSM    H8G11258   6.160   3.721   9.915 -0.0779 -1.8759  2.4035
  109OSM    C9F11259   6.022   3.811   9.793  0.0403  0.3146 -0.1786
  109OSM    H9F11260   5.970   3.898   9.836  1.0436  1.6186 -1.5175
  109OSM   C10F11261   6.051   3.817   9.661  0.2074  0.0951 -0.1389
  109OSM   H10F11262   6.016   3.909   9.611 -1.0950  0.7030  1.8025
  109OSM   C11F11263   6.113   3.713   9.576  0.2721 -0.0230 -0.0495
  109OSM   H11F11264   6.074   3.613   9.605 -1.8766  0.7600 -0.0728
  109OSM   H11G11265   6.223   3.710   9.587  0.1186 -0.0321  1.9452
  109OSM   C12F11266   6.089   3.742   9.432  0.1193 -0.0986  0.3284
  109OSM   H12F11267   6.124   3.843   9.401 -1.4916 -0.0486 -1.5730
  109OSM   H12G11268   5.984   3.725   9.400  0.4395 -0.1023 -0.7909
  109OSM   C13F11269   6.157   3.636   9.340 -0.3107 -0.4938 -0.1391
  109OSM   H13F11270   6.159   3.535   9.387 -0.6851  0.0703  1.1327
  109OSM   H13G11271   6.263   3.667   9.334 -0.0302 -1.3166  0.5009
  109OSM   C14F11272   6.093   3.633   9.203  0.1890  0.5679  0.0452
  109OSM   H14F11273   6.081   3.738   9.169  0.1536  0.9632  1.2031
  109OSM   H14G11274   5.992   3.590   9.219  0.1605  0.5235 -0.2526
  109OSM   C15F11275   6.165   3.539   9.095  0.2725  0.0551 -0.1738
  109OSM   H15F11276   6.276   3.540   9.104  0.3813  1.0162 -1.3544
  109OSM   H15G11277   6.131   3.582   8.999  0.0237 -0.5329 -0.3526
  109OSM   C16F11278   6.105   3.394   9.101 -0.2071 -0.4795  0.3748
  109OSM   H16F11279   6.126   3.345   9.199 -0.8730 -2.2371 -0.3113
  109OSM   H16G11280   6.164   3.336   9.027  0.3585 -1.4422  1.5306
  109OSM   C17F11281   5.955   3.386   9.058  0.4249 -0.0130  0.1376
  109OSM   H17F11282   5.934   3.441   8.964  0.8642 -0.0577  0.0065
  109OSM   H17G11283   5.892   3.434   9.135  0.9046  1.5332 -0.3902
  109OSM   C18F11284   5.905   3.241   9.048 -0.1225  0.0905 -0.5532
  109OSM   H18F11285   5.943   3.201   8.952  0.5813 -0.1097 -0.1955
  109OSM   H18G11286   5.795   3.229   9.039 -0.3382  2.0367 -1.0471
  109OSM   H18H11287   5.959   3.178   9.122 -1.6506 -0.8585 -0.2057
  110OSM      N11288   0.789   3.507  10.937  0.3672  0.0643 -0.6223
  110OSM    C1511289   0.782   3.382  11.021 -0.7630 -0.4246 -0.2353
  110OSM   H15A11290   0.774   3.405  11.126  0.3390 -1.5791  0.1431
  110OSM   H15B11291   0.868   3.316  11.016 -1.7356 -2.0039  1.9761
  110OSM   H15C11292   0.690   3.329  10.999 -1.5864  0.5705  0.7128
  110OSM    C1411293   0.658   3.573  10.949  0.3672 -0.1331  0.1325
  110OSM   H14A11294   0.653   3.664  10.891  2.6531  0.4350  0.7181
  110OSM   H14B11295   0.625   3.596  11.050 -1.6641 -3.6862  0.4329
  110OSM   H14C11296   0.580   3.505  10.918 -2.0057  1.9266  1.2131
  110OSM    C1311297   0.896   3.602  10.984 -0.1400  0.3754  0.0304
  110OSM   H13A11298   0.909   3.687  10.919 -0.3249 -0.4895 -1.1618
  110OSM   H13B11299   0.994   3.557  10.985 -0.1034  0.4353 -0.5716
  110OSM   H13C11300   0.885   3.628  11.088  2.9450  1.6155  0.1366
  110OSM    C1211301   0.808   3.469  10.794 -0.4347 -0.1057  0.2808
  110OSM   H12A11302   0.824   3.561  10.740  0.7073 -0.7539 -0.5322
  110OSM   H12B11303   0.710   3.437  10.762 -1.3923  3.0135 -0.2626
  110OSM    C1111304   0.920   3.380  10.750  0.5309  0.6804  0.2027
  110OSM   H11A11305   0.925   3.379  10.639  3.2955 -1.3719  0.2407
  110OSM   H11B11306   0.893   3.277  10.785 -0.7490  0.9373  0.0238
  110OSM      P11307   1.148   3.339  10.895 -0.1429  0.5963  0.5259
  110OSM    O1311308   1.202   3.430  10.998 -0.1666 -0.1227 -0.8769
  110OSM    O1411309   1.077   3.219  10.946 -0.2236 -0.3217 -0.3042
  110OSM    O1111310   1.261   3.280  10.793 -0.3324 -0.3971 -0.4623
  110OSM    O1211311   1.046   3.420  10.801  0.4689 -0.1842 -0.0080
  110OSM    C1S11312   1.245   3.282  10.651  0.6379 -0.5539 -0.2644
  110OSM    H1S11313   1.244   3.386  10.611  0.0649 -0.5270 -0.1814
  110OSM    H1T11314   1.157   3.222  10.618  0.5351 -0.1674 -0.7021
  110OSM     NF11315   1.340   3.235  10.440  0.4420  0.0028 -0.2680
  110OSM    HNF11316   1.277   3.174  10.393 -0.7494  0.6941  0.4094
  110OSM    C2S11317   1.362   3.209  10.582 -0.2280 -0.6221 -0.6868
  110OSM    H2S11318   1.442   3.270  10.630 -0.1854 -1.2198  0.0147
  110OSM    C3S11319   1.387   3.062  10.614  0.4858 -0.5954 -0.3719
  110OSM    H3S11320   1.301   3.005  10.572 -0.7581  0.9803 -0.0600
  110OSM     O311321   1.389   3.051  10.757  0.1565 -0.1988  0.5301
  110OSM    HO311322   1.350   3.135  10.785 -0.1578 -0.7977  1.9774
  110OSM    C4S11323   1.509   2.999  10.566  0.1353  0.1854  0.5291
  110OSM    H4S11324   1.601   3.055  10.587  0.9077 -1.0133  0.4548
  110OSM    C5S11325   1.511   2.873  10.503 -0.1166 -0.7654 -0.2372
  110OSM    H5S11326   1.414   2.827  10.481  0.3658 -1.7844 -0.2978
  110OSM    C6S11327   1.639   2.810  10.451  0.0733 -0.6460  0.5366
  110OSM    H6S11328   1.635   2.701  10.468 -0.5998 -0.6032  0.7126
  110OSM    H6T11329   1.727   2.852  10.504 -0.2577 -0.3453  0.8621
  110OSM    C7S11330   1.650   2.849  10.298  0.0787 -0.2936  0.1559
  110OSM    H7S11331   1.570   2.802  10.237  1.1750 -0.7251 -0.9797
  110OSM    H7T11332   1.746   2.800  10.270  0.0243  0.1004 -0.7642
  110OSM    C8S11333   1.663   2.998  10.274 -0.2193 -0.3389  0.3445
  110OSM    H8S11334   1.746   3.044  10.332  0.0667  0.8819 -0.9630
  110OSM    H8T11335   1.570   3.047  10.310 -0.5612  0.1818 -1.1624
  110OSM    C9S11336   1.689   3.048  10.128 -0.4375  0.7104 -0.4392
  110OSM    H9S11337   1.740   2.973  10.063 -0.8566 -0.8208  0.9287
  110OSM    H9T11338   1.757   3.134  10.139  2.3959 -1.3625 -0.5291
  110OSM   C10S11339   1.559   3.092  10.061 -0.3949  0.6937  0.0097
  110OSM   H10S11340   1.578   3.152   9.969  0.0409  1.5509  0.6408
  110OSM   H10T11341   1.497   3.151  10.131  0.6099  1.1383  0.5492
  110OSM   C11S11342   1.464   2.975  10.022 -0.0485 -0.0751 -0.1401
  110OSM   H11S11343   1.425   2.913  10.105 -0.2174 -0.1401 -0.2668
  110OSM   H11T11344   1.513   2.907   9.949 -1.7394 -0.4785 -0.9551
  110OSM   C12S11345   1.333   3.037   9.950  0.1418 -0.8221  0.7454
  110OSM   H12S11346   1.367   3.093   9.860 -2.7814  2.5556  1.5074
  110OSM   H12T11347   1.293   3.120  10.014 -2.7820  1.0356 -3.0928
  110OSM   C13S11348   1.220   2.937   9.905  0.0923  0.1761  0.5406
  110OSM   H13S11349   1.120   2.957   9.947 -1.4599 -1.5595 -2.0528
  110OSM   H13T11350   1.253   2.839   9.944  0.2863  0.4531  1.0870
  110OSM   C14S11351   1.228   2.921   9.753  0.7789  0.1124  0.0396
  110OSM   H14S11352   1.337   2.921   9.730  0.6140  0.0025 -0.7736
  110OSM   H14T11353   1.187   3.012   9.706  1.3964 -0.3262 -1.4290
  110OSM   C15S11354   1.169   2.786   9.697  0.7386 -0.3560 -0.4194
  110OSM   H15S11355   1.058   2.786   9.708  0.5735  3.2409 -1.0029
  110OSM   H15T11356   1.202   2.694   9.750  2.1720  0.5439  0.2875
  110OSM   C16S11357   1.201   2.764   9.549 -0.4542  0.0322  0.1715
  110OSM   H16S11358   1.150   2.670   9.517 -0.8044  0.2565  0.0618
  110OSM   H16T11359   1.311   2.769   9.546 -0.4424  0.0551 -3.0086
  110OSM   C17S11360   1.149   2.860   9.441  0.2046  0.3409 -0.2274
  110OSM   H17S11361   1.177   2.957   9.489 -0.3447 -0.2410  1.3466
  110OSM   H17T11362   1.039   2.848   9.427 -0.0471 -0.3931  2.0091
  110OSM   C18S11363   1.230   2.855   9.316  0.0415 -0.3468  0.4658
  110OSM   H18S11364   1.173   2.920   9.246  0.6053 -0.1739  0.1605
  110OSM   H18T11365   1.229   2.750   9.279  0.1220 -0.4184  0.6650
  110OSM   H18U11366   1.336   2.885   9.324 -0.5086  1.3178  2.3131
  110OSM    C1F11367   1.383   3.348  10.380  0.4776 -0.9003  0.1111
  110OSM     OF11368   1.466   3.418  10.438  0.2978 -0.0789 -0.8321
  110OSM    C2F11369   1.319   3.381  10.249  0.7870 -0.8092  0.9911
  110OSM    H2F11370   1.223   3.431  10.272  0.7905 -0.1132 -0.3956
  110OSM    H2G11371   1.318   3.284  10.195 -0.6440  0.3206 -1.1848
  110OSM    C3F11372   1.403   3.480  10.170 -0.9101 -0.3540 -0.0430
  110OSM    H3F11373   1.508   3.454  10.144 -1.0134 -0.1774 -0.6602
  110OSM    H3G11374   1.398   3.577  10.224  0.3033 -0.1203 -0.3333
  110OSM    C4F11375   1.329   3.514  10.046 -0.3999  0.5223 -0.1220
  110OSM    H4F11376   1.243   3.582  10.065 -1.4419 -1.0795  1.1489
  110OSM    H4G11377   1.281   3.431   9.990 -2.6762  1.6309  0.0701
  110OSM    C5F11378   1.418   3.578   9.946 -1.0654 -0.6130  0.4213
  110OSM    H5F11379   1.494   3.501   9.921  0.4479  1.0396 -0.3079
  110OSM    H5G11380   1.472   3.663   9.992 -0.9909  0.2488 -1.1732
  110OSM    C6F11381   1.346   3.626   9.817  0.4761 -0.1813 -0.2066
  110OSM    H6F11382   1.422   3.669   9.748  1.3219  0.4844  1.0972
  110OSM    H6G11383   1.274   3.706   9.845 -0.9340 -1.4582 -0.0835
  110OSM    C7F11384   1.268   3.518   9.747 -0.0121 -0.8497 -0.7156
  110OSM    H7F11385   1.182   3.487   9.810  0.0722 -0.2662 -0.3026
  110OSM    H7G11386   1.336   3.432   9.729  0.5090 -0.9721  1.4803
  110OSM    C8F11387   1.211   3.567   9.613 -1.0472  0.0895  0.4308
  110OSM    H8F11388   1.156   3.662   9.630  0.3509  1.4515 -2.0573
  110OSM    H8G11389   1.120   3.507   9.594 -1.7895  0.9375  1.2452
  110OSM    C9F11390   1.300   3.601   9.495  0.0332 -0.6335  0.9502
  110OSM    H9F11391   1.367   3.688   9.509 -1.5256  0.9107 -0.6987
  110OSM   C10F11392   1.294   3.545   9.370  0.4007  0.1483 -0.2395
  110OSM   H10F11393   1.374   3.574   9.301  3.4545 -0.9399  2.5736
  110OSM   C11F11394   1.205   3.440   9.321 -0.2137  0.2294 -0.0316
  110OSM   H11F11395   1.137   3.389   9.393  0.4096 -2.3364 -1.1452
  110OSM   H11G11396   1.271   3.361   9.279  1.7681  1.7003  0.1655
  110OSM   C12F11397   1.104   3.489   9.208 -0.1415  0.6055 -1.0468
  110OSM   H12F11398   1.039   3.563   9.259  0.5191 -0.4761  1.5253
  110OSM   H12G11399   1.042   3.413   9.157  0.6996  0.3519 -1.7258
  110OSM   C13F11400   1.170   3.562   9.094 -0.1914 -0.0076  0.0324
  110OSM   H13F11401   1.257   3.505   9.054  1.8143  3.0463 -0.3226
  110OSM   H13G11402   1.216   3.659   9.124 -1.5236  1.2462 -1.7601
  110OSM   C14F11403   1.071   3.592   8.986 -0.6532 -0.4250  0.1823
  110OSM   H14F11404   0.979   3.628   9.038  0.1885  1.5060  0.4087
  110OSM   H14G11405   1.043   3.496   8.937 -3.4949 -0.2327  1.2565
  110OSM   C15F11406   1.120   3.688   8.880  0.7114 -0.1029  0.6717
  110OSM   H15F11407   1.202   3.638   8.824 -1.2153 -3.1690  0.3555
  110OSM   H15G11408   1.162   3.777   8.930 -1.0114  0.8952  0.4220
  110OSM   C16F11409   1.026   3.754   8.774  0.2666 -0.4455 -0.5189
  110OSM   H16F11410   1.079   3.825   8.707 -0.4987 -0.1745 -0.8467
  110OSM   H16G11411   0.954   3.815   8.833  2.2773  0.8826  0.6691
  110OSM   C17F11412   0.951   3.662   8.686  0.2665 -0.0617  0.4291
  110OSM   H17F11413   0.862   3.623   8.738 -1.3253  1.5270 -0.9645
  110OSM   H17G11414   1.020   3.582   8.653  0.3318  0.2472 -0.2066
  110OSM   C18F11415   0.898   3.734   8.558  0.0179  0.0615 -0.5920
  110OSM   H18F11416   0.866   3.663   8.478 -0.7201  0.0180 -0.2608
  110OSM   H18G11417   0.981   3.790   8.510  0.3380 -0.4669 -0.6644
  110OSM   H18H11418   0.807   3.794   8.577 -1.7692 -2.6220  0.0131
  111OSM      N11419   2.605   2.110  10.697  0.4294  0.0625  0.6080
  111OSM    C1511420   2.748   2.066  10.693 -0.2942 -0.3458 -0.5445
  111OSM   H15A11421   2.761   1.988  10.766 -2.7592 -1.8793 -1.6079
  111OSM   H15B11422   2.814   2.147  10.718 -2.2113  1.5557 -1.2928
  111OSM   H15C11423   2.772   2.015  10.601 -1.7911  1.4627 -2.0148
  111OSM    C1411424   2.573   2.179  10.827 -0.2510 -0.2964 -0.9500
  111OSM   H14A11425   2.626   2.273  10.835 -0.9317 -0.0530  1.4030
  111OSM   H14B11426   2.599   2.111  10.907  1.3252  1.6853  0.3266
  111OSM   H14C11427   2.469   2.201  10.842 -0.0415  0.3202 -0.3506
  111OSM    C1311428   2.589   2.225  10.598 -0.2838 -0.0748  0.0605
  111OSM   H13A11429   2.487   2.259  10.589  0.0638  1.2044  0.6297
  111OSM   H13B11430   2.630   2.201  10.501 -1.3413 -1.0401 -0.1614
  111OSM   H13C11431   2.652   2.308  10.627 -1.9793  1.7608 -1.1768
  111OSM    C1211432   2.507   1.991  10.673 -0.0627 -0.7149 -0.3538
  111OSM   H12A11433   2.504   1.971  10.567  1.5201 -0.6500 -0.4439
  111OSM   H12B11434   2.406   2.025  10.687 -0.1894 -0.5037 -1.6152
  111OSM    C1111435   2.532   1.859  10.748 -0.0111  0.2184 -0.0007
  111OSM   H11A11436   2.511   1.895  10.851 -0.5582  1.0875 -0.4089
  111OSM   H11B11437   2.635   1.818  10.738  0.2406  1.3564 -3.1023
  111OSM      P11438   2.442   1.663  10.590  0.0949  0.1676 -0.4438
  111OSM    O1311439   2.585   1.611  10.586  0.4305  0.0869  0.0468
  111OSM    O1411440   2.338   1.559  10.613 -0.0785  0.2624  0.0505
  111OSM    O1111441   2.406   1.743  10.463 -0.2955 -0.4226 -0.4972
  111OSM    O1211442   2.431   1.764  10.714 -0.0927 -0.4449  0.0738
  111OSM    C1S11443   2.276   1.818  10.458 -1.2518  0.2631 -0.2401
  111OSM    H1S11444   2.299   1.908  10.517 -0.7028 -1.3496  2.1384
  111OSM    H1T11445   2.195   1.776  10.520 -0.5093 -0.2578  0.4017
  111OSM     NF11446   2.129   1.942  10.321  0.2799 -0.1418  0.6053
  111OSM    HNF11447   2.038   1.914  10.293  0.1606 -0.1183  0.9644
  111OSM    C2S11448   2.238   1.850  10.316 -0.1241  0.5704  0.4206
  111OSM    H2S11449   2.325   1.902  10.270  0.5353 -1.4250 -0.6839
  111OSM    C3S11450   2.222   1.722  10.227  0.0126 -0.2766 -0.2616
  111OSM    H3S11451   2.141   1.656  10.266 -1.8142  0.9507 -1.7967
  111OSM     O311452   2.344   1.653  10.216  0.1811 -0.1173  0.1796
  111OSM    HO311453   2.382   1.699  10.290 -1.2867  1.7266 -0.1227
  111OSM    C4S11454   2.166   1.763  10.098 -0.4353 -0.0510  0.3417
  111OSM    H4S11455   2.059   1.738  10.098 -0.7231  0.8218  3.0162
  111OSM    C5S11456   2.224   1.816   9.993 -0.8632 -0.1913  0.3053
  111OSM    H5S11457   2.334   1.828   9.989 -0.5580 -2.8280 -1.3671
  111OSM    C6S11458   2.156   1.846   9.863 -0.2833  0.2925 -0.9371
  111OSM    H6S11459   2.162   1.955   9.842 -1.6373  0.5817  0.0203
  111OSM    H6T11460   2.047   1.825   9.873 -0.3314  1.0832  0.3798
  111OSM    C7S11461   2.206   1.750   9.756 -0.0684 -0.3957 -0.3049
  111OSM    H7S11462   2.191   1.642   9.779  1.0914 -0.3186  0.8811
  111OSM    H7T11463   2.313   1.770   9.736  1.0083 -3.2840  1.8331
  111OSM    C8S11464   2.132   1.782   9.629 -0.4074 -0.1549 -1.0054
  111OSM    H8S11465   2.121   1.892   9.621  0.9607 -0.0240 -1.3176
  111OSM    H8T11466   2.026   1.748   9.631 -0.5095  0.1711  0.2140
  111OSM    C9S11467   2.204   1.725   9.501  0.0484  0.2162  0.6664
  111OSM    H9S11468   2.190   1.615   9.511 -1.1992  0.4944  2.5060
  111OSM    H9T11469   2.308   1.765   9.505  0.5673 -0.3719 -3.1814
  111OSM   C10S11470   2.134   1.787   9.374  0.1119 -0.2550 -0.5251
  111OSM   H10S11471   2.134   1.898   9.377 -0.6179 -0.2754  1.4676
  111OSM   H10T11472   2.032   1.744   9.386  0.0937  0.1878  1.1103
  111OSM   C11S11473   2.198   1.746   9.242  0.6055  0.2846  0.3032
  111OSM   H11S11474   2.189   1.636   9.230  2.4753  0.0870  0.4182
  111OSM   H11T11475   2.309   1.761   9.243  0.7348  1.0349 -4.1774
  111OSM   C12S11476   2.142   1.802   9.122  0.4296 -0.3838  0.2827
  111OSM   H12S11477   2.149   1.912   9.114 -0.2374 -0.3440  0.1769
  111OSM   H12T11478   2.034   1.780   9.135  0.4705 -0.9936 -0.3700
  111OSM   C13S11479   2.200   1.729   8.997  0.1453  0.2438 -0.0534
  111OSM   H13S11480   2.181   1.621   9.018 -2.4225  0.8809  1.3191
  111OSM   H13T11481   2.309   1.745   9.005 -0.1854  1.9184  2.6609
  111OSM   C14S11482   2.146   1.770   8.862  0.4791 -0.0130  0.2687
  111OSM   H14S11483   2.036   1.783   8.859  0.3635 -0.9036  0.2669
  111OSM   H14T11484   2.170   1.689   8.789 -0.4526 -0.8242  0.8361
  111OSM   C15S11485   2.196   1.904   8.810  0.2800 -0.0707 -0.0909
  111OSM   H15S11486   2.193   1.967   8.902  1.0620 -1.2129  0.7406
  111OSM   H15T11487   2.125   1.945   8.735  1.9946 -1.0347 -2.3383
  111OSM   C16S11488   2.336   1.895   8.753 -0.0604 -0.1579 -0.1588
  111OSM   H16S11489   2.337   1.829   8.664  0.8778 -1.2320  0.6098
  111OSM   H16T11490   2.402   1.854   8.833 -1.6593  0.9357  1.7864
  111OSM   C17S11491   2.391   2.038   8.718  0.5257  0.7450 -0.7207
  111OSM   H17S11492   2.501   2.029   8.701  0.8620  3.3379 -0.4064
  111OSM   H17T11493   2.374   2.099   8.810  2.5367 -1.1657  1.0348
  111OSM   C18S11494   2.320   2.094   8.590 -0.4790  0.3620  0.5454
  111OSM   H18S11495   2.316   2.022   8.506 -4.0897 -2.1766  2.5581
  111OSM   H18T11496   2.354   2.199   8.583 -0.7255  0.5233  1.6168
  111OSM   H18U11497   2.211   2.099   8.611 -0.8572 -1.4459 -0.7807
  111OSM    C1F11498   2.148   2.073  10.356 -0.4592 -0.1817  0.5580
  111OSM     OF11499   2.253   2.121  10.385 -0.5047 -0.1276  0.2623
  111OSM    C2F11500   2.021   2.151  10.362 -0.1019 -0.5160 -0.0197
  111OSM    H2F11501   1.993   2.161  10.469 -1.6941  2.7992 -0.6194
  111OSM    H2G11502   1.939   2.107  10.301 -0.5031  2.3132 -1.7300
  111OSM    C3F11503   2.031   2.300  10.316 -0.1689  0.7526  1.0792
  111OSM    H3F11504   2.054   2.296  10.207 -0.6090 -0.4669  1.0159
  111OSM    H3G11505   2.111   2.344  10.379  1.0403 -0.7987  0.6836
  111OSM    C4F11506   1.889   2.370  10.336 -0.0446 -0.0709  0.2827
  111OSM    H4F11507   1.889   2.381  10.447  1.3880 -3.2393  0.7170
  111OSM    H4G11508   1.808   2.301  10.306  0.4030 -0.5617  0.1815
  111OSM    C5F11509   1.877   2.502  10.268 -0.0572 -0.0743 -0.0636
  111OSM    H5F11510   1.973   2.558  10.274 -0.2736  0.2614  0.3053
  111OSM    H5G11511   1.811   2.568  10.328  0.2392  0.3185 -0.1613
  111OSM    C6F11512   1.839   2.480  10.121  0.1701 -0.8418  0.3541
  111OSM    H6F11513   1.736   2.439  10.121  1.0256 -3.4348 -2.4785
  111OSM    H6G11514   1.897   2.397  10.075  0.0120 -1.0437  0.5216
  111OSM    C7F11515   1.853   2.590  10.025  0.1139 -0.0117 -0.0788
  111OSM    H7F11516   1.822   2.687  10.071 -1.3719 -0.6061  0.2238
  111OSM    H7G11517   1.786   2.583   9.936  1.9870 -0.7706 -1.4916
  111OSM    C8F11518   1.993   2.607   9.962  0.5747  0.8413 -0.6926
  111OSM    H8F11519   2.073   2.596  10.038  0.5278  1.0539 -0.6101
  111OSM    H8G11520   1.997   2.714   9.932  2.2690  1.4847  1.5360
  111OSM    C9F11521   2.020   2.507   9.851  0.6788  0.0316  0.2509
  111OSM    H9F11522   2.047   2.410   9.894  1.4763 -0.5272 -1.4504
  111OSM   C10F11523   2.052   2.533   9.726 -0.2059 -0.1966 -0.1699
  111OSM   H10F11524   2.072   2.440   9.670  3.4774  0.1948  0.2861
  111OSM   C11F11525   2.052   2.676   9.670 -0.1286 -0.6964 -0.1892
  111OSM   H11F11526   2.103   2.682   9.572 -1.3716  0.8674 -0.7900
  111OSM   H11G11527   2.108   2.735   9.746 -1.5488  1.0675 -0.4365
  111OSM   C12F11528   1.910   2.735   9.650  0.0526 -0.3295 -0.2477
  111OSM   H12F11529   1.833   2.697   9.720  0.1276 -2.0280 -1.0256
  111OSM   H12G11530   1.863   2.708   9.552 -0.7282 -2.2165  0.5886
  111OSM   C13F11531   1.900   2.891   9.660  0.4795  0.1725  0.0825
  111OSM   H13F11532   1.973   2.932   9.587 -0.9699 -0.1596 -1.6024
  111OSM   H13G11533   1.912   2.927   9.765  1.9184  2.4548 -0.7933
  111OSM   C14F11534   1.761   2.933   9.606  0.8024  0.1328 -0.4656
  111OSM   H14F11535   1.682   2.879   9.663 -0.2541  2.3593  0.2956
  111OSM   H14G11536   1.769   2.894   9.502  1.7435 -0.2593 -0.2585
  111OSM   C15F11537   1.747   3.079   9.609  0.8380 -0.0240  0.2901
  111OSM   H15F11538   1.821   3.134   9.546 -1.1301  1.5054 -0.8230
  111OSM   H15G11539   1.740   3.116   9.713  0.9228  1.1417 -0.1060
  111OSM   C16F11540   1.601   3.112   9.558  0.6952 -0.2650  0.2838
  111OSM   H16F11541   1.570   3.211   9.596 -1.6560 -1.5438  1.9595
  111OSM   H16G11542   1.528   3.035   9.591  0.1869  0.5279  1.0362
  111OSM   C17F11543   1.599   3.116   9.407 -0.5014  0.1985  0.3330
  111OSM   H17F11544   1.627   3.013   9.375  0.9332 -0.8829  4.4098
  111OSM   H17G11545   1.669   3.191   9.365 -1.5377  0.1091 -1.6516
  111OSM   C18F11546   1.464   3.162   9.352  0.1287 -0.0846 -0.3354
  111OSM   H18F11547   1.429   3.259   9.395  2.3486  0.5208  0.1996
  111OSM   H18G11548   1.391   3.082   9.380 -0.1148  0.5591  0.9606
  111OSM   H18H11549   1.475   3.168   9.242 -1.9512 -0.6157 -0.6210
  112OSM      N11550   4.423   4.137  10.888  0.0945  0.6674 -0.1844
  112OSM    C1511551   4.392   3.991  10.942  0.7657  0.2276 -0.3872
  112OSM   H15A11552   4.473   3.920  10.942  0.2612 -0.3932  0.8938
  112OSM   H15B11553   4.307   3.948  10.891  2.4356 -0.6081 -2.6009
  112OSM   H15C11554   4.361   4.008  11.044  0.4956  0.6839 -0.5381
  112OSM    C1411555   4.304   4.222  10.906  0.1670  0.1928  0.5737
  112OSM   H14A11556   4.221   4.201  10.841  2.1638  0.6944 -2.3335
  112OSM   H14B11557   4.327   4.327  10.891 -1.8404  0.5355 -0.3979
  112OSM   H14C11558   4.272   4.205  11.008  0.6282 -1.6698  0.4532
  112OSM    C1311559   4.540   4.190  10.970  0.4478  0.2050  0.8926
  112OSM   H13A11560   4.512   4.246  11.058 -2.3081  2.9871 -1.5201
  112OSM   H13B11561   4.600   4.247  10.901 -0.6683  1.3147  0.8055
  112OSM   H13C11562   4.591   4.107  11.016 -0.3266 -0.2415  0.9650
  112OSM    C1211563   4.459   4.140  10.741  0.3868  0.5441 -0.7424
  112OSM   H12A11564   4.378   4.094  10.687  0.9487 -1.5315  0.0918
  112OSM   H12B11565   4.547   4.081  10.720  2.2077  3.0467 -0.5945
  112OSM    C1111566   4.479   4.278  10.671  0.7041  0.3902 -0.4938
  112OSM   H11A11567   4.379   4.327  10.679  0.0383 -1.0720  0.7544
  112OSM   H11B11568   4.491   4.262  10.562 -1.4658  1.3966 -0.9553
  112OSM      P11569   4.591   4.487  10.741 -0.2428 -0.2076 -0.0940
  112OSM    O1311570   4.487   4.531  10.837 -0.4637  0.2434 -0.3415
  112OSM    O1411571   4.731   4.524  10.772 -0.0340  0.3266  0.2023
  112OSM    O1111572   4.557   4.539  10.599 -0.3772 -0.2715  0.4679
  112OSM    O1211573   4.591   4.338  10.725 -0.1436  0.3489  0.4635
  112OSM    C1S11574   4.639   4.513  10.485  0.4988 -0.0676  0.5213
  112OSM    H1S11575   4.599   4.413  10.456 -0.2448  0.1499  0.7678
  112OSM    H1T11576   4.748   4.508  10.504  0.6034 -0.6027 -0.1639
  112OSM     NF11577   4.737   4.571  10.272  0.5496 -0.5992 -0.1323
  112OSM    HNF11578   4.805   4.643  10.262  1.2043 -0.3097  4.3357
  112OSM    C2S11579   4.622   4.603  10.359 -0.3873 -0.1533  0.3062
  112OSM    H2S11580   4.523   4.584  10.312 -1.9895  2.6534  2.2253
  112OSM    C3S11581   4.606   4.756  10.404  0.2903  0.4445  0.2215
  112OSM    H3S11582   4.699   4.795  10.451 -0.1262  2.6534 -0.6813
  112OSM     O311583   4.502   4.781  10.497  0.0385  0.1848  0.2808
  112OSM    HO311584   4.513   4.705  10.554 -1.8675  0.4075  1.0200
  112OSM    C4S11585   4.598   4.840  10.279 -0.3027 -0.7315 -0.7122
  112OSM    H4S11586   4.698   4.870  10.244  0.1246 -2.5871 -1.2061
  112OSM    C5S11587   4.489   4.887  10.214  0.5371 -0.1065 -0.4928
  112OSM    H5S11588   4.389   4.868  10.254  0.3539 -0.7260 -1.2400
  112OSM    C6S11589   4.479   4.976  10.091  0.2378  0.0098 -0.9162
  112OSM    H6S11590   4.571   5.028  10.055  0.6056  0.4921  0.6428
  112OSM    H6T11591   4.404   5.055  10.111 -1.2439 -0.9180 -2.4794
  112OSM    C7S11592   4.415   4.898   9.975  0.6176 -0.0739  0.1180
  112OSM    H7S11593   4.325   4.846  10.013  2.3637 -3.0122  0.5405
  112OSM    H7T11594   4.477   4.812   9.941  1.4857 -1.4069  4.4679
  112OSM    C8S11595   4.386   4.991   9.851 -0.6999  0.4235  0.1659
  112OSM    H8S11596   4.482   5.045   9.835 -1.0807  0.9790 -0.2851
  112OSM    H8T11597   4.319   5.075   9.881 -2.1631  0.1216 -2.0887
  112OSM    C9S11598   4.344   4.911   9.732  0.4414  0.0423  0.0542
  112OSM    H9S11599   4.233   4.898   9.730  0.5741 -1.3373  0.3144
  112OSM    H9T11600   4.392   4.811   9.733  0.0607 -0.1412  0.8647
  112OSM   C10S11601   4.375   4.980   9.600 -0.3630  0.0835  0.2489
  112OSM   H10S11602   4.484   5.002   9.610 -0.7714  2.1125  0.6315
  112OSM   H10T11603   4.311   5.071   9.596 -0.9299 -0.2615  1.2046
  112OSM   C11S11604   4.348   4.893   9.478 -0.4215  0.1165  0.8857
  112OSM   H11S11605   4.247   4.848   9.484 -0.7089  0.2767 -1.7031
  112OSM   H11T11606   4.418   4.807   9.487  1.9706  1.8190 -0.4095
  112OSM   C12S11607   4.355   4.970   9.345  0.3023 -0.2240 -0.0842
  112OSM   H12S11608   4.459   5.001   9.324 -0.3423  1.0609 -1.5903
  112OSM   H12T11609   4.296   5.063   9.358  1.0468  0.2753 -0.2406
  112OSM   C13S11610   4.318   4.889   9.222  0.0496 -0.2243  0.4074
  112OSM   H13S11611   4.213   4.858   9.241 -0.0821 -0.3351 -0.4715
  112OSM   H13T11612   4.389   4.804   9.216  0.0307 -0.3911  2.0885
  112OSM   C14S11613   4.310   4.955   9.086  0.2712 -0.1592  0.0621
  112OSM   H14S11614   4.411   4.999   9.071  1.2028 -2.2974 -0.3011
  112OSM   H14T11615   4.242   5.042   9.093  1.0634  0.3845  1.1496
  112OSM   C15S11616   4.288   4.864   8.963  0.1138 -0.3852 -0.1839
  112OSM   H15S11617   4.185   4.823   8.970 -0.6362  1.5374  0.6080
  112OSM   H15T11618   4.349   4.771   8.969 -1.8496 -1.7070  0.4035
  112OSM   C16S11619   4.305   4.940   8.825 -0.4584 -0.1826  0.0694
  112OSM   H16S11620   4.413   4.963   8.812 -0.1215 -0.9003  1.3876
  112OSM   H16T11621   4.247   5.034   8.840 -0.2274 -0.2983  2.0664
  112OSM   C17S11622   4.254   4.847   8.706  0.0261 -0.4640 -0.5552
  112OSM   H17S11623   4.282   4.886   8.605  0.6943 -1.3577 -0.7364
  112OSM   H17T11624   4.143   4.842   8.710 -0.1135  2.1062  1.3498
  112OSM   C18S11625   4.319   4.708   8.705 -0.4916  0.3513 -0.2484
  112OSM   H18S11626   4.427   4.732   8.696 -1.1859  3.0468 -3.0243
  112OSM   H18T11627   4.284   4.648   8.619 -0.7522  0.6721 -0.3659
  112OSM   H18U11628   4.284   4.656   8.797  0.5094 -2.4049 -1.3364
  112OSM    C1F11629   4.751   4.456  10.206  0.1875 -0.3388  0.3520
  112OSM     OF11630   4.691   4.359  10.242  0.0309 -0.0645  0.2006
  112OSM    C2F11631   4.848   4.443  10.093  0.2279 -0.5242 -0.3205
  112OSM    H2F11632   4.930   4.370  10.107  0.8220 -0.3169 -2.3301
  112OSM    H2G11633   4.904   4.539  10.098  0.3330 -0.6568  2.3578
  112OSM    C3F11634   4.783   4.392   9.966 -0.5700 -0.3920 -0.3333
  112OSM    H3F11635   4.694   4.454   9.943  0.1521  0.2433 -1.5582
  112OSM    H3G11636   4.747   4.292   9.999 -2.7669  0.7550  0.9986
  112OSM    C4F11637   4.877   4.396   9.847  0.4515  0.4589  0.1852
  112OSM    H4F11638   4.975   4.345   9.863  0.6393  0.4048 -1.0319
  112OSM    H4G11639   4.890   4.504   9.826 -1.4239  0.3401 -2.0499
  112OSM    C5F11640   4.821   4.337   9.716  0.7819 -0.1135  0.0707
  112OSM    H5F11641   4.714   4.365   9.721 -0.1162 -3.4796  2.6362
  112OSM    H5G11642   4.828   4.227   9.729  1.0435 -0.1205 -0.1212
  112OSM    C6F11643   4.894   4.385   9.599  0.4122 -0.2481  0.1533
  112OSM    H6F11644   4.999   4.357   9.621  0.4809 -1.1483 -1.2182
  112OSM    H6G11645   4.884   4.495   9.593  2.4522 -0.0819 -1.1358
  112OSM    C7F11646   4.853   4.314   9.463 -0.2645 -0.2565 -0.4610
  112OSM    H7F11647   4.744   4.294   9.449  0.1684 -1.2622 -2.8184
  112OSM    H7G11648   4.906   4.217   9.475  0.5148  0.3156  1.0247
  112OSM    C8F11649   4.919   4.391   9.341  0.1333 -0.8031 -0.1673
  112OSM    H8F11650   4.865   4.488   9.349  0.1213 -0.8615  0.5467
  112OSM    H8G11651   4.868   4.353   9.250 -2.2990  1.3535  0.1858
  112OSM    C9F11652   5.069   4.418   9.345 -0.3038 -0.6005  0.2185
  112OSM    H9F11653   5.100   4.491   9.421  0.6659 -1.0332  0.2573
  112OSM   C10F11654   5.164   4.360   9.270 -1.0222  1.0495  0.5063
  112OSM   H10F11655   5.270   4.388   9.279 -0.7662  1.0666 -1.8081
  112OSM   C11F11656   5.144   4.249   9.167 -0.0921 -0.6533  0.1532
  112OSM   H11F11657   5.069   4.178   9.208  0.6415 -0.2463  2.3145
  112OSM   H11G11658   5.232   4.181   9.163 -0.3322 -0.9776  0.3965
  112OSM   C12F11659   5.096   4.311   9.031 -1.1879  0.1337  0.5166
  112OSM   H12F11660   4.992   4.348   9.045 -1.8757 -0.9435 -1.4404
  112OSM   H12G11661   5.070   4.231   8.959  0.2609 -0.4727  0.6471
  112OSM   C13F11662   5.201   4.404   8.966  0.6865 -0.4257  0.7519
  112OSM   H13F11663   5.291   4.342   8.942  1.7065  1.5972 -1.0096
  112OSM   H13G11664   5.216   4.492   9.032 -0.5415  0.7003 -0.4296
  112OSM   C14F11665   5.148   4.431   8.823  0.5933 -0.0597  0.1725
  112OSM   H14F11666   5.048   4.480   8.820  1.2033  1.2793  0.8091
  112OSM   H14G11667   5.147   4.334   8.769 -0.7033  0.4214 -0.7047
  112OSM   C15F11668   5.246   4.512   8.730  0.0807  0.4783 -0.3227
  112OSM   H15F11669   5.339   4.453   8.719 -0.0376  0.1886  0.1804
  112OSM   H15G11670   5.267   4.600   8.796 -0.0595 -0.5819  1.1920
  112OSM   C16F11671   5.188   4.553   8.593 -0.4061 -0.3940  0.0494
  112OSM   H16F11672   5.107   4.620   8.629  1.5314  1.2236  1.6740
  112OSM   H16G11673   5.151   4.471   8.528 -0.9576 -1.3422  1.5220
  112OSM   C17F11674   5.280   4.659   8.522 -0.3947 -0.7322  0.5739
  112OSM   H17F11675   5.344   4.597   8.456 -1.5742 -0.0187 -1.3067
  112OSM   H17G11676   5.323   4.725   8.601  1.5638 -0.2977 -0.7858
  112OSM   C18F11677   5.195   4.741   8.430 -0.3424  0.2241  1.0209
  112OSM   H18F11678   5.257   4.796   8.355 -2.4383  1.6267  0.2185
  112OSM   H18G11679   5.135   4.816   8.485 -0.6620  0.0407  0.9198
  112OSM   H18H11680   5.125   4.676   8.374 -0.3463  0.4085  0.8107
  113OSM      N11681   5.680   4.747  10.884  0.2863  0.8677  1.1632
  113OSM    C1511682   5.656   4.650  10.997  0.3149  0.0898  0.2750
  113OSM   H15A11683   5.704   4.694  11.083 -0.9214  1.0543  0.5019
  113OSM   H15B11684   5.690   4.550  10.974 -0.0921 -0.3535  1.5384
  113OSM   H15C11685   5.552   4.638  11.024  0.6266  0.3450  1.6733
  113OSM    C1411686   5.590   4.701  10.767 -0.1334 -0.2594  0.2376
  113OSM   H14A11687   5.564   4.784  10.703  0.1564  0.3636  0.9191
  113OSM   H14B11688   5.497   4.672  10.814  1.0694 -4.1187  0.5940
  113OSM   H14C11689   5.631   4.615  10.716 -0.6015  0.2632 -1.0758
  113OSM    C1311690   5.637   4.880  10.928  1.2184 -0.2598 -0.2180
  113OSM   H13A11691   5.647   4.959  10.855  1.9266 -0.7356 -0.6407
  113OSM   H13B11692   5.700   4.913  11.009  0.0233  2.5385 -0.2997
  113OSM   H13C11693   5.535   4.881  10.964  0.8094  2.1056 -1.2549
  113OSM    C1211694   5.828   4.755  10.850 -0.2169 -0.3655 -0.8945
  113OSM   H12A11695   5.850   4.822  10.768 -1.7723  1.4201  0.0640
  113OSM   H12B11696   5.853   4.653  10.823  0.1736 -0.6178  0.3806
  113OSM    C1111697   5.924   4.812  10.962 -0.6150 -0.0538 -0.5888
  113OSM   H11A11698   6.024   4.769  10.939 -1.0651 -0.8791 -1.0645
  113OSM   H11B11699   5.895   4.771  11.061  1.5960 -1.6052 -0.4974
  113OSM      P11700   5.999   5.023  10.835 -0.0352  0.2184 -0.0963
  113OSM    O1311701   6.004   5.164  10.875  0.6182  0.4725 -0.4044
  113OSM    O1411702   6.131   4.958  10.818  0.2118  0.0886  0.2634
  113OSM    O1111703   5.918   4.990  10.705 -0.4326  0.5295 -0.1075
  113OSM    O1211704   5.929   4.949  10.956 -0.7309 -0.4178  0.3099
  113OSM    C1S11705   5.993   4.923  10.601 -0.0837  0.3830  0.0321
  113OSM    H1S11706   6.033   4.823  10.629  1.0071  0.3264 -1.6136
  113OSM    H1T11707   6.073   4.989  10.561 -0.1275  0.3146 -0.1703
  113OSM     NF11708   6.000   4.868  10.363  0.6463 -0.2561  0.3829
  113OSM    HNF11709   5.990   4.935  10.291  2.3759  0.4367  0.7387
  113OSM    C2S11710   5.912   4.893  10.469  0.0223  0.1052  0.3635
  113OSM    H2S11711   5.849   4.803  10.483  0.8284 -1.0437 -2.4996
  113OSM    C3S11712   5.803   5.008  10.452  0.0600  0.6133  0.4741
  113OSM    H3S11713   5.865   5.100  10.467 -0.9763  1.1553  1.6172
  113OSM     O311714   5.714   5.015  10.563 -0.5784  0.1612 -0.0019
  113OSM    HO311715   5.778   4.989  10.630 -1.8417 -0.6817  0.9093
  113OSM    C4S11716   5.730   5.002  10.318  0.3919 -0.0185  0.6077
  113OSM    H4S11717   5.763   5.072  10.240  0.4015 -0.4284  0.2402
  113OSM    C5S11718   5.629   4.921  10.290  0.3286  0.5352 -0.3327
  113OSM    H5S11719   5.595   4.851  10.369 -1.5959  0.7838 -0.9054
  113OSM    C6S11720   5.542   4.898  10.166  0.0452 -0.7273  0.1216
  113OSM    H6S11721   5.435   4.918  10.185  0.2558  0.3970  0.2110
  113OSM    H6T11722   5.556   4.797  10.122  0.0402 -0.4757 -0.4726
  113OSM    C7S11723   5.582   4.996  10.053 -0.1559  0.2399 -0.1531
  113OSM    H7S11724   5.689   4.980  10.028 -0.2673 -2.3102  0.7163
  113OSM    H7T11725   5.572   5.105  10.074  0.8202  0.2938  0.0631
  113OSM    C8S11726   5.524   4.966   9.919 -0.2225 -0.0339 -0.0868
  113OSM    H8S11727   5.416   4.989   9.909 -0.1045  0.5917  0.0188
  113OSM    H8T11728   5.549   4.861   9.894 -0.7081  0.2183 -1.7551
  113OSM    C9S11729   5.584   5.053   9.806  0.5786  0.0615 -0.3586
  113OSM    H9S11730   5.690   5.028   9.783  0.1974 -0.5230 -1.5330
  113OSM    H9T11731   5.567   5.158   9.838 -1.0209 -0.3095  0.0876
  113OSM   C10S11732   5.512   5.047   9.675  0.4647 -0.5340  0.6034
  113OSM   H10S11733   5.404   5.069   9.686  0.6531  0.2986  0.8260
  113OSM   H10T11734   5.519   4.942   9.639  1.2787 -0.2764 -0.0161
  113OSM   C11S11735   5.575   5.138   9.569  0.3276 -0.6209 -0.4864
  113OSM   H11S11736   5.682   5.141   9.595 -0.3783 -2.2753  3.2629
  113OSM   H11T11737   5.547   5.245   9.574  3.1304  0.2294 -1.4966
  113OSM   C12S11738   5.559   5.081   9.431 -0.0906  0.5069  0.1836
  113OSM   H12S11739   5.452   5.062   9.407 -0.0625  0.5046  0.0587
  113OSM   H12T11740   5.626   4.994   9.416 -0.3550  0.2134  0.6997
  113OSM   C13S11741   5.599   5.189   9.326 -0.1103 -1.2760  0.5405
  113OSM   H13S11742   5.700   5.220   9.358 -0.9801  0.9867  1.3037
  113OSM   H13T11743   5.541   5.282   9.342  0.5720 -0.4862 -1.2665
  113OSM   C14S11744   5.605   5.143   9.184 -0.0966 -1.1784  0.3014
  113OSM   H14S11745   5.690   5.072   9.174  0.1450 -1.5019  3.4098
  113OSM   H14T11746   5.629   5.237   9.131 -1.6588 -0.7453  0.3364
  113OSM   C15S11747   5.474   5.087   9.131 -0.5270 -0.2064 -0.0083
  113OSM   H15S11748   5.390   5.159   9.137 -0.6568 -0.2675 -1.0183
  113OSM   H15T11749   5.442   4.999   9.192 -3.8779  0.6898 -0.2803
  113OSM   C16S11750   5.474   5.030   8.985  0.3013  0.3455  0.2655
  113OSM   H16S11751   5.479   4.919   8.990 -0.9589  0.1420 -1.9049
  113OSM   H16T11752   5.571   5.054   8.936  0.7564 -3.2376 -0.8694
  113OSM   C17S11753   5.352   5.055   8.895  0.0877 -0.2101  0.4888
  113OSM   H17S11754   5.330   5.164   8.895 -0.4601 -0.3147  0.0264
  113OSM   H17T11755   5.264   5.006   8.941  0.6633 -1.3956  0.3654
  113OSM   C18S11756   5.362   5.008   8.750  0.5826  0.2990  0.0831
  113OSM   H18S11757   5.288   5.067   8.692  1.9725 -0.0623 -2.1717
  113OSM   H18T11758   5.345   4.899   8.744 -2.2051  0.6741 -0.0555
  113OSM   H18U11759   5.459   5.031   8.701  0.8849 -2.9597 -1.1014
  113OSM    C1F11760   6.086   4.767  10.347  0.1974 -0.3448 -0.0388
  113OSM     OF11761   6.091   4.682  10.435  0.3060  0.3009  0.0964
  113OSM    C2F11762   6.166   4.768  10.224  0.0898 -0.3401  0.3232
  113OSM    H2F11763   6.241   4.850  10.213  0.8335 -1.1030 -0.4380
  113OSM    H2G11764   6.092   4.776  10.142  2.6723  0.9147 -2.0768
  113OSM    C3F11765   6.240   4.631  10.198 -0.3188 -0.2401  0.5466
  113OSM    H3F11766   6.165   4.552  10.178 -1.5919  1.2317 -0.8445
  113OSM    H3G11767   6.300   4.603  10.287 -1.0086 -0.2881  1.0079
  113OSM    C4F11768   6.339   4.638  10.084 -0.0741  0.1674  0.6589
  113OSM    H4F11769   6.414   4.716  10.108  0.0373  0.3506 -0.2288
  113OSM    H4G11770   6.276   4.667   9.997  0.4236  1.6516  0.7601
  113OSM    C5F11771   6.414   4.511  10.048 -0.7535 -0.4202  0.1709
  113OSM    H5F11772   6.357   4.442   9.982  1.2902  1.2892 -3.7351
  113OSM    H5G11773   6.445   4.470  10.147  1.1445  1.3386  0.3866
  113OSM    C6F11774   6.548   4.550   9.973 -0.1435 -0.7254  0.2154
  113OSM    H6F11775   6.607   4.458   9.954  1.4428  0.0975  0.9087
  113OSM    H6G11776   6.617   4.610  10.037 -1.9010 -0.0266  1.5663
  113OSM    C7F11777   6.520   4.639   9.854  0.1949 -0.7188  0.1639
  113OSM    H7F11778   6.507   4.748   9.868 -0.1616 -0.7823  0.3493
  113OSM    H7G11779   6.419   4.618   9.812 -0.5446  0.0451  1.5055
  113OSM    C8F11780   6.620   4.605   9.746  0.1335 -0.1265  0.9075
  113OSM    H8F11781   6.604   4.504   9.702  1.4131  0.2418 -0.5025
  113OSM    H8G11782   6.722   4.622   9.785  1.1822  3.3779 -2.6137
  113OSM    C9F11783   6.605   4.709   9.634 -0.6066  0.3318 -0.3297
  113OSM    H9F11784   6.660   4.803   9.649 -1.6477  1.0982 -1.1169
  113OSM   C10F11785   6.511   4.697   9.530 -0.4182 -0.3158 -0.3688
  113OSM   H10F11786   6.512   4.771   9.448  2.6854  0.6545  0.4244
  113OSM   C11F11787   6.423   4.578   9.507  0.2393 -0.3325  0.4892
  113OSM   H11F11788   6.328   4.611   9.461 -0.1326 -1.7354  0.1919
  113OSM   H11G11789   6.394   4.532   9.604  1.1819 -2.2052 -0.0530
  113OSM   C12F11790   6.486   4.472   9.411 -0.4270 -0.1574 -0.7144
  113OSM   H12F11791   6.411   4.391   9.393  1.4266 -2.0054 -0.5099
  113OSM   H12G11792   6.576   4.428   9.458 -1.3929  0.2710  1.6886
  113OSM   C13F11793   6.526   4.513   9.269 -0.5218 -0.5597  0.4070
  113OSM   H13F11794   6.599   4.596   9.279 -1.8600  0.6031  0.7689
  113OSM   H13G11795   6.438   4.557   9.217  0.5039 -0.3500 -1.2467
  113OSM   C14F11796   6.583   4.397   9.189 -0.7390 -0.3196  0.7503
  113OSM   H14F11797   6.520   4.306   9.201 -0.2255 -0.6299  1.0805
  113OSM   H14G11798   6.682   4.377   9.233 -1.3440  1.6772  3.2171
  113OSM   C15F11799   6.599   4.423   9.040  0.6276 -0.2300 -0.5649
  113OSM   H15F11800   6.643   4.525   9.035 -1.2432  0.5872 -1.3227
  113OSM   H15G11801   6.510   4.410   8.974 -0.0076  0.5191  0.1288
  113OSM   C16F11802   6.710   4.332   8.985 -0.0614 -0.3210 -0.6547
  113OSM   H16F11803   6.669   4.231   9.006  0.9753 -0.4406  1.0238
  113OSM   H16G11804   6.798   4.367   9.043 -0.4135  1.1101 -0.9604
  113OSM   C17F11805   6.746   4.362   8.841 -1.2205 -0.4814  0.2456
  113OSM   H17F11806   6.763   4.472   8.837  1.0625 -0.7681  0.6904
  113OSM   H17G11807   6.667   4.339   8.766 -2.1538  0.9804  0.7504
  113OSM   C18F11808   6.877   4.298   8.797 -0.3910 -0.9470 -0.1030
  113OSM   H18F11809   6.925   4.359   8.717 -0.0123 -2.3378 -0.9759
  113OSM   H18G11810   6.862   4.193   8.764  1.2707 -0.8486 -1.2833
  113OSM   H18H11811   6.945   4.296   8.885 -0.0383 -1.3715 -0.3841
  114OSM      N11812   2.783   4.458  11.311 -0.1310  0.5144  0.5848
  114OSM    C1511813   2.898   4.463  11.215 -0.3316  0.4582  0.0579
  114OSM   H15A11814   2.878   4.534  11.136 -1.6791  1.0414  0.8693
  114OSM   H15B11815   2.912   4.372  11.159 -0.2869  1.4438 -1.5924
  114OSM   H15C11816   2.989   4.487  11.267  0.4862 -1.6659 -0.3126
  114OSM    C1411817   2.824   4.362  11.418  0.0776  0.4523  0.1990
  114OSM   H14A11818   2.749   4.326  11.487  0.2108 -0.8716 -0.3212
  114OSM   H14B11819   2.898   4.405  11.485  0.9860 -0.3447 -0.2799
  114OSM   H14C11820   2.868   4.277  11.369 -1.9044 -0.8475  0.5808
  114OSM    C1311821   2.756   4.592  11.362  0.1292  0.0492  0.7617
  114OSM   H13A11822   2.760   4.667  11.284  0.8779 -0.5277  0.2378
  114OSM   H13B11823   2.826   4.629  11.435 -0.1101  1.9469  0.0896
  114OSM   H13C11824   2.661   4.598  11.414 -0.7173 -2.2895 -0.4117
  114OSM    C1211825   2.660   4.405  11.244 -0.4938  0.0923 -0.1575
  114OSM   H12A11826   2.575   4.424  11.308 -1.0890 -0.5702 -0.7395
  114OSM   H12B11827   2.667   4.298  11.234 -0.7992  0.3157 -3.7293
  114OSM    C1111828   2.629   4.463  11.109 -0.6223 -0.3012 -0.2204
  114OSM   H11A11829   2.550   4.397  11.066  1.5514 -4.1717  1.2379
  114OSM   H11B11830   2.711   4.444  11.036 -1.6075 -1.2775 -1.1199
  114OSM      P11831   2.454   4.653  11.122 -0.2118  0.2436 -0.1076
  114OSM    O1311832   2.380   4.575  11.222 -0.0414 -0.2601  0.7066
  114OSM    O1411833   2.445   4.796  11.134  0.8684  0.2734  0.1649
  114OSM    O1111834   2.393   4.618  10.980  0.0520  0.0503  0.8100
  114OSM    O1211835   2.603   4.602  11.118  0.0791  0.7029 -0.1649
  114OSM    C1S11836   2.452   4.655  10.851 -0.3261 -0.5290  0.2624
  114OSM    H1S11837   2.551   4.607  10.839 -0.2740 -0.7897  1.5819
  114OSM    H1T11838   2.457   4.766  10.840 -0.1254 -0.6677 -1.3040
  114OSM     NF11839   2.455   4.656  10.605  0.6207  0.2484  0.2589
  114OSM    HNF11840   2.425   4.744  10.568 -1.2414  1.7354  4.5942
  114OSM    C2S11841   2.381   4.610  10.722 -0.4475  0.6268  0.1474
  114OSM    H2S11842   2.384   4.499  10.726 -0.6126  0.6437  1.0727
  114OSM    C3S11843   2.233   4.656  10.722  0.1005  0.1500 -0.3411
  114OSM    H3S11844   2.238   4.767  10.719  2.2764  0.1284  0.7325
  114OSM     O311845   2.163   4.629  10.839 -0.1155 -0.2791  0.0741
  114OSM    HO311846   2.226   4.583  10.896  0.3618 -0.0146 -0.2310
  114OSM    C4S11847   2.153   4.604  10.606 -0.2292  0.6970 -0.0200
  114OSM    H4S11848   2.125   4.686  10.538 -3.5336 -0.1406  0.1713
  114OSM    C5S11849   2.102   4.481  10.593 -0.3133 -0.0595 -0.6638
  114OSM    H5S11850   2.128   4.412  10.675  1.8031  1.7888  0.3406
  114OSM    C6S11851   2.020   4.434  10.473  0.0012  0.0868  0.4140
  114OSM    H6S11852   1.936   4.367  10.503 -1.3229  0.8751 -1.3364
  114OSM    H6T11853   2.085   4.385  10.398 -0.3230  1.6986 -0.9821
  114OSM    C7S11854   1.938   4.540  10.388  0.0908  0.5189  0.2746
  114OSM    H7S11855   1.996   4.631  10.363 -3.8895  3.1571 -0.3606
  114OSM    H7T11856   1.851   4.567  10.451  0.0647  0.3334  0.3196
  114OSM    C8S11857   1.871   4.477  10.260 -0.0830  0.5670 -0.8942
  114OSM    H8S11858   1.791   4.408  10.296 -0.0644  1.1966  0.4190
  114OSM    H8T11859   1.945   4.432  10.190 -1.7664 -1.1850 -1.6292
  114OSM    C9S11860   1.789   4.580  10.183 -0.3184 -0.8045 -0.4877
  114OSM    H9S11861   1.864   4.657  10.156 -0.4143 -0.5397 -0.0095
  114OSM    H9T11862   1.706   4.619  10.246  0.5908 -2.6543  2.0158
  114OSM   C10S11863   1.725   4.518  10.057 -0.1785  0.2749 -0.4203
  114OSM   H10S11864   1.666   4.437  10.104 -2.2745  0.2686 -2.8371
  114OSM   H10T11865   1.795   4.449  10.005 -1.0262 -0.9940  0.0912
  114OSM   C11S11866   1.652   4.610   9.963 -0.0838 -0.2231 -0.1800
  114OSM   H11S11867   1.565   4.654  10.017  1.3198 -0.1031  2.1211
  114OSM   H11T11868   1.610   4.550   9.880  0.3417  0.2177 -0.7254
  114OSM   C12S11869   1.743   4.716   9.898  0.0263 -0.6736  0.1739
  114OSM   H12S11870   1.837   4.674   9.857 -0.9469 -2.7541 -0.0467
  114OSM   H12T11871   1.764   4.790   9.978 -1.8296 -0.2016  0.2829
  114OSM   C13S11872   1.672   4.792   9.788  0.3129 -0.3326 -0.6542
  114OSM   H13S11873   1.632   4.888   9.827  1.3058  0.2880 -1.1250
  114OSM   H13T11874   1.580   4.737   9.760 -1.5225  1.5597  1.2586
  114OSM   C14S11875   1.749   4.828   9.661 -0.8119  0.2297 -0.3169
  114OSM   H14S11876   1.797   4.735   9.623  1.1101  1.5502 -1.2892
  114OSM   H14T11877   1.833   4.896   9.686  0.8127 -1.7440 -0.1189
  114OSM   C15S11878   1.654   4.892   9.557  0.2479  0.2603  1.0201
  114OSM   H15S11879   1.610   4.989   9.590 -2.4677 -0.7164  0.4930
  114OSM   H15T11880   1.565   4.826   9.557 -0.9224  1.7833  0.2269
  114OSM   C16S11881   1.724   4.905   9.424  0.0730 -0.2415  0.2930
  114OSM   H16S11882   1.783   4.815   9.398  2.0343  0.9821  0.3224
  114OSM   H16T11883   1.802   4.982   9.440  0.7701 -0.3245 -2.2536
  114OSM   C17S11884   1.630   4.940   9.306  0.3080  0.2034 -0.6923
  114OSM   H17S11885   1.692   4.987   9.227  1.4912  0.8886  0.5892
  114OSM   H17T11886   1.551   5.014   9.330 -0.5898 -0.9323 -0.0283
  114OSM   C18S11887   1.578   4.812   9.238  0.5650  0.9014  0.3153
  114OSM   H18S11888   1.489   4.843   9.179 -0.7161  2.5149  2.8852
  114OSM   H18T11889   1.539   4.741   9.314 -0.2899  1.9600  0.8956
  114OSM   H18U11890   1.653   4.766   9.170  0.0296 -1.8486  1.4553
  114OSM    C1F11891   2.567   4.600  10.561  0.4034 -0.2056 -0.6312
  114OSM     OF11892   2.594   4.489  10.601 -0.1036 -0.0250  0.3753
  114OSM    C2F11893   2.662   4.680  10.465  0.7460  0.2515 -0.2890
  114OSM    H2F11894   2.705   4.757  10.534  1.5891 -0.0475 -0.4629
  114OSM    H2G11895   2.613   4.736  10.383 -0.6060 -1.3534 -0.6102
  114OSM    C3F11896   2.771   4.591  10.405 -0.2356  0.6816 -0.4778
  114OSM    H3F11897   2.722   4.505  10.353  0.7430 -0.3328  0.2414
  114OSM    H3G11898   2.834   4.544  10.483 -0.7572  1.1229  0.2253
  114OSM    C4F11899   2.863   4.662  10.305  0.6605  0.6827 -0.2021
  114OSM    H4F11900   2.954   4.601  10.290  0.3941  0.1271  0.4040
  114OSM    H4G11901   2.911   4.757  10.337  0.9563  0.0982  1.1668
  114OSM    C5F11902   2.790   4.662  10.167 -0.3957 -0.5287  0.2066
  114OSM    H5F11903   2.698   4.724  10.179  0.0645  0.3054 -0.5126
  114OSM    H5G11904   2.768   4.556  10.139 -1.1303 -1.1198  2.7577
  114OSM    C6F11905   2.881   4.733  10.061 -0.0252  0.4540 -0.3530
  114OSM    H6F11906   2.976   4.676  10.067 -0.8023 -0.7879  0.7530
  114OSM    H6G11907   2.900   4.839  10.088 -0.8966  0.7044 -0.7121
  114OSM    C7F11908   2.824   4.726   9.919  0.2506  1.0229  0.5294
  114OSM    H7F11909   2.717   4.755   9.921 -0.0377  0.0233  2.3825
  114OSM    H7G11910   2.838   4.618   9.897  0.1920  1.2361 -0.6081
  114OSM    C8F11911   2.911   4.812   9.824 -0.2081  0.5054 -0.5793
  114OSM    H8F11912   2.943   4.901   9.882 -3.2394  1.3358  0.0156
  114OSM    H8G11913   2.861   4.852   9.733  0.0062  1.3316 -0.3396
  114OSM    C9F11914   3.032   4.745   9.780 -0.5297  0.3056  0.1645
  114OSM    H9F11915   3.123   4.751   9.843 -0.9108  1.1768  0.6577
  114OSM   C10F11916   3.046   4.652   9.689 -0.1108 -0.7471  0.0881
  114OSM   H10F11917   3.146   4.615   9.661  0.1391  0.5647 -0.8263
  114OSM   C11F11918   2.932   4.629   9.592 -0.3439 -0.0087 -0.0083
  114OSM   H11F11919   2.833   4.659   9.632 -0.2312 -1.0229  1.0851
  114OSM   H11G11920   2.925   4.518   9.584 -0.3926  0.0956 -1.7088
  114OSM   C12F11921   2.966   4.706   9.464 -0.7701  0.1935  0.7520
  114OSM   H12F11922   3.067   4.680   9.426 -0.9711 -3.7574  2.4655
  114OSM   H12G11923   2.972   4.812   9.496 -1.1179 -0.1494  2.0102
  114OSM   C13F11924   2.864   4.690   9.359  0.3559  0.3484  0.3310
  114OSM   H13F11925   2.784   4.759   9.392 -0.7297  0.3614 -2.1122
  114OSM   H13G11926   2.835   4.583   9.372  1.5022 -0.2544 -1.6821
  114OSM   C14F11927   2.930   4.715   9.221  0.5945 -0.2488  0.2886
  114OSM   H14F11928   3.005   4.637   9.197  2.6098  2.0707 -1.5659
  114OSM   H14G11929   2.984   4.812   9.230  0.0880  0.3309 -2.1400
  114OSM   C15F11930   2.818   4.726   9.114 -0.0081 -0.0944  0.7080
  114OSM   H15F11931   2.761   4.819   9.135 -0.3212 -0.1038 -0.0499
  114OSM   H15G11932   2.750   4.638   9.116 -0.6452  0.2046 -2.4568
  114OSM   C16F11933   2.885   4.746   8.976  0.0084  0.6739 -0.0264
  114OSM   H16F11934   2.936   4.648   8.962 -1.1540 -0.0178  0.4733
  114OSM   H16G11935   2.968   4.818   8.997  1.7342 -1.2099 -0.0981
  114OSM   C17F11936   2.797   4.787   8.851 -0.1936  0.0555 -0.0658
  114OSM   H17F11937   2.869   4.810   8.770 -2.1216 -1.7256 -2.4647
  114OSM   H17G11938   2.737   4.876   8.878  0.4477  0.7271 -0.7894
  114OSM   C18F11939   2.721   4.670   8.799 -0.5865  0.9120  0.3538
  114OSM   H18F11940   2.796   4.591   8.773 -0.0356  0.2261  3.5318
  114OSM   H18G11941   2.669   4.693   8.704 -2.5969 -0.8517  0.9516
  114OSM   H18H11942   2.646   4.622   8.866  0.2527  0.2302  0.8389
  115OSM      N11943   3.099   1.123   5.843  0.1711  0.7067  0.7876
  115OSM    C1511944   3.036   1.070   5.720 -0.3922 -0.1455  0.0956
  115OSM   H15A11945   3.050   0.965   5.703  0.7505  0.0575 -0.3111
  115OSM   H15B11946   3.087   1.112   5.635  1.8248 -2.9318 -0.0780
  115OSM   H15C11947   2.933   1.103   5.717 -0.0632  1.0462  0.9771
  115OSM    C1411948   3.234   1.056   5.844 -0.3659  0.4806  0.0894
  115OSM   H14A11949   3.307   1.099   5.776  1.0203 -1.5857  0.1823
  115OSM   H14B11950   3.231   0.949   5.830 -0.2323  0.5627 -0.5908
  115OSM   H14C11951   3.269   1.058   5.946 -0.5232 -0.6831  0.1769
  115OSM    C1311952   3.117   1.270   5.840 -0.0945 -0.1341 -0.2396
  115OSM   H13A11953   3.184   1.300   5.919  0.2788  0.5781 -0.8144
  115OSM   H13B11954   3.026   1.322   5.867  0.3432  0.1909  0.6680
  115OSM   H13C11955   3.169   1.312   5.755  0.0946 -0.3157 -0.2125
  115OSM    C1211956   3.019   1.084   5.967 -0.2156 -0.1908 -0.3372
  115OSM   H12A11957   3.011   0.977   5.974 -1.0629 -0.0524  1.4073
  115OSM   H12B11958   2.917   1.120   5.958  0.6351  2.4060 -0.6107
  115OSM    C1111959   3.075   1.132   6.103  0.2720  0.2604  0.6709
  115OSM   H11A11960   2.992   1.124   6.177  0.1530  2.0124  0.7590
  115OSM   H11B11961   3.096   1.241   6.101  2.8097 -0.1756 -0.8389
  115OSM      P11962   3.207   0.933   6.211 -0.2676 -0.1968  0.2865
  115OSM    O1311963   3.174   0.819   6.124 -0.0275  0.2051 -0.3752
  115OSM    O1411964   3.342   0.926   6.281 -0.3788  0.2954 -0.5677
  115OSM    O1111965   3.086   0.944   6.312  0.0848 -0.1259 -0.1113
  115OSM    O1211966   3.201   1.066   6.123  0.2500  0.4101  0.3631
  115OSM    C1S11967   3.098   1.045   6.419  0.0128 -0.5101  0.0994
  115OSM    H1S11968   3.078   1.145   6.374 -1.1411 -0.3714  0.8663
  115OSM    H1T11969   3.198   1.052   6.467 -0.4953  1.0914  1.0017
  115OSM     NF11970   3.001   1.143   6.622 -0.3172  0.6168  0.4681
  115OSM    HNF11971   3.062   1.136   6.701 -1.5778  0.5518  1.4818
  115OSM    C2S11972   2.995   1.026   6.540  0.1598 -0.7829  0.2443
  115OSM    H2S11973   2.893   1.033   6.495  0.2575  0.7646  0.2088
  115OSM    C3S11974   3.016   0.895   6.619  0.8097  0.6875  0.2636
  115OSM    H3S11975   3.110   0.923   6.670 -1.1894  2.9692  3.0038
  115OSM     O311976   3.024   0.784   6.531  0.0623 -0.2499  0.2716
  115OSM    HO311977   3.041   0.818   6.442 -1.9921  1.1580  0.3514
  115OSM    C4S11978   2.904   0.876   6.712 -0.5831 -0.3451  0.2158
  115OSM    H4S11979   2.813   0.837   6.664  0.0543 -0.7673 -0.6685
  115OSM    C5S11980   2.906   0.882   6.848 -0.1148  0.2484  0.6460
  115OSM    H5S11981   3.001   0.915   6.892  0.3443  1.5089 -1.1796
  115OSM    C6S11982   2.783   0.851   6.928  0.5652 -0.4497 -0.4767
  115OSM    H6S11983   2.744   0.755   6.889  3.2531 -1.1295 -1.7237
  115OSM    H6T11984   2.711   0.935   6.936  1.5568  0.3355  0.5092
  115OSM    C7S11985   2.821   0.832   7.081 -0.2221  0.2213 -0.0944
  115OSM    H7S11986   2.877   0.736   7.093 -0.8207 -0.4110 -1.9798
  115OSM    H7T11987   2.733   0.807   7.145 -0.2664 -1.9163 -0.8836
  115OSM    C8S11988   2.897   0.947   7.135 -0.6652  0.7312 -0.3302
  115OSM    H8S11989   2.849   1.040   7.095  0.8922  2.1618  0.9535
  115OSM    H8T11990   2.999   0.948   7.091 -0.1775 -2.2294  0.5892
  115OSM    C9S11991   2.897   0.947   7.285  0.0289 -0.0178  0.5170
  115OSM    H9S11992   2.947   0.852   7.315 -1.0624 -0.3491  1.3355
  115OSM    H9T11993   2.793   0.954   7.323 -0.2603  2.6516 -0.5363
  115OSM   C10S11994   2.980   1.060   7.333  0.4967  0.8913 -0.1989
  115OSM   H10S11995   2.948   1.163   7.305  2.3480  1.6521  0.3269
  115OSM   H10T11996   3.081   1.049   7.289 -0.6868 -0.9844 -2.6618
  115OSM   C11S11997   2.987   1.067   7.493  0.0221  0.0209  0.2018
  115OSM   H11S11998   3.010   0.965   7.531  0.3463 -0.6536 -1.7291
  115OSM   H11T11999   2.884   1.086   7.530 -0.3830  3.1782 -2.1841
  115OSM   C12S12000   3.076   1.176   7.547  0.4985  0.2878  0.5854
  115OSM   H12S12001   3.022   1.271   7.525 -3.7641 -2.5525 -2.8846
  115OSM   H12T12002   3.166   1.171   7.483  0.4925  0.7582  0.5338
  115OSM   C13S12003   3.138   1.163   7.691 -0.7118  0.5283  0.1951
  115OSM   H13S12004   3.186   1.062   7.698  0.7115  0.9617 -1.9828
  115OSM   H13T12005   3.051   1.169   7.759  0.2983  1.8628  1.4143
  115OSM   C14S12006   3.245   1.270   7.724  0.8952  0.4130 -0.3425
  115OSM   H14S12007   3.193   1.360   7.764 -0.7833 -0.1199 -1.2409
  115OSM   H14T12008   3.303   1.292   7.632 -0.3292  1.3958 -0.9161
  115OSM   C15S12009   3.347   1.225   7.829 -0.1004  0.1750  0.8394
  115OSM   H15S12010   3.399   1.316   7.865  0.6131 -0.0809  0.4729
  115OSM   H15T12011   3.424   1.157   7.787 -0.1216  0.0832  0.9496
  115OSM   C16S12012   3.286   1.152   7.945  0.3539  0.4560 -0.0049
  115OSM   H16S12013   3.248   1.050   7.925  3.4244 -1.3297  2.4625
  115OSM   H16T12014   3.200   1.216   7.977  0.0823  1.4907 -2.6075
  115OSM   C17S12015   3.379   1.129   8.067 -0.5341  0.7192 -0.3154
  115OSM   H17S12016   3.420   1.224   8.108  1.5165  0.1980 -1.0259
  115OSM   H17T12017   3.474   1.075   8.050  0.1502  1.0019  2.2540
  115OSM   C18S12018   3.299   1.060   8.183 -0.8041 -0.2670 -0.0895
  115OSM   H18S12019   3.193   1.094   8.184 -0.9170 -0.4521 -2.0000
  115OSM   H18T12020   3.351   1.092   8.276 -0.1137  0.9402 -0.8491
  115OSM   H18U12021   3.302   0.951   8.165  0.0502 -0.1932 -0.4249
  115OSM    C1F12022   2.954   1.263   6.592  0.9626  0.4181  0.3888
  115OSM     OF12023   2.866   1.280   6.505  0.1490  0.2461 -0.0550
  115OSM    C2F12024   2.999   1.378   6.673 -0.6673  0.1025 -0.0850
  115OSM    H2F12025   2.987   1.472   6.614 -1.9021 -0.3188 -0.5326
  115OSM    H2G12026   3.104   1.362   6.704  0.0046  1.7764 -1.3627
  115OSM    C3F12027   2.908   1.402   6.795 -0.1410 -0.2763  0.5062
  115OSM    H3F12028   2.886   1.305   6.844 -1.2383  0.9422  2.5644
  115OSM    H3G12029   2.814   1.446   6.756 -0.3835 -0.1584  1.1944
  115OSM    C4F12030   2.968   1.503   6.895  0.0666  0.1566 -0.0944
  115OSM    H4F12031   3.050   1.437   6.931  1.6296  0.3540 -3.0147
  115OSM    H4G12032   2.895   1.518   6.977 -1.4127  0.7864 -1.4746
  115OSM    C5F12033   3.015   1.637   6.838  0.7415 -0.1055  0.4810
  115OSM    H5F12034   2.928   1.684   6.787  1.7492  0.9377 -0.3691
  115OSM    H5G12035   3.094   1.623   6.761  0.9990  0.4250  0.6462
  115OSM    C6F12036   3.065   1.745   6.935 -0.0333  0.3267  0.1831
  115OSM    H6F12037   2.994   1.758   7.020 -0.6040  1.2331 -0.4120
  115OSM    H6G12038   3.064   1.842   6.880 -0.0721  0.1445 -0.1370
  115OSM    C7F12039   3.215   1.725   6.994 -0.0262  0.1058  0.1868
  115OSM    H7F12040   3.291   1.757   6.919 -1.3887  2.6719 -0.2242
  115OSM    H7G12041   3.226   1.615   7.010  0.1091 -0.3629 -2.5581
  115OSM    C8F12042   3.239   1.789   7.131  0.2182  0.3898  0.1234
  115OSM    H8F12043   3.340   1.752   7.158  0.1184 -1.6814 -2.0144
  115OSM    H8G12044   3.180   1.727   7.202 -0.3958  0.8355  0.0092
  115OSM    C9F12045   3.218   1.932   7.163  0.9646 -0.6075  0.4739
  115OSM    H9F12046   3.291   2.002   7.119  0.3866  0.6804  1.5084
  115OSM   C10F12047   3.139   1.983   7.257  0.1690 -0.4606  0.0406
  115OSM   H10F12048   3.144   2.092   7.271  3.5615 -0.7085  1.7353
  115OSM   C11F12049   3.050   1.917   7.361  0.2012  0.0211  0.2980
  115OSM   H11F12050   3.038   1.809   7.337  0.7972  0.2708 -1.2399
  115OSM   H11G12051   2.945   1.953   7.361  0.4506  1.1024  3.7865
  115OSM   C12F12052   3.099   1.921   7.496 -0.0140  0.3597  0.5606
  115OSM   H12F12053   3.209   1.905   7.503  0.3444  2.5711  0.9063
  115OSM   H12G12054   3.041   1.854   7.562 -0.1356  2.4034  2.6607
  115OSM   C13F12055   3.074   2.056   7.562 -0.1812 -0.2042 -0.3021
  115OSM   H13F12056   2.968   2.080   7.539  0.3815  0.4089 -2.5073
  115OSM   H13G12057   3.129   2.130   7.500  0.2814  0.7992  1.2430
  115OSM   C14F12058   3.123   2.061   7.708  0.4215  0.0508 -0.1510
  115OSM   H14F12059   3.233   2.054   7.699  0.2579 -1.5690 -1.3315
  115OSM   H14G12060   3.083   1.978   7.770 -0.0813  0.4601  0.0794
  115OSM   C15F12061   3.084   2.194   7.770  0.2086 -0.3480 -0.3082
  115OSM   H15F12062   2.974   2.187   7.789  0.3319 -1.9946 -0.0241
  115OSM   H15G12063   3.112   2.277   7.701 -1.0800  1.9349  1.7257
  115OSM   C16F12064   3.157   2.224   7.898  0.7264  0.6638  0.0243
  115OSM   H16F12065   3.264   2.198   7.889  1.1362  1.7089  1.4439
  115OSM   H16G12066   3.115   2.153   7.973 -1.0625  0.4057 -1.1549
  115OSM   C17F12067   3.143   2.368   7.953  0.0030  0.3800 -0.3329
  115OSM   H17F12068   3.037   2.399   7.943  0.0100  0.3227 -0.5746
  115OSM   H17G12069   3.212   2.439   7.902  0.2307 -0.1905 -0.8230
  115OSM   C18F12070   3.163   2.369   8.103  0.5671 -0.0165 -0.5068
  115OSM   H18F12071   3.088   2.312   8.162 -1.1688  2.1880 -0.4734
  115OSM   H18G12072   3.173   2.470   8.147  3.3512  0.4325 -1.9069
  115OSM   H18H12073   3.254   2.316   8.139  1.6116  3.0345  1.7868
  116OSM      N12074   1.355   0.355   6.005  0.8065 -0.0146  0.3184
  116OSM    C1512075   1.392   0.219   6.047 -0.2864  0.2843  0.4764
  116OSM   H15A12076   1.345   0.193   6.141 -0.3666 -1.5208 -0.0376
  116OSM   H15B12077   1.497   0.218   6.072  0.0063 -0.6011 -0.7292
  116OSM   H15C12078   1.372   0.149   5.968  1.3381 -0.0536  0.3323
  116OSM    C1412079   1.392   0.456   6.112 -0.1777  0.8203  0.3161
  116OSM   H14A12080   1.488   0.432   6.155  0.1200 -1.4430 -1.4107
  116OSM   H14B12081   1.330   0.453   6.199  1.0936  0.2166  1.2368
  116OSM   H14C12082   1.384   0.554   6.066 -1.2076  0.7454  0.3143
  116OSM    C1312083   1.434   0.392   5.886  0.1007 -0.2431 -0.0891
  116OSM   H13A12084   1.434   0.499   5.873  1.2236 -0.1315  0.7204
  116OSM   H13B12085   1.375   0.360   5.801  0.1084  0.3489 -0.3156
  116OSM   H13C12086   1.533   0.351   5.897  0.2369 -0.0582 -0.6370
  116OSM    C1212087   1.207   0.374   5.963 -0.3898 -0.0367  0.2245
  116OSM   H12A12088   1.196   0.317   5.872 -0.9115 -0.8300  0.7617
  116OSM   H12B12089   1.205   0.478   5.937  3.6333  0.3476  0.7716
  116OSM    C1112090   1.095   0.357   6.074 -0.5628  0.7144  0.5091
  116OSM   H11A12091   1.086   0.256   6.121 -2.6209  0.5503 -0.1052
  116OSM   H11B12092   0.998   0.348   6.020  0.1801 -1.2011 -0.6126
  116OSM      P12093   1.042   0.602   6.130 -0.1625 -0.2043 -0.2687
  116OSM    O1312094   1.129   0.668   6.033 -0.1695  0.0154 -0.5082
  116OSM    O1412095   0.902   0.580   6.087 -0.4129 -0.1942 -0.3505
  116OSM    O1112096   1.035   0.682   6.270 -0.2771  0.2140  0.0757
  116OSM    O1212097   1.098   0.460   6.168  0.2651 -0.4974  0.4805
  116OSM    C1S12098   0.958   0.646   6.381 -0.4522  0.6242 -0.3101
  116OSM    H1S12099   0.928   0.539   6.377 -2.0526  1.0885 -1.5070
  116OSM    H1T12100   0.862   0.702   6.380 -1.3176 -0.8309 -1.0032
  116OSM     NF12101   0.954   0.625   6.622  0.1348  0.3651  0.1471
  116OSM    HNF12102   0.919   0.694   6.684 -2.9821 -1.4830  0.6604
  116OSM    C2S12103   1.032   0.675   6.510 -0.0041 -0.1414  0.3978
  116OSM    H2S12104   1.126   0.616   6.508  0.2133  0.2137 -0.5890
  116OSM    C3S12105   1.071   0.826   6.536 -0.4027  0.1048  0.0483
  116OSM    H3S12106   0.977   0.882   6.518 -1.3713 -1.8714 -1.4168
  116OSM     O312107   1.161   0.873   6.429 -0.1906 -0.2340 -0.1354
  116OSM    HO312108   1.133   0.822   6.353 -0.4371  0.5327 -0.5712
  116OSM    C4S12109   1.142   0.827   6.669  0.5009  0.3557  1.2583
  116OSM    H4S12110   1.239   0.775   6.676  1.0406  0.6816 -2.1162
  116OSM    C5S12111   1.110   0.916   6.759  0.3423  0.6200 -0.1424
  116OSM    H5S12112   1.054   1.007   6.734  0.3340  0.5304 -0.4510
  116OSM    C6S12113   1.182   0.916   6.890 -0.9290 -0.2495 -0.2424
  116OSM    H6S12114   1.202   1.018   6.931 -0.6424 -0.7589  0.9451
  116OSM    H6T12115   1.286   0.876   6.889 -0.6968  0.2543  1.1722
  116OSM    C7S12116   1.117   0.838   7.001  0.3028  0.1137 -0.1192
  116OSM    H7S12117   1.006   0.836   6.997  0.3324  0.0497 -2.7981
  116OSM    H7T12118   1.158   0.885   7.093 -0.0649 -0.0806  0.1484
  116OSM    C8S12119   1.162   0.696   7.012 -0.4393 -0.0469 -0.2323
  116OSM    H8S12120   1.273   0.695   6.998 -0.3003 -3.2054  0.3994
  116OSM    H8T12121   1.118   0.635   6.930 -1.6568 -0.8807  1.0023
  116OSM    C9S12122   1.136   0.621   7.150 -0.3393  0.0266  0.8206
  116OSM    H9S12123   1.213   0.674   7.210  0.5233 -0.1402 -0.1179
  116OSM    H9T12124   1.149   0.512   7.137  0.0890  0.2338 -0.7094
  116OSM   C10S12125   0.991   0.626   7.190  0.8382  0.2755 -0.3894
  116OSM   H10S12126   0.923   0.617   7.101 -0.6449  3.2112  0.3237
  116OSM   H10T12127   0.957   0.714   7.249 -2.4275 -1.9169  1.3182
  116OSM   C11S12128   0.958   0.504   7.290 -0.0015 -0.5129 -0.0652
  116OSM   H11S12129   1.019   0.522   7.381 -0.2154 -1.6643  0.3302
  116OSM   H11T12130   1.003   0.412   7.248  2.2451  0.8811 -0.8461
  116OSM   C12S12131   0.812   0.483   7.333 -0.0019  0.1694 -0.3456
  116OSM   H12S12132   0.750   0.444   7.249  0.8231 -2.4022  0.1705
  116OSM   H12T12133   0.773   0.579   7.373 -1.9972 -0.1784 -1.3460
  116OSM   C13S12134   0.802   0.391   7.447  0.0546 -0.2147  0.1086
  116OSM   H13S12135   0.877   0.414   7.526 -1.1550  0.5765  1.0710
  116OSM   H13T12136   0.830   0.290   7.411 -0.2735  0.7950 -3.3902
  116OSM   C14S12137   0.654   0.398   7.500 -0.1945  0.1665 -0.1387
  116OSM   H14S12138   0.589   0.377   7.413  2.5194 -1.1241 -1.9931
  116OSM   H14T12139   0.637   0.504   7.530  0.8593  0.5583 -0.8680
  116OSM   C15S12140   0.628   0.305   7.614  0.5532 -0.0263  0.1821
  116OSM   H15S12141   0.651   0.204   7.575  1.1332 -0.0070  0.4682
  116OSM   H15T12142   0.520   0.296   7.639  0.4635 -0.8276 -0.4476
  116OSM   C16S12143   0.724   0.315   7.731  0.2467  0.4494  0.0626
  116OSM   H16S12144   0.829   0.338   7.703 -0.0758  0.0343 -1.5549
  116OSM   H16T12145   0.736   0.218   7.785 -1.1660  0.2649  0.0894
  116OSM   C17S12146   0.678   0.432   7.825  0.0103  0.4897  0.2039
  116OSM   H17S12147   0.658   0.523   7.763 -2.0440  0.9561  1.4300
  116OSM   H17T12148   0.763   0.457   7.892 -1.1797  0.3136  1.8391
  116OSM   C18S12149   0.561   0.400   7.915 -0.7616  0.0462 -0.2992
  116OSM   H18S12150   0.602   0.317   7.977 -1.1264  0.0820 -0.0079
  116OSM   H18T12151   0.478   0.353   7.858 -1.5280 -0.5607  1.2450
  116OSM   H18U12152   0.523   0.478   7.984  3.6120  2.5272 -0.2956
  116OSM    C1F12153   0.929   0.496   6.651  0.1791 -0.9340  0.1506
  116OSM     OF12154   0.986   0.406   6.588  0.3271 -0.2409  0.1453
  116OSM    C2F12155   0.841   0.474   6.764  0.6868  0.4335 -0.9086
  116OSM    H2F12156   0.736   0.454   6.734  0.4612  1.8891 -1.1921
  116OSM    H2G12157   0.836   0.565   6.829 -0.0900  1.3567 -2.2087
  116OSM    C3F12158   0.903   0.355   6.845 -0.1933 -0.0018 -0.1846
  116OSM    H3F12159   1.006   0.392   6.862  0.5071 -0.1192 -3.4752
  116OSM    H3G12160   0.908   0.260   6.788 -0.4741 -1.1009  1.5285
  116OSM    C4F12161   0.820   0.342   6.970 -0.1668  0.4134 -0.5695
  116OSM    H4F12162   0.813   0.437   7.027  0.4757 -0.8458  1.7108
  116OSM    H4G12163   0.882   0.283   7.040 -0.4251 -0.3521 -0.9766
  116OSM    C5F12164   0.679   0.283   6.953  0.0709  0.2874  0.5094
  116OSM    H5F12165   0.680   0.199   6.880  0.4915  1.8861 -1.4232
  116OSM    H5G12166   0.612   0.351   6.897  1.1235  0.1339 -1.0017
  116OSM    C6F12167   0.637   0.244   7.096  0.1909 -0.3485 -0.2812
  116OSM    H6F12168   0.615   0.345   7.136  1.0923 -0.0467 -0.5184
  116OSM    H6G12169   0.725   0.201   7.149  0.2723 -0.2645 -0.3462
  116OSM    C7F12170   0.528   0.137   7.105  0.1153  0.5144  0.2616
  116OSM    H7F12171   0.582   0.041   7.093  1.1654  1.1765 -0.4096
  116OSM    H7G12172   0.451   0.159   7.027  0.7638 -0.6650 -0.7319
  116OSM    C8F12173   0.484   0.127   7.251  0.0917 -0.7557  0.1725
  116OSM    H8F12174   0.448   0.220   7.299 -0.5881 -1.4474  1.0408
  116OSM    H8G12175   0.573   0.084   7.304  0.4262 -2.1579 -1.4322
  116OSM    C9F12176   0.371   0.029   7.264 -0.2436 -0.1189  0.4746
  116OSM    H9F12177   0.324   0.015   7.165  0.8202 -2.8081  0.2718
  116OSM   C10F12178   0.324  -0.051   7.365 -0.8023  0.3554  0.5186
  116OSM   H10F12179   0.232  -0.111   7.356 -0.8491  0.7234 -1.9856
  116OSM   C11F12180   0.399  -0.050   7.498  0.4301 -0.4277 -0.6875
  116OSM   H11F12181   0.486   0.019   7.498  1.3303 -1.4964 -1.9883
  116OSM   H11G12182   0.455  -0.145   7.488  0.0262 -0.7632  0.1627
  116OSM   C12F12183   0.318  -0.054   7.629  0.6320 -0.1134 -0.1192
  116OSM   H12F12184   0.263  -0.149   7.643 -0.1592  0.1409 -1.3393
  116OSM   H12G12185   0.246   0.030   7.624  2.2307  1.3389  0.3153
  116OSM   C13F12186   0.400  -0.034   7.756  0.0908  0.9569  0.5845
  116OSM   H13F12187   0.403   0.077   7.769 -1.3142  1.2426 -1.0865
  116OSM   H13G12188   0.500  -0.080   7.750 -0.5104 -0.7680  2.5884
  116OSM   C14F12189   0.316  -0.082   7.873 -0.6270 -0.1189  0.0193
  116OSM   H14F12190   0.322  -0.193   7.873  0.6507 -0.0565 -0.2355
  116OSM   H14G12191   0.213  -0.058   7.837 -0.6143 -1.4562 -0.9951
  116OSM   C15F12192   0.363  -0.034   8.013 -0.9224  0.0272 -0.5313
  116OSM   H15F12193   0.361   0.075   8.031 -1.4860  0.0763 -0.8623
  116OSM   H15G12194   0.471  -0.062   8.012 -1.3289 -1.6976 -1.5166
  116OSM   C16F12195   0.293  -0.115   8.125 -0.1776 -0.1228 -0.0084
  116OSM   H16F12196   0.349  -0.080   8.215  0.2582  0.7422 -0.6023
  116OSM   H16G12197   0.305  -0.225   8.114 -1.0354 -0.1968 -0.2737
  116OSM   C17F12198   0.147  -0.076   8.145 -0.0960  0.7132  0.6203
  116OSM   H17F12199   0.114  -0.114   8.244  1.3120  1.0071  1.2382
  116OSM   H17G12200   0.090  -0.132   8.069  0.1326  2.7115 -1.1130
  116OSM   C18F12201   0.119   0.072   8.139 -0.4099  0.2454  0.0629
  116OSM   H18F12202   0.143   0.106   8.036  0.3454 -2.0522 -0.5742
  116OSM   H18G12203   0.187   0.122   8.211 -0.4913  2.3630 -1.2384
  116OSM   H18H12204   0.012   0.094   8.159 -0.2846  0.2962  0.7055
  117OSM      N12205   1.184   2.064   5.872  0.2121 -0.3646 -0.1909
  117OSM    C1512206   1.152   2.209   5.856 -0.2822 -0.9077 -0.1503
  117OSM   H15A12207   1.205   2.262   5.778 -1.3110 -1.6827 -1.4383
  117OSM   H15B12208   1.172   2.249   5.954 -0.2070 -1.3076 -0.0003
  117OSM   H15C12209   1.046   2.221   5.838 -0.1696  2.3322  0.7016
  117OSM    C1412210   1.161   1.992   5.743 -0.1350  0.8681  0.0588
  117OSM   H14A12211   1.181   1.887   5.759  1.1286  1.0834  0.0255
  117OSM   H14B12212   1.222   2.031   5.663  0.7603 -1.3267 -0.3807
  117OSM   H14C12213   1.060   2.010   5.709  0.2204  1.0402 -0.9410
  117OSM    C1312214   1.329   2.049   5.911 -0.3787  0.2383 -0.2122
  117OSM   H13A12215   1.358   1.946   5.922 -0.5178  0.2842  0.6294
  117OSM   H13B12216   1.352   2.091   6.008 -1.0148  0.4504 -0.1459
  117OSM   H13C12217   1.390   2.079   5.827  0.9296 -0.6446  0.3917
  117OSM    C1212218   1.093   2.017   5.984 -0.4548  0.1491  0.2138
  117OSM   H12A12219   1.116   1.914   6.004  0.9080 -0.0311 -1.8558
  117OSM   H12B12220   0.989   2.016   5.955 -0.0375 -0.2319 -1.3743
  117OSM    C1112221   1.102   2.089   6.125 -0.7638 -0.0927 -0.1303
  117OSM   H11A12222   1.040   2.019   6.185 -0.0927 -1.1832 -0.6693
  117OSM   H11B12223   1.055   2.189   6.116 -2.0084 -0.7574 -1.6471
  117OSM      P12224   1.276   2.200   6.290  0.1951  0.0945 -0.0793
  117OSM    O1312225   1.406   2.158   6.338 -0.6091  0.1284  0.5257
  117OSM    O1412226   1.277   2.338   6.247  0.5649 -0.6363  0.1124
  117OSM    O1112227   1.170   2.183   6.409  0.2870 -0.0644  0.9127
  117OSM    O1212228   1.231   2.106   6.174 -0.1289  0.3087  0.0687
  117OSM    C1S12229   1.191   2.239   6.538  0.0028 -0.0659 -0.7977
  117OSM    H1S12230   1.208   2.348   6.526  1.2359 -0.2434 -0.8199
  117OSM    H1T12231   1.277   2.191   6.590 -1.0275 -3.6258 -2.0664
  117OSM     NF12232   1.113   2.252   6.773  0.4949  0.3780 -0.1515
  117OSM    HNF12233   1.126   2.175   6.835 -3.3106 -1.3321 -1.1780
  117OSM    C2S12234   1.068   2.216   6.639 -1.1380  0.9766 -0.8024
  117OSM    H2S12235   0.986   2.281   6.601 -2.1836  0.4252  0.4313
  117OSM    C3S12236   1.013   2.064   6.614 -0.2903 -1.0839 -0.6454
  117OSM    H3S12237   1.092   1.990   6.640 -0.4559 -0.4069  1.9999
  117OSM     O312238   0.966   2.036   6.486  0.2824  0.4408  0.2916
  117OSM    HO312239   1.006   2.106   6.434  0.0284 -0.9520 -1.9368
  117OSM    C4S12240   0.913   2.030   6.715  0.4855  0.3822  0.3905
  117OSM    H4S12241   0.818   2.084   6.706 -0.5763 -1.1184  1.8043
  117OSM    C5S12242   0.920   1.927   6.805  0.0399  0.8946 -0.1058
  117OSM    H5S12243   1.006   1.858   6.809  0.1223  1.0307  0.4447
  117OSM    C6S12244   0.807   1.900   6.902  0.3221 -0.1010  0.5620
  117OSM    H6S12245   0.802   1.789   6.910  2.7662 -0.3612 -0.6904
  117OSM    H6T12246   0.705   1.929   6.872  0.6093  1.9298  1.3779
  117OSM    C7S12247   0.837   1.973   7.040  0.4484  0.7877 -0.4867
  117OSM    H7S12248   0.845   2.082   7.018  0.1762  0.9112  0.0157
  117OSM    H7T12249   0.940   1.951   7.077  1.0270  2.4538 -0.9742
  117OSM    C8S12250   0.735   1.962   7.152  0.3424 -0.3915  0.1809
  117OSM    H8S12251   0.730   1.853   7.171 -0.6053 -0.4085 -0.0766
  117OSM    H8T12252   0.637   2.000   7.115  1.0609  1.6128  0.2494
  117OSM    C9S12253   0.771   2.045   7.274  0.0200 -1.4813 -0.1411
  117OSM    H9S12254   0.789   2.150   7.242  1.9925 -1.2089  1.6433
  117OSM    H9T12255   0.871   2.026   7.318  0.1331  0.0363  0.2889
  117OSM   C10S12256   0.668   2.028   7.393 -0.2656  0.8279 -0.1002
  117OSM   H10S12257   0.649   1.921   7.416  1.5186 -0.1377 -2.6773
  117OSM   H10T12258   0.572   2.079   7.370  0.0665  2.2419  1.4969
  117OSM   C11S12259   0.702   2.089   7.530 -1.1830 -0.4329  0.0498
  117OSM   H11S12260   0.661   2.191   7.545  0.2185  0.1582 -0.0090
  117OSM   H11T12261   0.812   2.095   7.542 -1.3213 -0.2747  1.4191
  117OSM   C12S12262   0.651   2.012   7.649  0.5936  0.3992 -1.0426
  117OSM   H12S12263   0.691   1.909   7.651  1.5697  0.7044  2.3666
  117OSM   H12T12264   0.540   2.011   7.636  0.3972  0.5855  0.3969
  117OSM   C13S12265   0.683   2.086   7.780 -0.6979 -0.0915  0.1848
  117OSM   H13S12266   0.649   2.192   7.773  3.6810  1.4394 -1.5573
  117OSM   H13T12267   0.794   2.078   7.788 -0.5001  1.1505 -0.9631
  117OSM   C14S12268   0.620   2.015   7.902 -0.1808 -0.1092  0.1223
  117OSM   H14S12269   0.655   1.911   7.888 -0.3074 -0.0258 -0.8466
  117OSM   H14T12270   0.509   2.005   7.899 -0.2515  0.2908  0.9773
  117OSM   C15S12271   0.664   2.068   8.042  0.4887  0.7744 -0.3295
  117OSM   H15S12272   0.625   2.169   8.066  0.1457  0.0452  2.4278
  117OSM   H15T12273   0.775   2.074   8.051  0.7084 -1.8905 -0.3922
  117OSM   C16S12274   0.638   1.967   8.157  0.0760 -0.2932  0.0935
  117OSM   H16S12275   0.716   1.888   8.157  1.5180  1.0746  0.6015
  117OSM   H16T12276   0.539   1.920   8.141 -1.0100  1.3468  1.5697
  117OSM   C17S12277   0.646   2.033   8.292  0.1694 -0.0822 -0.4930
  117OSM   H17S12278   0.582   2.123   8.300 -0.5990 -0.6785  0.1933
  117OSM   H17T12279   0.749   2.072   8.306  0.5329 -1.3728  0.6611
  117OSM   C18S12280   0.607   1.936   8.406  0.2540 -0.0551  0.0986
  117OSM   H18S12281   0.691   1.863   8.408 -0.3531 -0.9327 -2.3897
  117OSM   H18T12282   0.515   1.875   8.392  0.9007 -0.9630 -0.2915
  117OSM   H18U12283   0.612   1.978   8.509  1.8151  1.6654 -0.6159
  117OSM    C1F12284   1.116   2.375   6.820  0.2001  0.6716  0.0100
  117OSM     OF12285   1.079   2.468   6.749  0.4891  0.1521 -0.2907
  117OSM    C2F12286   1.173   2.395   6.957 -0.2577 -0.1804  0.4204
  117OSM    H2F12287   1.281   2.418   6.947 -0.5638  0.8996 -0.5527
  117OSM    H2G12288   1.159   2.301   7.015  0.6540 -1.1374 -0.8633
  117OSM    C3F12289   1.101   2.498   7.047  0.8983  0.3854  0.1332
  117OSM    H3F12290   0.992   2.479   7.046  1.0016 -0.4518 -2.0449
  117OSM    H3G12291   1.110   2.600   7.003 -0.5040  1.5538  2.4062
  117OSM    C4F12292   1.149   2.507   7.194  0.0249 -0.2379 -0.0378
  117OSM    H4F12293   1.108   2.604   7.229  1.0174  0.2189 -0.1166
  117OSM    H4G12294   1.260   2.513   7.205  0.2744 -1.3529 -1.5819
  117OSM    C5F12295   1.100   2.394   7.273  0.0418  0.5560 -0.2585
  117OSM    H5F12296   1.158   2.305   7.240  1.3681  1.3673 -0.2018
  117OSM    H5G12297   0.992   2.381   7.250 -0.3959  0.8575  1.4957
  117OSM    C6F12298   1.099   2.400   7.423  0.2365  0.1417  0.2294
  117OSM    H6F12299   1.039   2.488   7.451 -0.3844  0.6306 -2.4354
  117OSM    H6G12300   1.206   2.404   7.455  1.3475 -4.8309 -1.8275
  117OSM    C7F12301   1.034   2.270   7.477  0.5134  0.7917 -0.3783
  117OSM    H7F12302   1.092   2.180   7.446 -0.7740 -0.4946  0.8160
  117OSM    H7G12303   0.932   2.257   7.436  0.9846  2.3077 -2.1888
  117OSM    C8F12304   1.035   2.260   7.631  0.5306  0.3391  0.5568
  117OSM    H8F12305   1.140   2.265   7.667  0.5849 -0.0257  0.4571
  117OSM    H8G12306   1.000   2.158   7.658  0.0927 -0.7025 -3.3324
  117OSM    C9F12307   0.945   2.368   7.697  0.0070 -0.9428 -0.1699
  117OSM    H9F12308   0.838   2.370   7.673  0.6141 -1.7751 -3.3894
  117OSM   C10F12309   0.984   2.461   7.798  0.0782  0.4115 -0.1730
  117OSM   H10F12310   0.901   2.516   7.843  0.1653  0.7961 -0.4765
  117OSM   C11F12311   1.121   2.473   7.875  0.1230  0.1748  0.4312
  117OSM   H11F12312   1.180   2.553   7.825 -1.0103  0.5345 -0.3544
  117OSM   H11G12313   1.191   2.391   7.848 -0.0746 -0.2185  1.0907
  117OSM   C12F12314   1.108   2.496   8.019 -0.1998 -0.6879 -0.4910
  117OSM   H12F12315   1.042   2.580   8.048  1.4911  0.5918 -0.1733
  117OSM   H12G12316   1.209   2.521   8.058 -0.8719  1.7266 -0.1116
  117OSM   C13F12317   1.067   2.376   8.099 -0.1268  1.1631 -0.5352
  117OSM   H13F12318   1.110   2.377   8.201 -1.3719  2.3052  0.0227
  117OSM   H13G12319   1.109   2.289   8.046  0.2056  0.0981  1.3957
  117OSM   C14F12320   0.912   2.357   8.123 -0.0065  0.0466  0.8152
  117OSM   H14F12321   0.881   2.251   8.142  0.2935 -0.3059 -0.5785
  117OSM   H14G12322   0.854   2.399   8.038 -0.9790 -1.6984  0.5673
  117OSM   C15F12323   0.882   2.453   8.237 -0.0104  0.2523 -0.2844
  117OSM   H15F12324   0.897   2.555   8.197 -1.6642 -0.4018 -2.8252
  117OSM   H15G12325   0.947   2.431   8.324 -0.7918 -0.3396  0.1659
  117OSM   C16F12326   0.739   2.447   8.291 -0.7296 -0.0626 -1.0451
  117OSM   H16F12327   0.708   2.354   8.343 -3.4309  1.6206  0.6647
  117OSM   H16G12328   0.668   2.456   8.205  1.7632  1.4450 -3.0845
  117OSM   C17F12329   0.717   2.551   8.403  0.2087  0.8313 -0.0788
  117OSM   H17F12330   0.625   2.528   8.460  2.6227  1.2685  4.4710
  117OSM   H17G12331   0.804   2.556   8.472  0.9048 -1.8896 -0.6197
  117OSM   C18F12332   0.686   2.686   8.350  0.2676  0.3198  0.1315
  117OSM   H18F12333   0.593   2.673   8.291  0.6929  0.2524 -0.5342
  117OSM   H18G12334   0.764   2.732   8.285 -0.2237  1.8096  0.5471
  117OSM   H18H12335   0.681   2.760   8.433  1.8285 -1.5272  1.9577
  118OSM      N12336   1.980   2.808   6.167  0.2580  0.0686 -0.7608
  118OSM    C1512337   2.001   2.909   6.274 -0.4605 -0.8411  0.3644
  118OSM   H15A12338   2.103   2.944   6.264 -0.7023 -0.2821 -0.1792
  118OSM   H15B12339   2.007   2.874   6.376  1.5707  0.7636  0.8709
  118OSM   H15C12340   1.927   2.987   6.274  0.2449 -0.1372 -0.6009
  118OSM    C1412341   1.860   2.722   6.203 -0.0221  0.1669  0.4125
  118OSM   H14A12342   1.881   2.651   6.281 -1.6974  0.6343  1.3327
  118OSM   H14B12343   1.816   2.668   6.120 -0.4423  1.4598 -0.2384
  118OSM   H14C12344   1.783   2.785   6.244 -0.5542 -1.1363  1.5010
  118OSM    C1312345   1.947   2.868   6.038 -0.2040 -0.3400 -0.6290
  118OSM   H13A12346   1.972   2.808   5.951 -0.6752  1.0794 -1.7888
  118OSM   H13B12347   1.998   2.962   6.023  0.8172 -0.1268  3.1298
  118OSM   H13C12348   1.843   2.892   6.030  0.1621  0.9562 -1.7674
  118OSM    C1212349   2.106   2.726   6.153  0.6745  0.3430  0.0264
  118OSM   H12A12350   2.091   2.636   6.095  0.6136  0.4457 -0.1152
  118OSM   H12B12351   2.131   2.690   6.252  0.0719 -0.8667 -0.2328
  118OSM    C1112352   2.221   2.809   6.085  0.1621  0.3870 -0.5260
  118OSM   H11A12353   2.261   2.898   6.139  3.2258 -1.7484  0.9861
  118OSM   H11B12354   2.187   2.846   5.986  0.4369  0.9051 -0.4306
  118OSM      P12355   2.411   2.641   6.165 -0.3966 -0.0457 -0.0164
  118OSM    O1312356   2.327   2.542   6.235 -0.8798  0.0375 -0.2637
  118OSM    O1412357   2.528   2.591   6.093 -0.7646 -0.3720  0.0590
  118OSM    O1112358   2.464   2.752   6.264 -0.4377  0.1137  0.1924
  118OSM    O1212359   2.325   2.715   6.055 -0.3656 -0.0929  0.6682
  118OSM    C1S12360   2.383   2.830   6.347 -0.7840 -1.0545  0.6050
  118OSM    H1S12361   2.274   2.809   6.342 -1.3131  1.3315  0.7951
  118OSM    H1T12362   2.380   2.934   6.307  0.7056 -0.5289  1.7579
  118OSM     NF12363   2.338   2.902   6.583  0.4350  0.9643  0.3822
  118OSM    HNF12364   2.381   2.985   6.615  1.6484  0.8966 -0.9598
  118OSM    C2S12365   2.422   2.831   6.494 -0.5653  0.9816 -0.1944
  118OSM    H2S12366   2.413   2.727   6.529 -0.3504  1.5917  1.7997
  118OSM    C3S12367   2.570   2.874   6.507  0.1078 -0.6873  0.0634
  118OSM    H3S12368   2.589   2.977   6.468 -0.4556 -1.0338 -1.1595
  118OSM     O312369   2.659   2.792   6.432  0.3377  0.1924 -0.0937
  118OSM    HO312370   2.604   2.762   6.360  2.1759 -0.4203 -1.3154
  118OSM    C4S12371   2.612   2.875   6.658 -0.1114 -0.3173  0.3620
  118OSM    H4S12372   2.631   2.973   6.703 -0.2240  0.0656 -0.4081
  118OSM    C5S12373   2.634   2.762   6.729 -0.3880  0.0114  0.1399
  118OSM    H5S12374   2.628   2.667   6.673  0.3986  0.5740 -0.9393
  118OSM    C6S12375   2.679   2.760   6.873  0.1601 -0.3599  0.5228
  118OSM    H6S12376   2.782   2.720   6.870 -0.6267 -2.4525 -1.0580
  118OSM    H6T12377   2.614   2.688   6.927  0.8831  0.6832  2.8815
  118OSM    C7S12378   2.659   2.885   6.961  0.5882 -0.1658 -0.7692
  118OSM    H7S12379   2.561   2.932   6.939 -0.2609 -0.7179  1.5853
  118OSM    H7T12380   2.734   2.964   6.938 -0.2704  0.4721 -1.4527
  118OSM    C8S12381   2.657   2.858   7.112  0.4565  0.0591 -0.4814
  118OSM    H8S12382   2.742   2.793   7.144  0.4013  0.4968  0.5728
  118OSM    H8T12383   2.566   2.801   7.139  1.9641 -1.2496  2.2765
  118OSM    C9S12384   2.650   2.982   7.199 -0.2808 -0.0709 -0.5361
  118OSM    H9S12385   2.566   3.042   7.157 -1.5612 -0.5456  1.2226
  118OSM    H9T12386   2.745   3.038   7.192  1.6021 -3.0297 -0.2856
  118OSM   C10S12387   2.604   2.962   7.346 -0.2312 -0.1513  0.2461
  118OSM   H10S12388   2.627   2.858   7.376 -2.4898 -0.2741  1.8724
  118OSM   H10T12389   2.493   2.971   7.351 -0.3998 -2.1861  1.2531
  118OSM   C11S12390   2.664   3.052   7.448  0.0738 -0.0072 -0.1316
  118OSM   H11S12391   2.632   3.158   7.451 -0.1437 -0.0945  1.0782
  118OSM   H11T12392   2.775   3.050   7.442  0.2826  2.1767  1.7467
  118OSM   C12S12393   2.634   3.008   7.595 -1.2618 -0.3729 -0.4065
  118OSM   H12S12394   2.637   2.897   7.594  0.8603 -0.3696 -0.7068
  118OSM   H12T12395   2.532   3.049   7.608 -1.4722 -0.2610 -2.1947
  118OSM   C13S12396   2.739   3.068   7.695 -0.0772  0.0709 -0.2976
  118OSM   H13S12397   2.793   3.160   7.665  0.0921 -0.1702 -0.7326
  118OSM   H13T12398   2.800   2.980   7.726 -0.8656  0.2762  2.0013
  118OSM   C14S12399   2.650   3.114   7.815  0.0553  0.3972  0.3156
  118OSM   H14S12400   2.574   3.184   7.773  0.1172  0.4127  0.2295
  118OSM   H14T12401   2.714   3.182   7.875  1.0695 -1.5451  1.5172
  118OSM   C15S12402   2.584   3.011   7.906 -0.4019  0.0479  0.3262
  118OSM   H15S12403   2.660   2.936   7.937 -0.8158  0.1434  1.6499
  118OSM   H15T12404   2.494   2.969   7.857 -0.7640  1.0501  0.1085
  118OSM   C16S12405   2.544   3.084   8.038 -0.2449  0.2237 -0.5014
  118OSM   H16S12406   2.457   3.151   8.023 -1.5884 -1.0745  1.0773
  118OSM   H16T12407   2.629   3.142   8.080 -0.2843 -1.4288  2.0839
  118OSM   C17S12408   2.485   2.990   8.143  0.1057 -0.1692 -0.6515
  118OSM   H17S12409   2.552   2.903   8.162 -1.9768 -1.4257  1.5035
  118OSM   H17T12410   2.386   2.959   8.104 -1.0865  3.9874 -1.3736
  118OSM   C18S12411   2.468   3.048   8.284  0.1328 -0.6438  0.1881
  118OSM   H18S12412   2.562   3.093   8.322 -0.6418  1.1711  0.0651
  118OSM   H18T12413   2.435   2.980   8.366  2.7131 -0.6713  1.2783
  118OSM   H18U12414   2.404   3.137   8.299  0.0130 -0.5839 -0.6651
  118OSM    C1F12415   2.207   2.874   6.591 -0.9497  0.4041 -0.0416
  118OSM     OF12416   2.172   2.773   6.532  0.1458  0.3484 -0.0456
  118OSM    C2F12417   2.114   2.965   6.663  0.6871 -0.6600  0.8396
  118OSM    H2F12418   2.046   3.008   6.586  1.7493  2.3927  1.4725
  118OSM    H2G12419   2.179   3.047   6.699 -0.0259 -0.7340  2.4089
  118OSM    C3F12420   2.022   2.898   6.774 -0.5554 -0.4555  0.2900
  118OSM    H3F12421   2.080   2.828   6.838 -1.3039 -1.3736 -0.0225
  118OSM    H3G12422   1.931   2.846   6.740 -0.3996 -0.8719  0.5102
  118OSM    C4F12423   1.967   3.010   6.871 -0.0683  0.3636  0.3672
  118OSM    H4F12424   1.927   3.091   6.807  0.4838 -1.5763 -2.6264
  118OSM    H4G12425   2.055   3.048   6.927 -0.3579  0.5891  0.6715
  118OSM    C5F12426   1.866   2.945   6.970  0.0334  0.0817  0.2480
  118OSM    H5F12427   1.894   2.842   6.998 -2.4983 -0.6112  0.5368
  118OSM    H5G12428   1.784   2.927   6.896  0.2157 -0.7723  0.2413
  118OSM    C6F12429   1.818   3.040   7.083 -0.3920 -0.3430 -0.6432
  118OSM    H6F12430   1.728   3.101   7.058 -1.0585 -0.8227  0.5044
  118OSM    H6G12431   1.898   3.114   7.102 -0.2658 -0.1147 -1.9531
  118OSM    C7F12432   1.784   2.960   7.208  0.5548 -0.8002 -0.6287
  118OSM    H7F12433   1.872   2.899   7.237  0.9601 -0.2669 -0.7165
  118OSM    H7G12434   1.694   2.897   7.189 -0.0390  0.1225 -0.9216
  118OSM    C8F12435   1.749   3.045   7.329 -0.9521 -0.0279 -0.3934
  118OSM    H8F12436   1.835   3.113   7.350 -1.9093  0.7425  1.2641
  118OSM    H8G12437   1.750   2.977   7.417 -2.0244 -1.6815 -1.6107
  118OSM    C9F12438   1.627   3.135   7.307  0.1923  0.4701 -0.3005
  118OSM    H9F12439   1.642   3.208   7.226 -0.6159 -0.8491 -1.7081
  118OSM   C10F12440   1.512   3.124   7.371  1.0326  0.0979 -1.0690
  118OSM   H10F12441   1.427   3.191   7.348  0.9056  0.5292  0.5585
  118OSM   C11F12442   1.479   3.021   7.478 -0.1068  0.0696  0.4775
  118OSM   H11F12443   1.571   2.978   7.523 -0.3082 -0.9732 -0.0729
  118OSM   H11G12444   1.419   2.941   7.430  0.5356  0.4899 -1.0843
  118OSM   C12F12445   1.407   3.063   7.608 -0.1779 -1.0041 -0.2688
  118OSM   H12F12446   1.339   2.985   7.647 -0.8489 -0.5044 -0.4249
  118OSM   H12G12447   1.339   3.149   7.589  1.1230  0.1727  0.2133
  118OSM   C13F12448   1.502   3.102   7.722 -0.7390  0.4171  0.1047
  118OSM   H13F12449   1.551   3.199   7.700  0.1291  0.1141  0.6158
  118OSM   H13G12450   1.581   3.023   7.731 -0.8030  0.4963  1.6188
  118OSM   C14F12451   1.429   3.138   7.855  0.9322  0.0792  0.1121
  118OSM   H14F12452   1.388   3.042   7.894  1.8753 -0.6001 -0.5333
  118OSM   H14G12453   1.338   3.199   7.836 -0.4209 -1.3721  1.6930
  118OSM   C15F12454   1.530   3.197   7.952 -0.0779  0.1300 -0.6093
  118OSM   H15F12455   1.591   3.283   7.916  1.1626  0.2629  1.6549
  118OSM   H15G12456   1.596   3.116   7.988 -0.7012  0.3849  1.2059
  118OSM   C16F12457   1.455   3.262   8.074  0.3246  0.1575  0.7663
  118OSM   H16F12458   1.361   3.314   8.046 -0.3663 -0.0644  2.5113
  118OSM   H16G12459   1.524   3.336   8.121 -0.0531  0.3046  1.0932
  118OSM   C17F12460   1.413   3.166   8.187 -0.3098  0.6605  1.4175
  118OSM   H17F12461   1.495   3.103   8.227  1.0062  1.4287  0.0307
  118OSM   H17G12462   1.336   3.096   8.147  0.8150  1.0488 -1.6989
  118OSM   C18F12463   1.339   3.245   8.296 -0.2923  0.4819 -0.4975
  118OSM   H18F12464   1.424   3.297   8.345  2.0531 -2.0445 -1.6274
  118OSM   H18G12465   1.303   3.165   8.364  1.2608 -1.4289 -1.7889
  118OSM   H18H12466   1.259   3.315   8.263 -0.9705  0.5129  1.1501
  119OSM      N12467   3.587   4.401   5.554  0.7257 -0.0894  0.1873
  119OSM    C1512468   3.431   4.380   5.533 -0.0111 -0.3212  0.2148
  119OSM   H15A12469   3.379   4.472   5.554  1.1344  0.0219  1.7236
  119OSM   H15B12470   3.393   4.305   5.601 -0.3804  0.2241  0.6059
  119OSM   H15C12471   3.418   4.343   5.432 -0.2279  2.9344 -1.0686
  119OSM    C1412472   3.665   4.273   5.551  0.6444 -1.3101 -0.3062
  119OSM   H14A12473   3.661   4.236   5.450 -1.0365  0.5743 -0.9948
  119OSM   H14B12474   3.637   4.196   5.622 -1.7383 -0.5360 -0.3215
  119OSM   H14C12475   3.766   4.297   5.581  0.5150 -1.6282  0.4286
  119OSM    C1312476   3.643   4.485   5.441  0.5756 -0.6444 -0.0864
  119OSM   H13A12477   3.750   4.480   5.445  0.7696  1.0548 -1.7961
  119OSM   H13B12478   3.623   4.590   5.457  1.0732 -0.6698  0.7852
  119OSM   H13C12479   3.604   4.454   5.345 -0.8174 -0.0156  0.2349
  119OSM    C1212480   3.622   4.477   5.681  0.5554  0.2904  0.1382
  119OSM   H12A12481   3.569   4.570   5.665 -1.6877 -1.3171 -2.9364
  119OSM   H12B12482   3.730   4.487   5.678  0.5578  0.1500 -1.8126
  119OSM    C1112483   3.584   4.412   5.813 -0.0656 -0.1436 -0.5684
  119OSM   H11A12484   3.473   4.407   5.814 -0.2694  0.7308  3.7157
  119OSM   H11B12485   3.602   4.482   5.898 -0.9692 -0.2061 -0.3085
  119OSM      P12486   3.771   4.251   5.893 -0.1679 -0.2056 -0.1502
  119OSM    O1312487   3.792   4.109   5.898 -0.2045  0.5259  0.5905
  119OSM    O1412488   3.876   4.326   5.819  0.2379 -0.2334  0.7069
  119OSM    O1112489   3.774   4.305   6.045 -0.1885  0.0445 -0.7231
  119OSM    O1212490   3.625   4.276   5.838  0.9073 -0.1775  0.2117
  119OSM    C1S12491   3.676   4.257   6.139  0.0255 -0.2715 -0.4129
  119OSM    H1S12492   3.680   4.146   6.142  0.9382 -0.2241  0.6394
  119OSM    H1T12493   3.576   4.293   6.106  0.0620 -1.7683 -2.4144
  119OSM     NF12494   3.633   4.248   6.383 -0.4388  0.9433 -0.0719
  119OSM    HNF12495   3.556   4.293   6.427 -2.1334 -0.3220 -1.6282
  119OSM    C2S12496   3.708   4.318   6.278  0.5059 -0.2837 -0.1445
  119OSM    H2S12497   3.817   4.321   6.300  0.6638  0.9191 -1.0178
  119OSM    C3S12498   3.684   4.481   6.274  0.2420  0.3579  0.0106
  119OSM    H3S12499   3.575   4.501   6.269  0.4073  1.2058 -0.4322
  119OSM     O312500   3.752   4.551   6.176  0.0754 -0.4978  0.3253
  119OSM    HO312501   3.801   4.488   6.122  1.9890  1.1658  0.0225
  119OSM    C4S12502   3.726   4.535   6.418  0.0343  0.3264 -0.0626
  119OSM    H4S12503   3.642   4.532   6.490 -0.5878  0.2016 -0.7755
  119OSM    C5S12504   3.843   4.591   6.448  0.5302  0.2594  0.5801
  119OSM    H5S12505   3.915   4.610   6.367 -0.7192 -2.1312 -1.2342
  119OSM    C6S12506   3.889   4.644   6.577  0.1745 -0.5807  0.8911
  119OSM    H6S12507   3.870   4.752   6.592  0.1812 -0.6815  1.6655
  119OSM    H6T12508   3.999   4.631   6.586  0.4385  0.8293 -0.0325
  119OSM    C7S12509   3.821   4.566   6.690 -0.1640 -0.1625 -0.3154
  119OSM    H7S12510   3.840   4.459   6.669  1.8862 -0.6203  3.1239
  119OSM    H7T12511   3.713   4.590   6.706 -0.3992 -1.9752  1.1519
  119OSM    C8S12512   3.892   4.601   6.823 -0.5373 -0.2455 -0.4459
  119OSM    H8S12513   3.887   4.709   6.848  0.9167  0.2141 -2.0008
  119OSM    H8T12514   4.003   4.590   6.817 -0.5019 -0.0058 -0.2606
  119OSM    C9S12515   3.826   4.525   6.936  0.2587 -0.5794 -0.2545
  119OSM    H9S12516   3.818   4.418   6.905  2.1285 -1.0414  0.6987
  119OSM    H9T12517   3.726   4.571   6.949  0.0721 -1.2432  0.8246
  119OSM   C10S12518   3.907   4.534   7.065  0.0560  0.0121 -0.4110
  119OSM   H10S12519   3.938   4.640   7.081 -0.8530  0.0355  1.5722
  119OSM   H10T12520   4.006   4.490   7.040 -0.9455 -1.5934 -1.7377
  119OSM   C11S12521   3.859   4.456   7.186 -0.6734  0.6475  0.1419
  119OSM   H11S12522   3.887   4.349   7.171 -1.3231  0.3489  0.9760
  119OSM   H11T12523   3.749   4.454   7.198 -0.6465 -0.1592  0.3310
  119OSM   C12S12524   3.929   4.501   7.316 -0.5193 -0.3225  1.0891
  119OSM   H12S12525   3.929   4.612   7.316 -0.3823 -0.3151  0.2644
  119OSM   H12T12526   4.037   4.483   7.298 -0.1980  2.3035 -0.0688
  119OSM   C13S12527   3.881   4.425   7.438 -0.5746 -0.5772 -0.9588
  119OSM   H13S12528   3.908   4.319   7.419  0.7210 -0.2478 -1.0469
  119OSM   H13T12529   3.776   4.441   7.470  0.1707  2.7557  0.2331
  119OSM   C14S12530   3.959   4.474   7.567  0.3242 -0.2844 -0.5231
  119OSM   H14S12531   3.947   4.584   7.579 -2.9885 -0.5177 -0.6087
  119OSM   H14T12532   4.066   4.447   7.562  0.4961  0.4331 -0.7703
  119OSM   C15S12533   3.894   4.418   7.694 -0.1317 -0.6480 -0.2973
  119OSM   H15S12534   3.907   4.308   7.699 -1.2821 -0.7427  1.0686
  119OSM   H15T12535   3.786   4.442   7.704  0.1446  0.2201  0.8093
  119OSM   C16S12536   3.957   4.473   7.820  0.1034 -0.4913 -0.1136
  119OSM   H16S12537   3.953   4.584   7.825  0.5992 -0.4942  0.3966
  119OSM   H16T12538   4.066   4.453   7.819  0.2943  0.4788 -0.1412
  119OSM   C17S12539   3.881   4.426   7.942 -0.0137 -0.1276  0.2997
  119OSM   H17S12540   3.880   4.315   7.944  1.4412 -0.1525  0.5605
  119OSM   H17T12541   3.781   4.474   7.937  0.5524  1.0370 -0.3187
  119OSM   C18S12542   3.940   4.479   8.071 -0.1649  0.2351 -0.2710
  119OSM   H18S12543   3.912   4.407   8.152  0.8258 -1.1797 -1.1489
  119OSM   H18T12544   3.905   4.582   8.096 -2.8540 -1.0926  2.1808
  119OSM   H18U12545   4.050   4.478   8.081 -0.1960  0.2464  0.1088
  119OSM    C1F12546   3.666   4.121   6.406  1.5467  0.0246 -0.1880
  119OSM     OF12547   3.776   4.078   6.376  0.1178  0.4314 -0.3305
  119OSM    C2F12548   3.553   4.034   6.462 -0.0885  0.1917  0.1614
  119OSM    H2F12549   3.507   3.993   6.370  1.5770  0.4441 -0.8243
  119OSM    H2G12550   3.471   4.093   6.509 -0.9104  1.0580 -2.2194
  119OSM    C3F12551   3.616   3.922   6.551  0.1910 -0.7558  0.8366
  119OSM    H3F12552   3.649   3.969   6.646 -1.4254  1.5783  0.3340
  119OSM    H3G12553   3.700   3.870   6.499 -0.7264  0.4307 -2.0702
  119OSM    C4F12554   3.523   3.808   6.603 -0.1558 -0.1045 -0.3591
  119OSM    H4F12555   3.464   3.754   6.527  0.9440 -0.0069 -1.3055
  119OSM    H4G12556   3.459   3.839   6.688  0.4114  2.2275 -0.7172
  119OSM    C5F12557   3.615   3.691   6.662  0.2382 -0.3298  0.2418
  119OSM    H5F12558   3.691   3.667   6.583  0.2077  2.1269 -0.6157
  119OSM    H5G12559   3.553   3.603   6.688  1.8953 -1.3965  0.7386
  119OSM    C6F12560   3.690   3.732   6.791  0.1764 -0.1112  0.1238
  119OSM    H6F12561   3.613   3.772   6.861  2.0725  1.9377  1.1435
  119OSM    H6G12562   3.755   3.820   6.774  1.1840 -0.9283 -0.3325
  119OSM    C7F12563   3.763   3.607   6.842 -0.9513 -0.3555 -0.3301
  119OSM    H7F12564   3.852   3.593   6.777 -0.0951 -1.1458  0.9504
  119OSM    H7G12565   3.708   3.510   6.842  1.8704 -2.2432  3.6323
  119OSM    C8F12566   3.816   3.630   6.987  0.5707  0.0016  0.6034
  119OSM    H8F12567   3.737   3.657   7.060  0.7898  1.7167  0.2606
  119OSM    H8G12568   3.879   3.722   6.994  0.6733  0.2829 -2.5077
  119OSM    C9F12569   3.899   3.515   7.029 -0.8551  0.1602 -0.3974
  119OSM    H9F12570   3.979   3.485   6.959 -0.8043 -0.7518  0.0466
  119OSM   C10F12571   3.871   3.436   7.141  0.3217 -0.2589  0.7300
  119OSM   H10F12572   3.951   3.370   7.179  2.8333  3.7320  3.0896
  119OSM   C11F12573   3.759   3.456   7.239 -0.1135  0.5741 -0.3943
  119OSM   H11F12574   3.710   3.358   7.258  1.3740 -0.0310  0.5665
  119OSM   H11G12575   3.680   3.529   7.212  1.8481  3.3166  0.7990
  119OSM   C12F12576   3.809   3.507   7.381 -1.2838 -0.3032 -0.8144
  119OSM   H12F12577   3.868   3.600   7.364  0.9172 -1.0661  2.0304
  119OSM   H12G12578   3.875   3.428   7.421 -2.4262 -1.5476 -1.2860
  119OSM   C13F12579   3.677   3.545   7.460 -0.7377  1.0799 -0.2908
  119OSM   H13F12580   3.615   3.454   7.474 -1.6274  1.5673 -0.9927
  119OSM   H13G12581   3.618   3.624   7.409 -3.0055 -0.4428 -0.1568
  119OSM   C14F12582   3.704   3.597   7.604  0.3288  0.7554  0.1628
  119OSM   H14F12583   3.608   3.603   7.660  2.0569 -0.6439  3.6431
  119OSM   H14G12584   3.766   3.690   7.609  0.6115  0.5629  0.2838
  119OSM   C15F12585   3.787   3.497   7.688 -0.0895 -0.5268  0.1620
  119OSM   H15F12586   3.884   3.463   7.647  1.4918  0.7471  2.6134
  119OSM   H15G12587   3.717   3.410   7.693 -1.1104  0.3242  1.3779
  119OSM   C16F12588   3.813   3.548   7.833  0.1342  0.2417  1.0820
  119OSM   H16F12589   3.845   3.653   7.816  0.7492 -0.1184 -0.0985
  119OSM   H16G12590   3.894   3.484   7.874  0.1605 -0.4150  0.0462
  119OSM   C17F12591   3.693   3.544   7.925 -0.1448  0.1363 -0.3745
  119OSM   H17F12592   3.655   3.440   7.939 -1.9255  0.8871  0.8485
  119OSM   H17G12593   3.606   3.591   7.875  1.4389  1.0806 -2.4007
  119OSM   C18F12594   3.716   3.613   8.056 -0.2831  0.8296 -0.5859
  119OSM   H18F12595   3.632   3.594   8.125  0.3865  1.2801  0.3868
  119OSM   H18G12596   3.740   3.722   8.055  0.7703  0.6669  1.3254
  119OSM   H18H12597   3.803   3.569   8.110 -0.4668 -0.8110 -1.5642
  120OSM      N12598   6.054   6.577   6.054  0.2381  0.2219  0.5674
  120OSM    C1512599   6.148   6.486   5.979 -0.0856 -0.3817 -0.1531
  120OSM   H15A12600   6.176   6.397   6.035 -0.3260  0.1355  0.8155
  120OSM   H15B12601   6.232   6.549   5.957 -1.6362  2.1137  0.6507
  120OSM   H15C12602   6.103   6.446   5.889 -0.8959 -0.8385  0.4396
  120OSM    C1412603   6.031   6.694   5.968 -0.2253  0.6790 -0.2004
  120OSM   H14A12604   5.957   6.672   5.891 -0.8696 -2.0405  1.0761
  120OSM   H14B12605   6.125   6.721   5.922 -0.2058 -0.2662 -0.7370
  120OSM   H14C12606   6.004   6.782   6.024  2.2807  1.6607 -0.3885
  120OSM    C1312607   5.919   6.504   6.085  0.2937 -0.0802  0.2783
  120OSM   H13A12608   5.854   6.577   6.130  0.6633  1.5038 -1.6127
  120OSM   H13B12609   5.932   6.422   6.155  1.8063  0.4301  0.6284
  120OSM   H13C12610   5.874   6.464   5.995  1.5300 -0.7920 -0.0562
  120OSM    C1212611   6.113   6.635   6.179  0.7912  0.2333 -0.4379
  120OSM   H12A12612   6.196   6.697   6.147 -0.3211  2.3369  0.5472
  120OSM   H12B12613   6.154   6.555   6.238 -0.7643  0.8648  1.6057
  120OSM    C1112614   6.023   6.722   6.277  0.4133 -0.0276 -0.1237
  120OSM   H11A12615   6.072   6.746   6.374  0.8084  2.7017 -0.9029
  120OSM   H11B12616   5.932   6.666   6.304 -1.0404  2.0660 -0.4250
  120OSM      P12617   6.053   6.983   6.218  0.1968  0.1452 -0.1140
  120OSM    O1312618   6.194   6.950   6.206  0.1188 -0.6043  0.0842
  120OSM    O1412619   5.994   7.074   6.121 -0.1292  0.1983  0.1068
  120OSM    O1112620   6.032   7.019   6.369 -0.2489  0.0207  0.0283
  120OSM    O1212621   5.977   6.847   6.213  0.5922  0.3304 -0.3386
  120OSM    C1S12622   5.925   6.974   6.451  0.1805  1.2005  0.2401
  120OSM    H1S12623   5.932   6.869   6.485 -1.8888  0.4708 -1.3805
  120OSM    H1T12624   5.826   6.983   6.400  0.6575 -1.0461 -1.2061
  120OSM     NF12625   5.834   6.995   6.681  0.3380 -0.5176  1.3754
  120OSM    HNF12626   5.736   7.011   6.669  0.1816 -0.3855  2.7453
  120OSM    C2S12627   5.914   7.060   6.577 -0.3465 -0.0654 -1.0158
  120OSM    H2S12628   6.020   7.074   6.609 -1.2975  3.2857  1.3134
  120OSM    C3S12629   5.871   7.200   6.526 -0.0609 -0.3068 -0.3336
  120OSM    H3S12630   5.773   7.183   6.478 -0.9140 -0.6546  1.4465
  120OSM     O312631   5.967   7.257   6.440  0.3244 -0.6523 -0.2402
  120OSM    HO312632   6.011   7.186   6.393  1.2965 -0.2006 -0.0541
  120OSM    C4S12633   5.845   7.297   6.638 -0.7582  0.4863  0.2306
  120OSM    H4S12634   5.753   7.274   6.694  0.4755  0.0847  2.2219
  120OSM    C5S12635   5.934   7.389   6.690  0.9767 -0.2514 -0.2519
  120OSM    H5S12636   6.035   7.403   6.650  2.0032 -2.5308  1.2968
  120OSM    C6S12637   5.898   7.472   6.809  0.2402  0.3976 -0.7238
  120OSM    H6S12638   5.989   7.492   6.870  0.5264 -0.9704 -0.6811
  120OSM    H6T12639   5.841   7.402   6.873  1.2375 -0.9588 -1.2762
  120OSM    C7S12640   5.826   7.605   6.781 -0.5321  0.0244 -0.2032
  120OSM    H7S12641   5.719   7.581   6.759 -0.2253 -0.8847 -0.7792
  120OSM    H7T12642   5.864   7.652   6.687 -1.0517  0.5995 -0.1322
  120OSM    C8S12643   5.834   7.699   6.905  0.7579 -1.2380  0.2484
  120OSM    H8S12644   5.774   7.791   6.888  0.3027 -1.4597  0.6382
  120OSM    H8T12645   5.943   7.714   6.917  0.6620  1.2803 -1.3431
  120OSM    C9S12646   5.775   7.641   7.031 -0.1312  0.6866 -0.4982
  120OSM    H9S12647   5.788   7.531   7.035  0.9170  0.7582 -1.3119
  120OSM    H9T12648   5.665   7.650   7.024 -0.3317 -2.3343 -4.0774
  120OSM   C10S12649   5.840   7.704   7.151 -0.4766 -0.8140  0.3289
  120OSM   H10S12650   5.843   7.815   7.139  1.2568 -0.8427  0.2676
  120OSM   H10T12651   5.949   7.684   7.159 -0.3770  0.1536  1.9905
  120OSM   C11S12652   5.787   7.643   7.271  0.3009  0.5575 -0.3985
  120OSM   H11S12653   5.812   7.535   7.273 -0.7324  0.2976  1.6741
  120OSM   H11T12654   5.677   7.659   7.273  0.0418 -0.8203  2.6943
  120OSM   C12S12655   5.842   7.706   7.399 -0.6573 -0.1347 -0.7742
  120OSM   H12S12656   5.863   7.813   7.379 -0.3470  0.0494  0.4635
  120OSM   H12T12657   5.945   7.669   7.418 -0.5845  0.9277  1.0721
  120OSM   C13S12658   5.742   7.692   7.514  0.8612  0.9462 -0.1275
  120OSM   H13S12659   5.692   7.593   7.504  2.1096  0.4171 -1.5061
  120OSM   H13T12660   5.675   7.778   7.492  0.7492  2.5041  5.0332
  120OSM   C14S12661   5.806   7.695   7.656 -0.0725 -0.8613  0.0482
  120OSM   H14S12662   5.874   7.782   7.664  0.0806 -0.9999  0.2808
  120OSM   H14T12663   5.870   7.604   7.653 -0.1059 -0.8724 -0.3401
  120OSM   C15S12664   5.695   7.678   7.759 -0.5268  0.0420  0.3270
  120OSM   H15S12665   5.682   7.570   7.778  0.3425 -0.6199 -2.4471
  120OSM   H15T12666   5.595   7.699   7.714 -0.2498 -1.1781 -0.9074
  120OSM   C16S12667   5.718   7.746   7.890 -0.1123 -0.3746  0.1234
  120OSM   H16S12668   5.739   7.854   7.874 -0.9187 -0.2638 -0.2506
  120OSM   H16T12669   5.811   7.705   7.935  1.1896  1.8251 -0.4165
  120OSM   C17S12670   5.594   7.729   7.979  0.1717  0.2855  0.0536
  120OSM   H17S12671   5.564   7.622   7.983 -0.7449  0.4963 -0.8124
  120OSM   H17T12672   5.506   7.787   7.944 -0.4102 -0.1235  0.8164
  120OSM   C18S12673   5.631   7.778   8.120 -0.5242  0.5093  0.0923
  120OSM   H18S12674   5.687   7.700   8.176  1.3068  0.8602 -1.1577
  120OSM   H18T12675   5.546   7.817   8.180 -1.0208 -0.9237  0.3668
  120OSM   H18U12676   5.697   7.867   8.114 -0.6986  0.9500  3.1702
  120OSM    C1F12677   5.883   6.895   6.753  0.6438  0.2101 -0.2323
  120OSM     OF12678   6.003   6.871   6.740  0.0992 -0.3910  0.3343
  120OSM    C2F12679   5.789   6.805   6.844 -0.8542 -0.0937  0.3606
  120OSM    H2F12680   5.810   6.699   6.817 -3.9157 -0.6240 -0.3013
  120OSM    H2G12681   5.686   6.818   6.807  0.0237  0.5863 -2.0231
  120OSM    C3F12682   5.818   6.834   6.988  0.0427 -0.7395 -0.1231
  120OSM    H3F12683   5.818   6.943   7.008 -1.4148 -0.5730 -0.9195
  120OSM    H3G12684   5.919   6.798   7.018 -0.1819  1.4867  4.0218
  120OSM    C4F12685   5.719   6.767   7.085  0.3165  0.5770  0.8672
  120OSM    H4F12686   5.717   6.657   7.067 -1.8123  0.6868  0.1091
  120OSM    H4G12687   5.612   6.788   7.062  0.2987  0.2925  0.6877
  120OSM    C5F12688   5.744   6.795   7.235 -0.9744 -0.2109 -0.0271
  120OSM    H5F12689   5.722   6.902   7.253  1.7435  0.3873  0.1959
  120OSM    H5G12690   5.851   6.779   7.261 -1.4163 -1.1203  1.3660
  120OSM    C6F12691   5.655   6.716   7.331  0.6408  0.2432  0.4269
  120OSM    H6F12692   5.668   6.608   7.308 -0.8517 -0.3911  2.2674
  120OSM    H6G12693   5.549   6.742   7.313  0.4542 -0.9817 -0.4504
  120OSM    C7F12694   5.687   6.737   7.479  0.2372  0.8232 -0.1236
  120OSM    H7F12695   5.670   6.844   7.501  1.9836  0.3105  4.9288
  120OSM    H7G12696   5.793   6.723   7.510 -0.2626  0.8713  1.7499
  120OSM    C8F12697   5.593   6.651   7.571  0.1150 -0.1548 -1.0152
  120OSM    H8F12698   5.633   6.666   7.673  1.5817 -0.0014 -1.5849
  120OSM    H8G12699   5.607   6.543   7.547  2.0345  0.2038 -1.6786
  120OSM    C9F12700   5.444   6.683   7.565  0.0520  0.7984 -0.2202
  120OSM    H9F12701   5.406   6.672   7.463 -1.4541 -0.8183  0.4685
  120OSM   C10F12702   5.362   6.712   7.668  0.1906 -0.1540  0.5079
  120OSM   H10F12703   5.254   6.725   7.650 -0.0813 -0.9424  1.4462
  120OSM   C11F12704   5.401   6.718   7.813  0.2026  0.6747 -0.4740
  120OSM   H11F12705   5.311   6.752   7.869  0.8399  0.4890  0.6932
  120OSM   H11G12706   5.474   6.800   7.831  1.4800 -0.0846 -1.9694
  120OSM   C12F12707   5.447   6.579   7.870 -0.5746 -0.3641  0.0478
  120OSM   H12F12708   5.526   6.532   7.807  1.3490  2.1415  0.3902
  120OSM   H12G12709   5.362   6.509   7.857 -1.3049  0.6627 -0.8241
  120OSM   C13F12710   5.500   6.590   8.016 -0.3290  0.4927  0.1453
  120OSM   H13F12711   5.429   6.630   8.091 -0.3875  1.3091 -0.3284
  120OSM   H13G12712   5.593   6.650   8.027  2.2062 -2.2172 -3.7913
  120OSM   C14F12713   5.519   6.453   8.079 -0.0306 -0.6955 -0.2455
  120OSM   H14F12714   5.548   6.388   7.993  0.5196  0.7290 -1.1714
  120OSM   H14G12715   5.424   6.406   8.111 -1.4741  0.8986 -1.9593
  120OSM   C15F12716   5.635   6.454   8.180  0.3946 -0.1709 -0.7390
  120OSM   H15F12717   5.594   6.505   8.270 -1.2694  2.0101 -2.6053
  120OSM   H15G12718   5.716   6.518   8.138 -0.2538  1.1617 -0.0557
  120OSM   C16F12719   5.689   6.324   8.231  0.1351 -0.0291  0.5496
  120OSM   H16F12720   5.782   6.357   8.282  1.1611 -1.7463 -0.1319
  120OSM   H16G12721   5.705   6.268   8.136 -1.9517 -0.8226  0.6101
  120OSM   C17F12722   5.599   6.256   8.335 -0.3662  0.1658  0.1513
  120OSM   H17F12723   5.506   6.233   8.279  0.1506  1.8969 -1.5304
  120OSM   H17G12724   5.582   6.336   8.411 -0.1614  0.7927 -0.4481
  120OSM   C18F12725   5.644   6.124   8.408  0.0535 -0.3559  0.8077
  120OSM   H18F12726   5.629   6.037   8.342 -0.2828  0.5208 -0.3063
  120OSM   H18G12727   5.582   6.112   8.500 -1.7270  1.9440  0.0204
  120OSM   H18H12728   5.752   6.122   8.434 -0.2494  0.1627  2.2124
  121OSM      N12729   3.547   2.518   6.134  0.4834  0.4714 -0.3345
  121OSM    C1512730   3.565   2.616   6.249  0.4285  0.4249  0.2673
  121OSM   H15A12731   3.556   2.567   6.345 -1.3879 -0.0628 -0.1078
  121OSM   H15B12732   3.484   2.686   6.230  0.3021  0.1250 -0.3364
  121OSM   H15C12733   3.662   2.663   6.252  0.9024 -0.5616  0.8005
  121OSM    C1412734   3.582   2.597   6.009 -0.2996  0.6481  0.1045
  121OSM   H14A12735   3.506   2.672   5.993  0.5955  1.5204 -0.1295
  121OSM   H14B12736   3.583   2.535   5.921 -0.5106 -1.3759  1.4569
  121OSM   H14C12737   3.670   2.658   6.023  1.1531 -0.8979 -1.6745
  121OSM    C1312738   3.652   2.410   6.140 -0.3431  0.1601 -0.3543
  121OSM   H13A12739   3.650   2.354   6.232 -1.1847  3.5232  1.8455
  121OSM   H13B12740   3.748   2.459   6.130 -1.0181  1.9416  1.3373
  121OSM   H13C12741   3.644   2.352   6.050 -0.4376  0.2940 -0.4324
  121OSM    C1212742   3.409   2.454   6.129  0.0466 -0.6163  0.2435
  121OSM   H12A12743   3.411   2.368   6.195  0.3492 -1.9706 -1.4798
  121OSM   H12B12744   3.396   2.408   6.033  1.6935 -1.4244  0.3755
  121OSM    C1112745   3.291   2.554   6.154  0.2870  0.3201  0.0859
  121OSM   H11A12746   3.293   2.593   6.258 -2.0171  0.6986  0.0487
  121OSM   H11B12747   3.203   2.492   6.126  0.6044 -1.2407  2.3173
  121OSM      P12748   3.177   2.781   6.064  0.2212 -0.2978 -0.2584
  121OSM    O1312749   3.219   2.906   5.996 -0.6782 -0.7286 -0.3820
  121OSM    O1412750   3.055   2.716   6.016 -0.6677 -0.4406 -0.9802
  121OSM    O1112751   3.157   2.819   6.212  0.1589 -0.7701  0.3426
  121OSM    O1212752   3.297   2.665   6.067 -0.3692  0.0533  0.4188
  121OSM    C1S12753   3.268   2.879   6.289 -0.9144 -0.0906 -0.2553
  121OSM    H1S12754   3.301   2.977   6.250  0.8684 -0.0437  1.2661
  121OSM    H1T12755   3.360   2.820   6.271 -1.7920 -0.8607 -2.7353
  121OSM     NF12756   3.319   2.993   6.487 -0.3083 -0.4511  0.0913
  121OSM    HNF12757   3.401   2.954   6.527  0.1506  0.1167 -0.2830
  121OSM    C2S12758   3.225   2.900   6.437  0.1836  0.2064  0.0891
  121OSM    H2S12759   3.121   2.938   6.446 -0.0791 -0.6438  0.7567
  121OSM    C3S12760   3.221   2.758   6.512 -0.5007 -0.2147  0.2055
  121OSM    H3S12761   3.316   2.702   6.499 -2.2311 -3.1359 -1.2395
  121OSM     O312762   3.130   2.662   6.459  0.1204  0.3919  0.1460
  121OSM    HO312763   3.104   2.697   6.373  2.4347  0.0767 -0.7532
  121OSM    C4S12764   3.203   2.790   6.656 -0.2980 -0.3178  0.2783
  121OSM    H4S12765   3.298   2.823   6.701  0.0887  2.3997 -2.2816
  121OSM    C5S12766   3.087   2.798   6.718 -0.1632 -0.0452 -0.3322
  121OSM    H5S12767   2.997   2.763   6.664  0.3640 -0.9789 -0.6116
  121OSM    C6S12768   3.064   2.843   6.863 -0.3958  0.0594 -0.5569
  121OSM    H6S12769   2.998   2.770   6.913  0.3708 -0.1067  0.2302
  121OSM    H6T12770   3.002   2.935   6.858 -1.4264 -0.4568  1.7740
  121OSM    C7S12771   3.192   2.882   6.946 -0.2796  0.0946 -0.2264
  121OSM    H7S12772   3.251   2.946   6.877  1.4188 -1.2362 -0.0859
  121OSM    H7T12773   3.257   2.794   6.965  1.9082  1.9103  1.2682
  121OSM    C8S12774   3.163   2.958   7.078  0.3834  0.4979  0.0158
  121OSM    H8S12775   3.088   3.035   7.052  0.0547  1.3333  3.1488
  121OSM    H8T12776   3.255   3.015   7.100  0.3589  0.8332 -0.7007
  121OSM    C9S12777   3.125   2.870   7.191  0.4364  0.6140  0.2146
  121OSM    H9S12778   3.214   2.808   7.213 -0.0402 -0.6863 -1.3735
  121OSM    H9T12779   3.042   2.800   7.170  0.0951  0.9984  0.2629
  121OSM   C10S12780   3.089   2.928   7.330  0.5608  0.0083 -0.0672
  121OSM   H10S12781   2.985   2.964   7.343  0.6689  0.4812 -0.4583
  121OSM   H10T12782   3.158   3.013   7.347  0.4482  0.3534 -1.2226
  121OSM   C11S12783   3.111   2.823   7.429 -0.1980  0.5712 -0.0070
  121OSM   H11S12784   3.220   2.806   7.435 -0.0894  1.0029 -0.6077
  121OSM   H11T12785   3.063   2.730   7.392  0.4874  1.2265 -2.8291
  121OSM   C12S12786   3.049   2.852   7.562 -0.7343 -0.1412 -0.0513
  121OSM   H12S12787   2.942   2.822   7.550 -0.6704  0.1141 -1.5022
  121OSM   H12T12788   3.054   2.957   7.599  1.8644 -1.2356  3.2140
  121OSM   C13S12789   3.125   2.782   7.672 -0.2901 -0.3456  0.5225
  121OSM   H13S12790   3.235   2.794   7.680 -0.1782  1.1159 -2.1902
  121OSM   H13T12791   3.124   2.675   7.643  0.1862  0.0401 -1.0039
  121OSM   C14S12792   3.056   2.796   7.811 -0.0497 -0.1039  0.2633
  121OSM   H14S12793   3.103   2.719   7.876 -0.9706 -1.2885 -0.4339
  121OSM   H14T12794   2.956   2.749   7.804  0.8382 -1.8743 -1.5484
  121OSM   C15S12795   3.057   2.937   7.879 -0.2384  0.2415 -0.5124
  121OSM   H15S12796   3.015   3.022   7.821 -0.0016 -0.0458 -1.1107
  121OSM   H15T12797   3.165   2.960   7.892  0.8965 -2.8820 -3.1766
  121OSM   C16S12798   2.970   2.940   7.999  0.1964 -0.2138 -0.1195
  121OSM   H16S12799   2.974   2.855   8.069 -0.2508  0.0867  0.2731
  121OSM   H16T12800   2.864   2.966   7.977  0.5665 -1.1118 -3.6105
  121OSM   C17S12801   3.023   3.060   8.080 -0.7342 -0.0819  0.1672
  121OSM   H17S12802   3.035   3.146   8.012 -0.6997  0.9799  1.4684
  121OSM   H17T12803   3.125   3.035   8.116 -0.8926  1.1499  1.5601
  121OSM   C18S12804   2.929   3.079   8.197 -0.5265  0.2583 -0.4770
  121OSM   H18S12805   2.927   2.986   8.257  0.1932  0.2090 -0.5246
  121OSM   H18T12806   2.827   3.106   8.164 -0.3733  3.1545  1.0979
  121OSM   H18U12807   2.953   3.160   8.269 -1.5795  0.8265 -0.7498
  121OSM    C1F12808   3.317   3.126   6.472  0.1372 -0.7028  0.5031
  121OSM     OF12809   3.217   3.176   6.416 -0.7823  0.3112  0.3061
  121OSM    C2F12810   3.435   3.206   6.527  0.7554  0.4053  0.8260
  121OSM    H2F12811   3.489   3.259   6.445 -0.0175  2.3674  1.5283
  121OSM    H2G12812   3.500   3.133   6.579  0.6293 -1.8975 -2.0289
  121OSM    C3F12813   3.390   3.316   6.624 -0.4070 -0.6958 -0.0585
  121OSM    H3F12814   3.300   3.367   6.585  0.4194  1.7939  1.0339
  121OSM    H3G12815   3.464   3.399   6.628 -2.4882  1.3229 -1.0048
  121OSM    C4F12816   3.364   3.273   6.769  0.3793  0.1529  0.4925
  121OSM    H4F12817   3.331   3.167   6.770  0.3236  0.1665  1.7070
  121OSM    H4G12818   3.288   3.335   6.819  0.9635  1.2568  0.0388
  121OSM    C5F12819   3.493   3.282   6.859 -0.0047  0.1748  0.1878
  121OSM    H5F12820   3.527   3.388   6.857  1.5760 -0.2982  0.6703
  121OSM    H5G12821   3.565   3.223   6.798 -1.4917  0.0051 -1.4957
  121OSM    C6F12822   3.490   3.236   7.002 -0.9448 -0.1210 -0.3088
  121OSM    H6F12823   3.594   3.239   7.043 -0.7027  0.2956 -0.9483
  121OSM    H6G12824   3.450   3.132   7.003  1.2617 -1.0406  0.6917
  121OSM    C7F12825   3.407   3.327   7.092 -0.1003  0.4182  0.0143
  121OSM    H7F12826   3.306   3.333   7.045  0.0059 -2.1768 -0.6651
  121OSM    H7G12827   3.447   3.430   7.100  2.9287 -0.5581 -1.1398
  121OSM    C8F12828   3.395   3.269   7.231 -0.6945 -0.3882  0.0823
  121OSM    H8F12829   3.481   3.300   7.294  0.5233 -1.7425 -0.8393
  121OSM    H8G12830   3.405   3.158   7.221  0.5523 -0.5262  2.2849
  121OSM    C9F12831   3.257   3.298   7.291  0.6612  0.9469 -0.0305
  121OSM    H9F12832   3.186   3.314   7.209  1.8175 -1.0498 -1.5295
  121OSM   C10F12833   3.225   3.305   7.424 -0.1179 -0.4023 -0.2546
  121OSM   H10F12834   3.125   3.337   7.456  0.0480 -0.9296  0.8360
  121OSM   C11F12835   3.324   3.285   7.532 -0.2653  0.1626  0.1641
  121OSM   H11F12836   3.314   3.368   7.606  1.8560  0.2481  0.4097
  121OSM   H11G12837   3.425   3.289   7.487 -0.7659 -0.1141 -1.0172
  121OSM   C12F12838   3.323   3.145   7.615 -0.6763 -0.3967  0.4785
  121OSM   H12F12839   3.344   3.059   7.547  1.7184  1.5387 -1.4015
  121OSM   H12G12840   3.221   3.130   7.657 -1.0091  1.4487  0.3955
  121OSM   C13F12841   3.410   3.155   7.733 -0.1566  0.3735  0.3591
  121OSM   H13F12842   3.516   3.168   7.701 -0.8423  2.8325 -1.2090
  121OSM   H13G12843   3.398   3.058   7.786 -2.6219  0.4320  0.0383
  121OSM   C14F12844   3.357   3.254   7.827  0.3557 -0.0718  0.5541
  121OSM   H14F12845   3.246   3.251   7.818  0.3718  2.2964 -1.2618
  121OSM   H14G12846   3.387   3.352   7.784  0.8650 -0.9205 -1.1088
  121OSM   C15F12847   3.394   3.250   7.971 -0.0824  0.1722 -1.0327
  121OSM   H15F12848   3.503   3.234   7.984 -0.4453  0.0607  2.7484
  121OSM   H15G12849   3.351   3.158   8.014  0.5253  0.6430  0.6375
  121OSM   C16F12850   3.341   3.366   8.057 -0.3356  0.1919  0.3835
  121OSM   H16F12851   3.239   3.391   8.020 -0.6097 -2.2791 -0.7193
  121OSM   H16G12852   3.409   3.453   8.043  0.1108  0.0157  1.3774
  121OSM   C17F12853   3.348   3.333   8.202 -0.5796  0.0914  0.1526
  121OSM   H17F12854   3.298   3.235   8.212 -0.3324  0.0098  0.6406
  121OSM   H17G12855   3.291   3.409   8.259  1.7577  1.9015  0.2631
  121OSM   C18F12856   3.491   3.328   8.263 -0.1752  0.2337 -0.1582
  121OSM   H18F12857   3.536   3.229   8.241  0.2526  0.1884  0.8775
  121OSM   H18G12858   3.470   3.339   8.371  2.5207 -1.1016  0.5945
  121OSM   H18H12859   3.555   3.410   8.225  0.3637 -0.2962 -0.4034
  122OSM      N12860   5.338   5.156   6.055  0.0196  0.1643 -0.5306
  122OSM    C1512861   5.338   5.104   6.195  0.0096  0.2904  0.0116
  122OSM   H15A12862   5.319   4.998   6.189 -2.1366  0.6891 -1.6211
  122OSM   H15B12863   5.253   5.140   6.252  0.2209 -0.8495  1.0913
  122OSM   H15C12864   5.428   5.131   6.247  0.2555  1.2180 -0.8673
  122OSM    C1412865   5.450   5.079   5.983  0.0440 -0.3999  0.2376
  122OSM   H14A12866   5.541   5.087   6.040 -0.0057  3.1647 -0.0036
  122OSM   H14B12867   5.453   5.120   5.883  1.9767  1.2292  0.9108
  122OSM   H14C12868   5.425   4.975   5.966 -0.0891 -0.1794 -1.0869
  122OSM    C1312869   5.215   5.118   5.986 -0.0275 -0.0059 -0.5555
  122OSM   H13A12870   5.228   5.152   5.884  2.0658 -1.3423 -0.7830
  122OSM   H13B12871   5.120   5.149   6.028  0.1722 -0.4752  0.2512
  122OSM   H13C12872   5.205   5.010   5.982 -0.6957  0.0659 -0.9337
  122OSM    C1212873   5.365   5.305   6.048  0.1083  0.5359  0.2854
  122OSM   H12A12874   5.457   5.319   6.103  1.3083  1.3291 -1.7916
  122OSM   H12B12875   5.298   5.363   6.110  1.0652  0.5927  1.2808
  122OSM    C1112876   5.362   5.378   5.905  0.3092 -0.1905 -0.0293
  122OSM   H11A12877   5.424   5.317   5.836  1.2006  0.6560  0.0072
  122OSM   H11B12878   5.419   5.471   5.924  0.3177  0.6885 -3.6130
  122OSM      P12879   5.160   5.534   5.891 -0.1130  0.3745  0.0274
  122OSM    O1312880   5.231   5.650   5.838  0.7080 -0.4826 -0.6233
  122OSM    O1412881   5.019   5.515   5.862  0.4185 -0.4110  0.0797
  122OSM    O1112882   5.181   5.547   6.049 -0.3929  0.1505  0.5542
  122OSM    O1212883   5.227   5.399   5.862 -0.4525 -0.0574  0.0131
  122OSM    C1S12884   5.080   5.533   6.144 -0.6015  0.4289 -0.8703
  122OSM    H1S12885   5.031   5.434   6.133 -1.9781  1.0081 -0.1628
  122OSM    H1T12886   5.008   5.614   6.120 -0.0489  0.5674 -2.1429
  122OSM     NF12887   5.045   5.493   6.382  1.1049 -0.0617 -0.1235
  122OSM    HNF12888   5.001   5.561   6.439  2.6336 -0.2606  1.3678
  122OSM    C2S12889   5.142   5.542   6.292 -0.2288  0.0407 -0.4407
  122OSM    H2S12890   5.231   5.477   6.279 -1.3759 -1.7142  0.0065
  122OSM    C3S12891   5.191   5.682   6.318  0.0286 -0.0235 -0.3804
  122OSM    H3S12892   5.109   5.756   6.332 -0.1776 -0.1467 -0.9271
  122OSM     O312893   5.279   5.728   6.221  0.1366  1.0253  0.1183
  122OSM    HO312894   5.278   5.672   6.143 -0.2765  0.6652  0.3752
  122OSM    C4S12895   5.269   5.698   6.456  0.2682 -0.1438  0.7525
  122OSM    H4S12896   5.351   5.626   6.471  0.1837 -0.0892  1.4962
  122OSM    C5S12897   5.243   5.779   6.553  0.4614  0.0082 -0.5220
  122OSM    H5S12898   5.170   5.861   6.543  0.8392  0.4866  0.5412
  122OSM    C6S12899   5.305   5.797   6.689  0.1250 -0.0815  0.0293
  122OSM    H6S12900   5.222   5.804   6.762 -1.5973  2.4154 -1.9764
  122OSM    H6T12901   5.362   5.892   6.699 -0.3234  0.2772 -0.7323
  122OSM    C7S12902   5.406   5.683   6.730  0.4758  0.1945 -0.8189
  122OSM    H7S12903   5.491   5.689   6.659  1.2304 -1.0820 -0.0487
  122OSM    H7T12904   5.358   5.583   6.722 -2.2667  1.2278  1.1803
  122OSM    C8S12905   5.466   5.708   6.864  1.2097 -0.8380 -0.0674
  122OSM    H8S12906   5.485   5.817   6.872 -2.5252 -0.0934  0.6443
  122OSM    H8T12907   5.562   5.656   6.885  1.8728  0.4351  0.1438
  122OSM    C9S12908   5.381   5.681   6.994 -0.0955  0.6323 -0.2641
  122OSM    H9S12909   5.382   5.571   7.004  0.3338  0.7524  1.4870
  122OSM    H9T12910   5.278   5.722   6.989 -1.4152 -2.2513  1.1520
  122OSM   C10S12911   5.460   5.728   7.119  0.5992  0.6056 -0.0438
  122OSM   H10S12912   5.485   5.834   7.095  0.6033  0.7099  0.4009
  122OSM   H10T12913   5.559   5.679   7.131 -0.5136 -1.6835  0.1128
  122OSM   C11S12914   5.378   5.707   7.252 -0.0545 -0.2127 -0.2627
  122OSM   H11S12915   5.349   5.600   7.260  0.1667 -0.2209  0.5340
  122OSM   H11T12916   5.293   5.776   7.236  0.1151  0.5511  1.8016
  122OSM   C12S12917   5.465   5.757   7.371  0.0690  0.5856 -0.1958
  122OSM   H12S12918   5.500   5.859   7.343  1.0768 -0.0744 -1.4451
  122OSM   H12T12919   5.548   5.686   7.391  0.1976  0.5232 -0.9557
  122OSM   C13S12920   5.379   5.774   7.492 -0.0226 -0.2084  0.2770
  122OSM   H13S12921   5.310   5.690   7.512 -2.9417  1.8168 -0.6939
  122OSM   H13T12922   5.301   5.850   7.470 -0.4351 -0.2656  1.4838
  122OSM   C14S12923   5.455   5.805   7.628 -0.0766  0.5400 -0.3965
  122OSM   H14S12924   5.523   5.891   7.609  0.0636  0.7559  1.0100
  122OSM   H14T12925   5.517   5.716   7.651 -0.6328  0.4633  0.8597
  122OSM   C15S12926   5.366   5.836   7.750 -0.1729  0.3035  0.7934
  122OSM   H15S12927   5.321   5.742   7.789 -1.3328  0.1908 -0.7037
  122OSM   H15T12928   5.283   5.895   7.705 -0.7840 -1.7491 -0.9259
  122OSM   C16S12929   5.439   5.924   7.845 -0.2003 -0.2390 -0.6185
  122OSM   H16S12930   5.448   6.021   7.792 -0.5473  0.0181 -0.2216
  122OSM   H16T12931   5.540   5.882   7.863  0.5444  1.6004 -0.1738
  122OSM   C17S12932   5.369   5.941   7.977 -0.6846 -0.3153  0.2388
  122OSM   H17S12933   5.331   5.847   8.022 -1.6119  0.7535  1.7647
  122OSM   H17T12934   5.273   5.996   7.970  0.5143  1.8645  0.0139
  122OSM   C18S12935   5.455   6.005   8.081  0.2679  0.1347  0.4078
  122OSM   H18S12936   5.559   5.968   8.077  0.4022  0.4737  0.7345
  122OSM   H18T12937   5.413   5.987   8.182  1.5882 -1.4930  0.7011
  122OSM   H18U12938   5.466   6.114   8.063  1.3244 -0.0541 -0.1209
  122OSM    C1F12939   5.024   5.363   6.398 -0.2755 -0.3330 -0.4803
  122OSM     OF12940   5.078   5.276   6.330  0.3821 -0.3512 -0.6848
  122OSM    C2F12941   4.919   5.325   6.505 -0.2577  0.4265  0.3970
  122OSM    H2F12942   4.855   5.413   6.527 -0.0141  0.9163 -0.7926
  122OSM    H2G12943   4.974   5.304   6.600 -0.4927  3.1732  1.2342
  122OSM    C3F12944   4.836   5.202   6.463  0.4616 -0.0648 -0.1091
  122OSM    H3F12945   4.899   5.119   6.424  0.1039 -0.6124  0.4535
  122OSM    H3G12946   4.762   5.224   6.384  1.0686 -1.4896 -1.1271
  122OSM    C4F12947   4.770   5.124   6.577 -0.0552 -0.5130  0.6972
  122OSM    H4F12948   4.845   5.079   6.645  0.2554 -0.6670  0.2601
  122OSM    H4G12949   4.730   5.031   6.531 -0.4404 -0.0656  0.1210
  122OSM    C5F12950   4.666   5.197   6.652  0.5482 -0.1533  0.1318
  122OSM    H5F12951   4.619   5.277   6.591  0.5938 -1.9148 -2.3378
  122OSM    H5G12952   4.712   5.261   6.731 -0.2523  0.8161 -0.1702
  122OSM    C6F12953   4.560   5.101   6.721  0.5354  0.8542 -0.0224
  122OSM    H6F12954   4.562   5.017   6.649 -1.0110  0.8372 -0.0670
  122OSM    H6G12955   4.460   5.150   6.714 -0.4772 -0.7423  2.1709
  122OSM    C7F12956   4.605   5.049   6.855 -0.0392 -0.1924  0.1354
  122OSM    H7F12957   4.708   5.008   6.848  0.4070  0.7963  0.8349
  122OSM    H7G12958   4.550   4.957   6.887 -0.4431  0.4227  1.2599
  122OSM    C8F12959   4.602   5.147   6.972  0.5588 -0.1853 -0.1114
  122OSM    H8F12960   4.681   5.217   6.938 -0.8417  0.3008 -2.5657
  122OSM    H8G12961   4.639   5.091   7.061 -1.7202  1.2318  1.8559
  122OSM    C9F12962   4.478   5.219   6.995  0.4313 -0.1793  0.2638
  122OSM    H9F12963   4.422   5.225   6.901 -0.0779  2.0575  0.6512
  122OSM   C10F12964   4.429   5.260   7.113  1.0209 -0.4748  0.1608
  122OSM   H10F12965   4.327   5.303   7.120 -0.1448 -2.9987 -0.0980
  122OSM   C11F12966   4.496   5.243   7.251  0.8498 -0.3542  0.0820
  122OSM   H11F12967   4.505   5.347   7.288  1.3929 -0.2074 -0.4433
  122OSM   H11G12968   4.597   5.198   7.244  0.9528 -0.7046  2.8612
  122OSM   C12F12969   4.407   5.166   7.352  0.2426  0.3767  0.0407
  122OSM   H12F12970   4.460   5.172   7.449 -0.9532  1.2669  0.6725
  122OSM   H12G12971   4.400   5.057   7.333 -1.8521  0.5423 -0.4223
  122OSM   C13F12972   4.271   5.233   7.383  0.2727 -0.6193  0.9018
  122OSM   H13F12973   4.202   5.229   7.296  0.3940  1.7355  0.6469
  122OSM   H13G12974   4.292   5.341   7.395 -0.0121 -0.6392  1.6068
  122OSM   C14F12975   4.193   5.162   7.495  0.3388  0.5939  0.0129
  122OSM   H14F12976   4.173   5.057   7.464 -3.3243  0.9255  0.7080
  122OSM   H14G12977   4.092   5.203   7.518 -0.2449 -0.4433 -0.6348
  122OSM   C15F12978   4.264   5.159   7.631  0.1577 -0.7660  0.5500
  122OSM   H15F12979   4.351   5.091   7.620 -0.9788 -2.3130  0.7738
  122OSM   H15G12980   4.197   5.107   7.703  0.8333 -2.8507 -0.2669
  122OSM   C16F12981   4.305   5.298   7.685  0.6328  0.1984  0.2320
  122OSM   H16F12982   4.214   5.361   7.695 -0.2643 -1.0121 -0.0657
  122OSM   H16G12983   4.382   5.338   7.616 -1.9686  2.9693 -1.3214
  122OSM   C17F12984   4.363   5.283   7.829 -0.3629  0.4124 -0.0483
  122OSM   H17F12985   4.435   5.199   7.829  1.0817  1.5947 -0.8477
  122OSM   H17G12986   4.276   5.245   7.887 -1.9262  0.0618 -2.5081
  122OSM   C18F12987   4.412   5.418   7.889  0.0941 -0.0402 -0.1830
  122OSM   H18F12988   4.460   5.395   7.987 -1.3630  1.2590  0.8802
  122OSM   H18G12989   4.319   5.476   7.908 -1.0235 -2.0753  0.9757
  122OSM   H18H12990   4.488   5.471   7.828 -0.1106 -0.6224 -0.9546
  123OSM      N12991   0.108   5.390   6.589 -0.1799 -0.0114 -0.6171
  123OSM    C1512992   0.134   5.363   6.441  0.0647 -0.4695  0.2919
  123OSM   H15A12993   0.185   5.451   6.405  2.9388 -1.1669  2.2451
  123OSM   H15B12994   0.048   5.330   6.384 -0.1209  2.0635 -1.0278
  123OSM   H15C12995   0.204   5.281   6.435  0.5597 -0.0295  0.0251
  123OSM    C1412996   0.098   5.252   6.654 -0.5650  0.3134 -0.2343
  123OSM   H14A12997   0.092   5.260   6.761 -0.5157  0.2103 -0.2243
  123OSM   H14B12998   0.184   5.193   6.629  1.1104  2.7940 -0.7147
  123OSM   H14C12999   0.009   5.197   6.626 -0.1541  0.3476 -1.6765
  123OSM    C1313000   0.229   5.456   6.652  0.4138 -0.0964 -0.4767
  123OSM   H13A13001   0.226   5.468   6.759 -1.2093  1.4825 -0.6545
  123OSM   H13B13002   0.236   5.555   6.610 -2.5911  0.3414 -0.1791
  123OSM   H13C13003   0.313   5.395   6.622  1.3495 -0.0075  1.7879
  123OSM    C1213004  -0.007   5.485   6.600  0.1876 -0.0171 -0.2864
  123OSM   H12A13005  -0.006   5.518   6.702 -1.3276 -0.5708 -0.0765
  123OSM   H12B13006  -0.096   5.428   6.581  0.5228 -0.8950  0.7204
  123OSM    C1113007  -0.014   5.610   6.512  0.6294 -0.6236 -0.0829
  123OSM   H11A13008   0.092   5.643   6.518  0.5956 -0.8666  3.2715
  123OSM   H11B13009  -0.084   5.684   6.555  1.9480 -1.1149  3.1679
  123OSM      P13010  -0.185   5.508   6.334  0.4146 -0.1968  0.1535
  123OSM    O1313011  -0.270   5.594   6.242  0.5636 -0.0626 -0.1529
  123OSM    O1413012  -0.155   5.370   6.292 -0.1179  0.3064  0.2606
  123OSM    O1113013  -0.262   5.505   6.472  0.6270 -0.5248 -0.3789
  123OSM    O1213014  -0.050   5.572   6.380 -0.2842 -0.1258  0.2445
  123OSM    C1S13015  -0.321   5.385   6.515 -0.3118  0.3263 -0.1587
  123OSM    H1S13016  -0.252   5.298   6.516  0.4843  0.9118 -1.4764
  123OSM    H1T13017  -0.407   5.358   6.451 -2.1737  0.9292  1.9776
  123OSM     NF13018  -0.433   5.263   6.686  0.5899 -0.2178 -0.1575
  123OSM    HNF13019  -0.533   5.259   6.690  0.4712  0.9000 -1.3836
  123OSM    C2S13020  -0.371   5.390   6.660 -0.2823 -0.2508 -0.2767
  123OSM    H2S13021  -0.278   5.388   6.721  0.1017 -1.2324 -0.8745
  123OSM    C3S13022  -0.453   5.524   6.694 -0.1557  0.1646  0.0746
  123OSM    H3S13023  -0.544   5.538   6.631 -0.7861  1.3222  1.2022
  123OSM     O313024  -0.363   5.632   6.674  0.0547 -0.2838  0.3083
  123OSM    HO313025  -0.326   5.612   6.588 -4.0570 -0.3421 -1.6851
  123OSM    C4S13026  -0.495   5.513   6.839  0.9193  0.0453  1.0232
  123OSM    H4S13027  -0.416   5.529   6.914  2.1762  0.4060 -0.3310
  123OSM    C5S13028  -0.618   5.479   6.875 -0.0587  0.1908 -0.3954
  123OSM    H5S13029  -0.700   5.459   6.803 -1.1750  0.1286  0.8579
  123OSM    C6S13030  -0.665   5.475   7.020  0.1656  0.4407  0.4719
  123OSM    H6S13031  -0.740   5.554   7.044  0.0621  0.4488  0.1232
  123OSM    H6T13032  -0.582   5.497   7.090  2.5820 -0.7851 -1.8381
  123OSM    C7S13033  -0.719   5.335   7.041  0.2205  0.2246 -0.1845
  123OSM    H7S13034  -0.636   5.264   7.058  0.9186  1.0960  0.1593
  123OSM    H7T13035  -0.780   5.318   6.950 -1.6302  0.5421  0.9431
  123OSM    C8S13036  -0.804   5.341   7.166  0.9500 -0.1826  0.0184
  123OSM    H8S13037  -0.844   5.238   7.180  1.4323 -0.6765 -1.8772
  123OSM    H8T13038  -0.896   5.402   7.157 -0.9112 -2.5165  1.8807
  123OSM    C9S13039  -0.727   5.378   7.296 -0.1183 -0.7201  0.0979
  123OSM    H9S13040  -0.688   5.482   7.291 -0.7117 -0.3485  2.1434
  123OSM    H9T13041  -0.640   5.311   7.308 -0.6317 -1.5558 -0.7468
  123OSM   C10S13042  -0.816   5.368   7.416 -0.1969  0.3677 -0.0875
  123OSM   H10S13043  -0.836   5.262   7.443  2.5777 -1.7743 -4.9998
  123OSM   H10T13044  -0.915   5.413   7.392 -2.3584 -3.5570  0.5277
  123OSM   C11S13045  -0.765   5.449   7.538  0.3530 -0.4154  0.1158
  123OSM   H11S13046  -0.733   5.552   7.512  0.0899 -0.5182 -0.6526
  123OSM   H11T13047  -0.667   5.403   7.562  0.8155  0.1893 -0.5677
  123OSM   C12S13048  -0.853   5.439   7.665  0.2691  0.2559  0.1466
  123OSM   H12S13049  -0.888   5.334   7.676 -1.2072  0.6065 -0.8901
  123OSM   H12T13050  -0.936   5.510   7.645  0.6481  0.5558 -0.3942
  123OSM   C13S13051  -0.775   5.479   7.795 -0.0268  0.5102  0.3899
  123OSM   H13S13052  -0.742   5.584   7.799 -0.9336  0.8024  0.5851
  123OSM   H13T13053  -0.688   5.415   7.819  0.0044  0.4497  0.1250
  123OSM   C14S13054  -0.869   5.462   7.913  0.1304  0.0070 -0.1143
  123OSM   H14S13055  -0.921   5.364   7.904  1.2836 -0.5320 -1.2688
  123OSM   H14T13056  -0.951   5.537   7.916 -1.5594 -1.7618 -0.2538
  123OSM   C15S13057  -0.788   5.470   8.040  0.9946 -0.2650 -0.3139
  123OSM   H15S13058  -0.727   5.562   8.052  1.5406 -0.7563  0.8628
  123OSM   H15T13059  -0.703   5.400   8.051  1.5005  0.7026  3.3752
  123OSM   C16S13060  -0.857   5.440   8.170  0.4902  0.4845  0.5605
  123OSM   H16S13061  -0.901   5.339   8.163 -2.1608  1.5677  0.5012
  123OSM   H16T13062  -0.943   5.507   8.189  0.7848  0.6790  1.2730
  123OSM   C17S13063  -0.760   5.430   8.284 -0.8748  0.1031 -0.2179
  123OSM   H17S13064  -0.717   5.531   8.305 -0.2408  0.0895 -1.3678
  123OSM   H17T13065  -0.670   5.372   8.255 -0.7609  0.1234  0.0878
  123OSM   C18S13066  -0.823   5.362   8.407  0.2203 -0.4601  0.5192
  123OSM   H18S13067  -0.763   5.360   8.500  1.0488 -1.2175 -0.0144
  123OSM   H18T13068  -0.849   5.259   8.376 -0.6133  0.3118 -1.5203
  123OSM   H18U13069  -0.927   5.395   8.428 -0.6115 -1.4546 -1.7384
  123OSM    C1F13070  -0.367   5.149   6.680 -0.1049  0.3179  0.2689
  123OSM     OF13071  -0.245   5.157   6.696  0.1170 -0.0530  0.1487
  123OSM    C2F13072  -0.441   5.020   6.662 -0.2677 -0.6036  0.5838
  123OSM    H2F13073  -0.392   4.963   6.580  0.0110  2.1331 -1.3171
  123OSM    H2G13074  -0.542   5.048   6.623  0.8147 -2.4682 -4.2273
  123OSM    C3F13075  -0.434   4.935   6.789  0.1339  0.0907 -0.1644
  123OSM    H3F13076  -0.329   4.937   6.825 -0.5127 -3.6294  2.4604
  123OSM    H3G13077  -0.469   4.830   6.779 -0.7601  0.3754 -0.1617
  123OSM    C4F13078  -0.515   4.994   6.915 -0.5149 -0.0185 -0.3687
  123OSM    H4F13079  -0.619   5.010   6.879 -0.6303  1.4827  0.5640
  123OSM    H4G13080  -0.464   5.089   6.938  3.2403 -1.3268 -2.4578
  123OSM    C5F13081  -0.496   4.903   7.044  0.2602 -0.5031  0.1031
  123OSM    H5F13082  -0.390   4.893   7.073  0.2523  3.0921  1.9376
  123OSM    H5G13083  -0.534   4.801   7.021  1.2380 -1.1107  1.0729
  123OSM    C6F13084  -0.560   4.963   7.173 -0.5962  0.0603  0.5096
  123OSM    H6F13085  -0.658   5.006   7.142 -0.0707 -0.2146 -1.7240
  123OSM    H6G13086  -0.495   5.049   7.198 -1.5386  0.7360  0.6766
  123OSM    C7F13087  -0.559   4.865   7.285  0.0246 -1.0054  0.6761
  123OSM    H7F13088  -0.461   4.812   7.296 -0.2671 -1.8146 -0.4467
  123OSM    H7G13089  -0.647   4.799   7.273 -1.0091  0.5388 -0.6469
  123OSM    C8F13090  -0.607   4.937   7.412  0.4565  0.4501  0.8290
  123OSM    H8F13091  -0.610   4.854   7.485 -2.7698 -0.2861  0.0281
  123OSM    H8G13092  -0.713   4.969   7.405  0.7823  1.4822  0.3721
  123OSM    C9F13093  -0.520   5.056   7.448  0.3951 -0.0298 -0.1714
  123OSM    H9F13094  -0.546   5.149   7.396  0.3026 -0.9427 -1.8220
  123OSM   C10F13095  -0.426   5.053   7.545 -0.0930  0.7102  0.6457
  123OSM   H10F13096  -0.369   5.144   7.570 -0.9628  1.6234 -0.5705
  123OSM   C11F13097  -0.390   4.929   7.626  0.0526 -0.2676  0.8436
  123OSM   H11F13098  -0.475   4.858   7.630 -0.6964  0.4768 -0.6793
  123OSM   H11G13099  -0.359   4.948   7.730  0.6139 -2.9904  1.2384
  123OSM   C12F13100  -0.273   4.856   7.556 -0.3703  0.4127 -0.0094
  123OSM   H12F13101  -0.293   4.828   7.451  2.0097  0.5416 -0.5463
  123OSM   H12G13102  -0.257   4.766   7.619  0.5124  1.5765  1.5085
  123OSM   C13F13103  -0.130   4.922   7.583  0.0626 -0.4007 -0.5728
  123OSM   H13F13104  -0.115   4.922   7.693 -1.1051  0.3697 -0.3795
  123OSM   H13G13105  -0.139   5.027   7.547 -1.0327 -0.0907  0.5177
  123OSM   C14F13106  -0.012   4.863   7.498  0.1522 -0.5172  0.1976
  123OSM   H14F13107  -0.024   4.857   7.388  2.3205  0.9613 -0.1773
  123OSM   H14G13108  -0.002   4.757   7.529 -0.0945 -0.3600  0.8480
  123OSM   C15F13109   0.120   4.948   7.522  0.0704  0.0830  0.0997
  123OSM   H15F13110   0.136   4.993   7.622  1.4288  1.5219 -0.7039
  123OSM   H15G13111   0.103   5.038   7.458  2.0511 -0.1072 -0.7607
  123OSM   C16F13112   0.259   4.889   7.488  0.7210  0.8084 -0.3082
  123OSM   H16F13113   0.286   4.802   7.551  0.6383  1.2739  0.3771
  123OSM   H16G13114   0.332   4.972   7.504 -0.7662  2.1308 -0.1282
  123OSM   C17F13115   0.256   4.838   7.344  0.6314 -0.9246  0.5840
  123OSM   H17F13116   0.207   4.913   7.279  1.3005 -0.3820  0.6951
  123OSM   H17G13117   0.186   4.753   7.330  1.4436 -1.2917 -1.6593
  123OSM   C18F13118   0.390   4.806   7.278 -0.4982 -0.2566  0.2236
  123OSM   H18F13119   0.384   4.804   7.167  0.2395 -2.2098  0.1784
  123OSM   H18G13120   0.444   4.713   7.309 -0.7031 -0.4834 -0.0918
  123OSM   H18H13121   0.461   4.885   7.311  0.2325 -1.0035  0.4749
  124OSM      N13122   0.448   1.739   5.786 -0.3596  0.1131  0.0052
  124OSM    C1513123   0.338   1.840   5.816  0.3554  0.1247 -0.4391
  124OSM   H15A13124   0.351   1.938   5.774 -1.8932  1.4703  1.7507
  124OSM   H15B13125   0.315   1.840   5.922  3.1100 -1.2201  0.2551
  124OSM   H15C13126   0.243   1.811   5.773  1.1408  0.6680 -2.6728
  124OSM    C1413127   0.470   1.743   5.638  0.1384  0.2230 -0.5020
  124OSM   H14A13128   0.548   1.673   5.612 -0.2121 -0.7236  0.8896
  124OSM   H14B13129   0.488   1.843   5.601 -4.1541  1.8258  1.1984
  124OSM   H14C13130   0.382   1.708   5.587 -0.3774 -0.5702  0.8763
  124OSM    C1313131   0.575   1.782   5.851  0.0670  0.4583  0.2919
  124OSM   H13A13132   0.594   1.889   5.853 -1.4051  0.7242  1.8570
  124OSM   H13B13133   0.660   1.725   5.816  1.0701 -0.3025  3.5998
  124OSM   H13C13134   0.569   1.745   5.952  0.3278 -2.3314 -0.6427
  124OSM    C1213135   0.408   1.602   5.834  0.0839 -0.0609  0.0947
  124OSM   H12A13136   0.479   1.533   5.791 -0.5315 -0.6113 -0.0501
  124OSM   H12B13137   0.317   1.575   5.783  0.8103 -1.0233 -0.7268
  124OSM    C1113138   0.402   1.566   5.988  0.1536  0.5859  0.5769
  124OSM   H11A13139   0.505   1.579   6.028  0.4737 -1.7055  0.6224
  124OSM   H11B13140   0.368   1.461   6.000 -1.0037  0.6792 -1.4213
  124OSM      P13141   0.170   1.614   6.107  0.3870  0.2378 -0.0358
  124OSM    O1313142   0.100   1.742   6.119  0.2329  0.1912  0.2255
  124OSM    O1413143   0.103   1.513   6.030 -0.3227  0.2122 -0.2469
  124OSM    O1113144   0.189   1.567   6.256 -0.2906  0.3161 -0.6654
  124OSM    O1213145   0.310   1.650   6.054  0.5506  0.1234 -0.2571
  124OSM    C1S13146   0.304   1.608   6.342 -0.1908  0.2290 -0.3723
  124OSM    H1S13147   0.371   1.680   6.290  0.8737 -1.1519 -0.9472
  124OSM    H1T13148   0.372   1.523   6.363 -0.2759  0.3182  0.2824
  124OSM     NF13149   0.379   1.740   6.543 -0.4957 -0.1747 -0.3817
  124OSM    HNF13150   0.422   1.696   6.622  0.3861  1.8289  0.3027
  124OSM    C2S13151   0.254   1.680   6.475  0.1970 -0.9436 -0.0245
  124OSM    H2S13152   0.173   1.752   6.454  0.3543 -0.6846  0.2387
  124OSM    C3S13153   0.173   1.574   6.566  0.7008 -0.7127 -0.2138
  124OSM    H3S13154   0.244   1.489   6.578  0.6847 -1.0593 -2.1875
  124OSM     O313155   0.059   1.521   6.501  0.4769 -0.5661  0.5606
  124OSM    HO313156   0.065   1.536   6.406  0.1962  1.5986  0.8317
  124OSM    C4S13157   0.135   1.636   6.700 -0.3256  0.2517  0.1982
  124OSM    H4S13158   0.195   1.600   6.785  0.2939 -0.0834 -0.3624
  124OSM    C5S13159   0.035   1.727   6.717 -0.6241  0.2201  0.5931
  124OSM    H5S13160  -0.022   1.763   6.630 -0.3220  2.0701  1.1282
  124OSM    C6S13161  -0.013   1.797   6.842 -0.1894 -0.4017  0.2842
  124OSM    H6S13162  -0.118   1.763   6.856  0.1022 -1.2706  0.4142
  124OSM    H6T13163  -0.025   1.907   6.838  1.6808 -0.1701  0.2735
  124OSM    C7S13164   0.065   1.766   6.970  0.1244  0.1721  1.2914
  124OSM    H7S13165   0.173   1.793   6.970  1.2403 -3.7793  1.5824
  124OSM    H7T13166   0.062   1.656   6.980  2.3451  0.2595  4.3010
  124OSM    C8S13167   0.003   1.826   7.093  0.3628 -0.0862  0.3142
  124OSM    H8S13168  -0.104   1.822   7.062 -0.6179  0.9695  3.2084
  124OSM    H8T13169   0.028   1.934   7.102  0.0566  0.0976 -0.8634
  124OSM    C9S13170   0.012   1.738   7.222 -0.0630  0.8751  0.2458
  124OSM    H9S13171   0.117   1.733   7.257 -0.0483 -0.2024  0.0687
  124OSM    H9T13172  -0.006   1.633   7.190  0.7756  1.3205 -1.8184
  124OSM   C10S13173  -0.080   1.782   7.339 -0.6197  0.0562  0.3989
  124OSM   H10S13174  -0.183   1.742   7.328 -0.5705  0.1801 -0.6328
  124OSM   H10T13175  -0.081   1.893   7.348  2.2372  0.0688  1.7743
  124OSM   C11S13176  -0.024   1.729   7.476 -0.5193 -0.3223  0.0345
  124OSM   H11S13177   0.071   1.779   7.503 -1.5199  0.8046  1.6650
  124OSM   H11T13178  -0.010   1.620   7.463 -0.3091 -0.1059 -1.8617
  124OSM   C12S13179  -0.125   1.763   7.587  0.2600  0.1771  0.1344
  124OSM   H12S13180  -0.224   1.726   7.556  0.3123 -0.9039  1.2037
  124OSM   H12T13181  -0.132   1.874   7.593 -0.9262  0.0870  0.6474
  124OSM   C13S13182  -0.090   1.699   7.721 -0.0854  0.0057 -0.2855
  124OSM   H13S13183   0.004   1.748   7.754 -1.6008  1.0875  2.7720
  124OSM   H13T13184  -0.067   1.592   7.704 -0.7848  0.0579 -1.8311
  124OSM   C14S13185  -0.192   1.719   7.833 -0.1492  0.0322 -0.3512
  124OSM   H14S13186  -0.296   1.706   7.796 -0.1358 -1.7785  0.1626
  124OSM   H14T13187  -0.201   1.818   7.881  0.6330 -1.3115  2.7688
  124OSM   C15S13188  -0.181   1.608   7.942 -0.4246  0.3472  0.4326
  124OSM   H15S13189  -0.154   1.511   7.894 -1.5246  0.5354 -0.6263
  124OSM   H15T13190  -0.277   1.593   7.996 -1.5423 -2.4960 -2.0608
  124OSM   C16S13191  -0.071   1.644   8.047 -0.1683  0.2165 -0.8384
  124OSM   H16S13192  -0.094   1.736   8.103 -0.8905  0.3793 -1.3945
  124OSM   H16T13193   0.021   1.666   7.988  0.8615 -0.4455  0.4568
  124OSM   C17S13194  -0.037   1.530   8.143 -0.2156  0.5649 -0.0100
  124OSM   H17S13195   0.055   1.562   8.195 -0.3372  1.3719 -0.2860
  124OSM   H17T13196  -0.002   1.435   8.096 -3.9643 -1.3435  0.6486
  124OSM   C18S13197  -0.144   1.491   8.244 -0.2936  0.0713 -0.1810
  124OSM   H18S13198  -0.238   1.477   8.187 -0.7981  0.2394  0.5925
  124OSM   H18T13199  -0.161   1.572   8.319  0.9961 -1.3923  1.7961
  124OSM   H18U13200  -0.124   1.397   8.301 -1.4242 -0.1344 -0.0994
  124OSM    C1F13201   0.424   1.856   6.512  0.2712  0.6434  0.3145
  124OSM     OF13202   0.387   1.920   6.414 -0.2851  0.4543  0.1402
  124OSM    C2F13203   0.531   1.908   6.593 -0.3818 -0.2003  0.4226
  124OSM    H2F13204   0.603   1.947   6.519  0.1315  2.3758  2.1101
  124OSM    H2G13205   0.589   1.841   6.659 -1.1177 -0.2184  1.0744
  124OSM    C3F13206   0.495   2.031   6.678  0.7667 -0.2288  0.4747
  124OSM    H3F13207   0.453   2.108   6.611  1.9717 -0.1805 -0.2676
  124OSM    H3G13208   0.585   2.075   6.726  0.5956 -1.2877  1.8268
  124OSM    C4F13209   0.407   2.000   6.800  0.0412 -0.0954  0.5044
  124OSM    H4F13210   0.469   1.928   6.858 -1.3713 -1.4061  0.4526
  124OSM    H4G13211   0.313   1.948   6.771 -0.7343  2.1894 -1.3724
  124OSM    C5F13212   0.378   2.117   6.897  0.5443 -0.4130 -0.1971
  124OSM    H5F13213   0.347   2.203   6.833  2.2702 -0.4051 -1.0547
  124OSM    H5G13214   0.477   2.142   6.939  0.6497 -1.2340  0.0553
  124OSM    C6F13215   0.281   2.083   7.009  0.8606 -0.6382  0.6886
  124OSM    H6F13216   0.324   1.993   7.059  1.7460 -0.3500  0.4653
  124OSM    H6G13217   0.180   2.053   6.973 -0.1918  0.8999  2.2172
  124OSM    C7F13218   0.253   2.208   7.099 -0.0616  0.3799 -0.7377
  124OSM    H7F13219   0.214   2.289   7.034 -0.3152  2.1621  1.4969
  124OSM    H7G13220   0.348   2.250   7.137  0.4710  0.5842 -2.2260
  124OSM    C8F13221   0.155   2.176   7.211 -0.5212  0.9376 -0.0557
  124OSM    H8F13222   0.056   2.158   7.164  0.4974 -0.6178 -1.7144
  124OSM    H8G13223   0.136   2.260   7.281 -5.0123  0.4645 -0.3956
  124OSM    C9F13224   0.200   2.054   7.296  0.5127  0.7712  0.1914
  124OSM    H9F13225   0.211   1.962   7.238 -0.3833  0.5928  0.3024
  124OSM   C10F13226   0.246   2.054   7.420  0.2594 -0.2577 -0.2151
  124OSM   H10F13227   0.258   1.953   7.462  0.1096 -0.9508 -1.7590
  124OSM   C11F13228   0.261   2.165   7.529  0.1760 -0.7213  0.2469
  124OSM   H11F13229   0.239   2.264   7.484  0.4685 -1.2861 -1.2166
  124OSM   H11G13230   0.368   2.173   7.558  0.3891 -0.9257 -0.4567
  124OSM   C12F13231   0.151   2.146   7.639  0.2403  0.2118 -0.3033
  124OSM   H12F13232   0.050   2.119   7.602  0.1810 -0.3538  0.2599
  124OSM   H12G13233   0.148   2.238   7.701  2.5482 -0.4306  0.9004
  124OSM   C13F13234   0.205   2.045   7.743  0.1524  0.1029 -0.2665
  124OSM   H13F13235   0.312   2.064   7.763  0.3488 -1.8159  0.6467
  124OSM   H13G13236   0.208   1.943   7.700 -0.0349  0.0893 -0.2513
  124OSM   C14F13237   0.121   2.030   7.873  0.2530  0.3775  0.4140
  124OSM   H14F13238   0.022   1.981   7.863  0.2669  0.0970  1.5951
  124OSM   H14G13239   0.103   2.134   7.906 -0.0731  1.0283 -1.6466
  124OSM   C15F13240   0.203   1.950   7.984  0.3881 -0.0571 -0.2319
  124OSM   H15F13241   0.312   1.970   7.974  0.2589  0.2394 -1.1017
  124OSM   H15G13242   0.184   1.843   7.960 -0.7441  0.3908 -1.5091
  124OSM   C16F13243   0.168   1.996   8.128 -0.2318 -0.0436  0.5813
  124OSM   H16F13244   0.059   2.018   8.135  0.0936  1.3148  2.0714
  124OSM   H16G13245   0.218   2.094   8.144 -1.3311  1.0250 -2.0154
  124OSM   C17F13246   0.201   1.901   8.238 -0.0301  0.5939  0.1928
  124OSM   H17F13247   0.286   1.835   8.209  0.3670  0.6347  1.2107
  124OSM   H17G13248   0.115   1.831   8.252 -0.5073  1.5244  2.2352
  124OSM   C18F13249   0.245   1.974   8.367 -0.5450 -0.1563  0.4929
  124OSM   H18F13250   0.156   2.021   8.412 -1.2612  0.4511 -1.4395
  124OSM   H18G13251   0.326   2.046   8.342  0.0945 -0.9142  0.3329
  124OSM   H18H13252   0.278   1.901   8.444  2.5243 -0.0829 -0.6063
  125OSM      N13253   4.064   4.043   6.078  0.2983  0.6871 -0.4514
  125OSM    C1513254   4.174   3.997   6.166 -0.2247 -0.8739  0.2315
  125OSM   H15A13255   4.241   3.940   6.103  1.1386  1.1033 -0.2156
  125OSM   H15B13256   4.154   3.940   6.255 -1.2109  0.1002  0.6537
  125OSM   H15C13257   4.240   4.076   6.199  1.4498 -1.6602 -1.0289
  125OSM    C1413258   3.964   4.104   6.171 -0.4034  0.1409  0.2540
  125OSM   H14A13259   4.018   4.176   6.231  0.7288 -0.7209  0.3137
  125OSM   H14B13260   3.917   4.031   6.237 -0.5190 -2.7619 -2.7897
  125OSM   H14C13261   3.878   4.141   6.118  0.1295 -1.1285 -1.5596
  125OSM    C1313262   4.104   4.148   5.978 -0.1405 -0.1372 -0.7741
  125OSM   H13A13263   4.161   4.222   6.031 -2.2168  1.3813 -0.5807
  125OSM   H13B13264   4.024   4.208   5.937  0.9127  0.4764 -2.0184
  125OSM   H13C13265   4.175   4.102   5.911  2.3314  1.0655  0.8598
  125OSM    C1213266   3.999   3.924   6.012 -0.5022  0.3426  0.2579
  125OSM   H12A13267   3.914   3.949   5.950  0.1509 -0.1498 -0.8708
  125OSM   H12B13268   3.967   3.851   6.085  0.7658 -1.1859 -0.6432
  125OSM    C1113269   4.093   3.849   5.918  0.0745 -0.7864 -1.0250
  125OSM   H11A13270   4.138   3.927   5.853  0.8151 -0.6349 -0.3461
  125OSM   H11B13271   4.031   3.785   5.851  0.4334 -1.8159 -0.3861
  125OSM      P13272   4.191   3.615   5.999  0.0717  0.3642 -0.6059
  125OSM    O1313273   4.059   3.561   6.038 -0.3632  1.2393 -0.6794
  125OSM    O1413274   4.254   3.563   5.876 -0.1977 -0.7256 -0.3937
  125OSM    O1113275   4.277   3.572   6.121 -1.0895 -0.0210  0.5653
  125OSM    O1213276   4.192   3.779   6.000  0.1099  0.1127  0.3298
  125OSM    C1S13277   4.280   3.635   6.254  0.1797 -0.3570  0.7674
  125OSM    H1S13278   4.252   3.742   6.245  0.1301 -0.4940 -1.2778
  125OSM    H1T13279   4.383   3.626   6.295  0.9083 -1.0299 -1.1011
  125OSM     NF13280   4.183   3.641   6.482 -0.6180  0.3994  0.0308
  125OSM    HNF13281   4.229   3.608   6.564  0.6881 -1.6501 -1.4310
  125OSM    C2S13282   4.189   3.566   6.358  0.4406  0.0426 -0.7160
  125OSM    H2S13283   4.087   3.566   6.312 -0.1362 -0.2860  0.5229
  125OSM    C3S13284   4.232   3.422   6.387 -0.3222  0.5945 -0.1328
  125OSM    H3S13285   4.336   3.431   6.427  0.4536  0.4252 -1.9710
  125OSM     O313286   4.250   3.344   6.266 -0.5186 -0.2191 -0.2088
  125OSM    HO313287   4.275   3.414   6.205  0.4706 -1.6331 -1.5045
  125OSM    C4S13288   4.146   3.348   6.482 -0.0571  0.4764  0.1501
  125OSM    H4S13289   4.187   3.361   6.584  0.2359 -1.6731  0.3619
  125OSM    C5S13290   4.036   3.277   6.456 -0.3764 -0.3043 -0.1924
  125OSM    H5S13291   3.994   3.279   6.355  0.0831  0.6511 -0.3737
  125OSM    C6S13292   3.956   3.214   6.562  0.1775  0.6281  0.8229
  125OSM    H6S13293   3.987   3.107   6.569 -0.3658  0.5222  1.8005
  125OSM    H6T13294   3.848   3.215   6.537  0.2137  0.7984  0.6749
  125OSM    C7S13295   3.965   3.279   6.708 -0.2696  0.5212  0.4966
  125OSM    H7S13296   3.951   3.389   6.701  1.4483  0.7156 -0.4137
  125OSM    H7T13297   4.069   3.265   6.746 -0.4018  0.6242  0.8964
  125OSM    C8S13298   3.866   3.215   6.805  0.0060 -0.2919 -0.3364
  125OSM    H8S13299   3.765   3.248   6.774  0.2659  0.6471 -0.2047
  125OSM    H8T13300   3.895   3.265   6.900  0.4594 -1.1212 -0.0262
  125OSM    C9S13301   3.876   3.063   6.823 -0.3721 -0.3458  0.2756
  125OSM    H9S13302   3.973   3.011   6.834 -0.8716 -1.3466  0.0858
  125OSM    H9T13303   3.814   3.011   6.747 -3.5948  2.6967  0.5350
  125OSM   C10S13304   3.802   3.027   6.949  1.1953 -0.4303  0.2295
  125OSM   H10S13305   3.812   2.917   6.959  2.0704 -0.3443  0.3868
  125OSM   H10T13306   3.695   3.056   6.939  0.7743 -2.0235 -0.2391
  125OSM   C11S13307   3.860   3.080   7.079 -0.0022 -0.0961 -0.2194
  125OSM   H11S13308   3.863   3.191   7.082  0.7160 -0.0821 -1.0168
  125OSM   H11T13309   3.966   3.046   7.086  0.2254  0.3507 -1.2463
  125OSM   C12S13310   3.790   3.027   7.205  0.3604  0.1307  0.1273
  125OSM   H12S13311   3.790   2.916   7.198  1.1028 -0.0518  2.2994
  125OSM   H12T13312   3.681   3.050   7.203 -0.4693 -2.7097  3.5814
  125OSM   C13S13313   3.861   3.069   7.329  0.1441  0.4168 -0.1519
  125OSM   H13S13314   3.867   3.180   7.331  1.4396  0.4188 -2.0995
  125OSM   H13T13315   3.966   3.036   7.342  0.0647  0.5127  0.8501
  125OSM   C14S13316   3.798   3.014   7.459  0.5593  0.2207 -0.5098
  125OSM   H14S13317   3.811   2.905   7.477 -1.1412  0.2015  0.7860
  125OSM   H14T13318   3.687   3.021   7.457  0.5191 -0.4867 -1.3170
  125OSM   C15S13319   3.849   3.097   7.574  0.0290  0.0940  0.3881
  125OSM   H15S13320   3.824   3.205   7.578  0.5025  0.1933  0.7059
  125OSM   H15T13321   3.960   3.101   7.572  0.0253  4.7595 -0.8126
  125OSM   C16S13322   3.802   3.030   7.703  0.9693 -0.2506 -0.3208
  125OSM   H16S13323   3.851   2.931   7.702 -0.5992 -1.0708 -1.5979
  125OSM   H16T13324   3.691   3.028   7.717  1.2398 -1.2239  2.2547
  125OSM   C17S13325   3.835   3.099   7.831 -0.7843 -0.2986  0.2339
  125OSM   H17S13326   3.803   3.206   7.823  2.7377  0.8438 -0.0684
  125OSM   H17T13327   3.945   3.113   7.835 -0.9682  1.0466  1.6938
  125OSM   C18S13328   3.784   3.031   7.960 -0.4052  0.2272  0.6205
  125OSM   H18S13329   3.673   3.018   7.952 -0.2954 -0.5292  0.1878
  125OSM   H18T13330   3.805   3.101   8.043  0.5225  1.7030 -0.7973
  125OSM   H18U13331   3.833   2.931   7.965 -2.3586 -0.8965 -0.6636
  125OSM    C1F13332   4.134   3.763   6.501 -0.1498  0.1191  0.0178
  125OSM     OF13333   4.081   3.831   6.413 -0.7390  0.1802 -0.3428
  125OSM    C2F13334   4.161   3.822   6.638  0.6459 -0.3145 -0.1775
  125OSM    H2F13335   4.268   3.845   6.656  0.4906 -0.7452  1.4271
  125OSM    H2G13336   4.136   3.745   6.714 -0.2830  1.2020  1.1067
  125OSM    C3F13337   4.055   3.932   6.669 -0.0264 -0.9660 -0.2920
  125OSM    H3F13338   3.955   3.889   6.651 -0.7243  0.0806  0.9359
  125OSM    H3G13339   4.067   4.018   6.601  0.2589  0.1460  1.1154
  125OSM    C4F13340   4.062   3.977   6.815  0.0893 -0.1425  0.5602
  125OSM    H4F13341   4.160   4.028   6.828  0.5809 -1.0157  0.4094
  125OSM    H4G13342   4.061   3.886   6.878  0.3022 -2.1067 -2.0814
  125OSM    C5F13343   3.954   4.080   6.861 -0.0227 -0.0294 -0.0333
  125OSM    H5F13344   3.856   4.032   6.843  1.5815 -3.3965 -0.5683
  125OSM    H5G13345   3.957   4.165   6.789 -0.3802 -0.6781 -0.8164
  125OSM    C6F13346   3.966   4.139   7.002 -0.2937  0.8595 -0.4851
  125OSM    H6F13347   3.880   4.199   7.039  0.4099  0.8046  1.3678
  125OSM    H6G13348   4.062   4.195   7.009 -0.4349  0.9579  1.0080
  125OSM    C7F13349   3.973   4.029   7.108  0.3470  0.2196  0.4060
  125OSM    H7F13350   4.073   3.983   7.092 -0.0344 -0.3616 -0.4000
  125OSM    H7G13351   3.890   3.958   7.085  0.5522  0.3607 -0.8395
  125OSM    C8F13352   3.969   4.089   7.245 -0.2090  0.2145 -0.4484
  125OSM    H8F13353   3.880   4.154   7.259  0.3623  0.8060  0.5436
  125OSM    H8G13354   4.059   4.154   7.250  0.7448 -1.1132  0.2021
  125OSM    C9F13355   3.975   3.978   7.348 -0.3649 -0.2640  0.1100
  125OSM    H9F13356   3.897   3.902   7.333  0.1099 -0.8644  0.6381
  125OSM   C10F13357   4.039   3.973   7.466 -0.1117  0.4301  0.5603
  125OSM   H10F13358   4.027   3.885   7.530 -5.2131  0.7677  0.4670
  125OSM   C11F13359   4.137   4.071   7.520 -0.1958  0.5345 -0.2309
  125OSM   H11F13360   4.137   4.178   7.491  0.6605  0.3878 -0.8033
  125OSM   H11G13361   4.240   4.040   7.491  0.0953 -1.6219  2.6928
  125OSM   C12F13362   4.135   4.070   7.674  0.3906 -0.0606  0.2130
  125OSM   H12F13363   4.145   3.967   7.713 -0.9438 -1.0578 -1.8989
  125OSM   H12G13364   4.044   4.120   7.713  0.4966 -0.3789  0.8833
  125OSM   C13F13365   4.248   4.157   7.724 -0.3135 -1.0654 -0.1617
  125OSM   H13F13366   4.260   4.259   7.681 -0.9587 -0.8841  0.0887
  125OSM   H13G13367   4.348   4.111   7.706 -1.1742 -2.6318 -1.1273
  125OSM   C14F13368   4.242   4.183   7.877  0.2046  0.1283 -0.8778
  125OSM   H14F13369   4.237   4.079   7.915  0.0822  0.7376  0.8951
  125OSM   H14G13370   4.148   4.238   7.903  0.8781  0.7984  0.2409
  125OSM   C15F13371   4.364   4.259   7.938  0.0144 -0.0414  0.0892
  125OSM   H15F13372   4.370   4.351   7.876 -1.2159  0.0081  0.0019
  125OSM   H15G13373   4.453   4.197   7.915  0.2868 -1.0807  3.4482
  125OSM   C16F13374   4.347   4.271   8.087  0.0048  0.0415 -0.2455
  125OSM   H16F13375   4.349   4.174   8.141 -0.3495 -1.0116 -2.0378
  125OSM   H16G13376   4.247   4.316   8.105  0.1513  1.1797 -1.9917
  125OSM   C17F13377   4.461   4.359   8.144  0.0189  0.0651 -0.0193
  125OSM   H17F13378   4.460   4.455   8.087 -2.8413  1.0213  1.4348
  125OSM   H17G13379   4.554   4.301   8.128 -0.7105 -1.1173 -0.1451
  125OSM   C18F13380   4.457   4.378   8.293 -0.0606  0.0251 -0.0691
  125OSM   H18F13381   4.379   4.453   8.321 -0.4891 -0.6913  0.7018
  125OSM   H18G13382   4.552   4.427   8.322 -0.1693 -0.7023  1.6504
  125OSM   H18H13383   4.437   4.287   8.353  1.7354  0.3568  1.0921
  126OSM      N13384   2.288   5.223   6.283 -0.7404 -0.5752 -0.6757
  126OSM    C1513385   2.334   5.083   6.270  0.1900 -0.1782 -0.0711
  126OSM   H15A13386   2.383   5.062   6.176  0.8241 -1.0669  0.4498
  126OSM   H15B13387   2.255   5.010   6.273 -1.8514  1.9324  2.7714
  126OSM   H15C13388   2.400   5.053   6.350 -1.7835 -1.4647  1.1501
  126OSM    C1413389   2.415   5.311   6.278  0.1146  0.1267  0.5997
  126OSM   H14A13390   2.371   5.410   6.277 -0.6233 -0.1859  1.2348
  126OSM   H14B13391   2.475   5.298   6.189 -0.1848  2.0256  0.0637
  126OSM   H14C13392   2.481   5.310   6.364 -0.2683 -2.2982  0.9402
  126OSM    C1313393   2.194   5.246   6.171  0.4135 -0.1791 -0.4640
  126OSM   H13A13394   2.118   5.321   6.185 -1.0598 -1.4531 -1.2448
  126OSM   H13B13395   2.133   5.158   6.155  0.8985 -0.9108  1.4505
  126OSM   H13C13396   2.251   5.267   6.081 -0.0903  2.4993 -0.2252
  126OSM    C1213397   2.224   5.247   6.418  0.5845 -0.0394 -0.0762
  126OSM   H12A13398   2.294   5.216   6.495  1.7665 -1.8852 -1.8071
  126OSM   H12B13399   2.148   5.172   6.433  1.7164 -1.3362 -0.7129
  126OSM    C1113400   2.163   5.381   6.445 -0.5077 -0.0290  0.5223
  126OSM   H11A13401   2.248   5.453   6.436 -0.2927 -0.3035  0.3418
  126OSM   H11B13402   2.129   5.382   6.551 -1.5510 -1.3346  0.2259
  126OSM      P13403   1.904   5.421   6.402 -0.1875  0.0047 -0.3429
  126OSM    O1313404   1.827   5.478   6.282  0.4827  0.2514 -0.0160
  126OSM    O1413405   1.864   5.289   6.451 -0.2729 -0.2877  0.5301
  126OSM    O1113406   1.908   5.524   6.527 -0.1324 -0.0539  0.2970
  126OSM    O1213407   2.052   5.412   6.360 -0.1874  0.3978  0.5961
  126OSM    C1S13408   1.872   5.661   6.500 -0.1934 -0.2908  1.1984
  126OSM    H1S13409   1.770   5.660   6.456  0.3417 -1.8255 -0.0823
  126OSM    H1T13410   1.929   5.725   6.428 -3.8361  0.7587 -1.0084
  126OSM     NF13411   1.766   5.849   6.626  0.1603  0.1007 -0.7421
  126OSM    HNF13412   1.807   5.939   6.625 -0.3227  0.3325 -1.8572
  126OSM    C2S13413   1.847   5.731   6.641 -0.1688  0.4616 -0.2843
  126OSM    H2S13414   1.795   5.651   6.696  1.1542  0.6597  1.3528
  126OSM    C3S13415   1.989   5.748   6.722 -0.2273  0.1375  0.1068
  126OSM    H3S13416   2.046   5.825   6.666 -1.4563  1.3756  0.4905
  126OSM     O313417   2.074   5.630   6.722  0.4430 -0.0185  0.4471
  126OSM    HO313418   2.030   5.569   6.661  2.3642 -0.3827 -0.6578
  126OSM    C4S13419   1.964   5.785   6.868  0.2993  0.5733 -0.1674
  126OSM    H4S13420   1.932   5.890   6.866  0.0268  0.4875 -0.6093
  126OSM    C5S13421   1.981   5.715   6.983  0.5347 -0.4061 -0.2508
  126OSM    H5S13422   2.019   5.612   6.985  0.9833 -0.2919 -1.7853
  126OSM    C6S13423   1.949   5.760   7.122  0.4588  0.3158 -0.2248
  126OSM    H6S13424   2.051   5.757   7.167  1.1121 -2.8059 -1.6566
  126OSM    H6T13425   1.876   5.687   7.161 -0.6727  1.2880 -0.4593
  126OSM    C7S13426   1.889   5.898   7.142  0.5641  0.1431 -0.0277
  126OSM    H7S13427   1.800   5.893   7.076  1.1473 -2.8110 -0.7270
  126OSM    H7T13428   1.943   5.987   7.101 -2.1917  1.1212 -1.8253
  126OSM    C8S13429   1.841   5.908   7.290  1.0834 -0.2881 -0.6218
  126OSM    H8S13430   1.779   5.817   7.305  0.1609  0.0251 -2.2783
  126OSM    H8T13431   1.781   6.001   7.297  2.5227  0.5483  1.5954
  126OSM    C9S13432   1.946   5.919   7.399  0.6782 -0.2572  0.2639
  126OSM    H9S13433   2.005   5.826   7.385  0.0498 -0.2589 -3.3191
  126OSM    H9T13434   1.897   5.921   7.499  0.3257 -0.6324  0.1004
  126OSM   C10S13435   2.034   6.041   7.382 -0.2891 -0.2461  0.0319
  126OSM   H10S13436   1.974   6.131   7.357  0.5190 -0.1258 -1.6053
  126OSM   H10T13437   2.099   6.025   7.293 -0.5236  3.0522 -0.8549
  126OSM   C11S13438   2.120   6.065   7.510 -0.4114  0.4900  1.0991
  126OSM   H11S13439   2.188   6.150   7.488  0.0335  0.0273  0.6344
  126OSM   H11T13440   2.181   5.972   7.520  0.6370  0.8035 -1.5869
  126OSM   C12S13441   2.047   6.088   7.643  0.2607  0.2004  0.5067
  126OSM   H12S13442   2.008   5.985   7.659 -0.7982  0.6200  0.7513
  126OSM   H12T13443   1.958   6.154   7.627  0.0400 -0.1487  0.2646
  126OSM   C13S13444   2.134   6.135   7.760  0.1886  1.1602 -0.4810
  126OSM   H13S13445   2.155   6.244   7.752 -1.5490  1.5666  0.0538
  126OSM   H13T13446   2.229   6.080   7.778 -0.8746 -1.0940 -1.4604
  126OSM   C14S13447   2.063   6.133   7.900 -0.5684  0.0877  0.2280
  126OSM   H14S13448   2.057   6.031   7.943 -2.9984  0.5350  1.0679
  126OSM   H14T13449   1.961   6.174   7.889 -1.4240 -1.6914  1.1587
  126OSM   C15S13450   2.136   6.230   8.001  0.2163  0.3055  0.3517
  126OSM   H15S13451   2.067   6.253   8.085 -2.3828  1.1160 -1.8656
  126OSM   H15T13452   2.162   6.321   7.943 -1.4418  0.8708  0.4578
  126OSM   C16S13453   2.270   6.164   8.051  0.0176  0.0256 -0.0354
  126OSM   H16S13454   2.325   6.117   7.966 -0.4403 -0.6033  0.0093
  126OSM   H16T13455   2.231   6.090   8.124  0.6253  0.7503  1.0511
  126OSM   C17S13456   2.361   6.259   8.133 -0.7660  0.5449 -0.2111
  126OSM   H17S13457   2.315   6.357   8.157 -0.7243  0.1001  1.8530
  126OSM   H17T13458   2.453   6.280   8.074 -0.5960 -1.4573 -0.7375
  126OSM   C18S13459   2.401   6.209   8.271  0.2602  0.2942 -1.2047
  126OSM   H18S13460   2.476   6.273   8.322  0.3640 -1.6818  1.2972
  126OSM   H18T13461   2.432   6.103   8.284 -0.2001  0.4304  1.6623
  126OSM   H18U13462   2.307   6.207   8.329  0.3289 -0.7732 -1.1166
  126OSM    C1F13463   1.632   5.850   6.593  0.0447 -0.1668 -0.0113
  126OSM     OF13464   1.596   5.945   6.524 -0.2104  0.4199 -0.2099
  126OSM    C2F13465   1.543   5.739   6.636  0.3769 -0.5016  0.3259
  126OSM    H2F13466   1.585   5.695   6.728 -0.6445  0.2795  1.2056
  126OSM    H2G13467   1.542   5.662   6.556  1.2356 -0.8641  0.6581
  126OSM    C3F13468   1.403   5.789   6.668 -0.3473  0.3246 -0.5719
  126OSM    H3F13469   1.340   5.699   6.683  0.8541 -0.8882 -2.3639
  126OSM    H3G13470   1.354   5.840   6.583 -0.0685  1.2579 -0.1893
  126OSM    C4F13471   1.412   5.879   6.793  0.0576  0.3554 -0.4986
  126OSM    H4F13472   1.309   5.897   6.830  0.1246  2.0625 -1.0604
  126OSM    H4G13473   1.451   5.982   6.776  1.3695 -0.0481 -0.0252
  126OSM    C5F13474   1.476   5.808   6.914  0.0636 -0.3316  0.2479
  126OSM    H5F13475   1.583   5.837   6.911 -0.1673  0.5674  0.1729
  126OSM    H5G13476   1.467   5.698   6.918 -0.1929 -0.3264 -0.1396
  126OSM    C6F13477   1.433   5.854   7.057 -0.0009  0.0802 -0.3655
  126OSM    H6F13478   1.323   5.838   7.064  0.0634 -0.2696 -0.1392
  126OSM    H6G13479   1.449   5.962   7.079 -0.3772  0.0598  0.0350
  126OSM    C7F13480   1.492   5.766   7.171  0.0779 -0.3496 -0.1506
  126OSM    H7F13481   1.601   5.785   7.159 -0.3826  0.5293 -4.6713
  126OSM    H7G13482   1.470   5.657   7.162 -0.2993 -0.6106  2.8793
  126OSM    C8F13483   1.430   5.803   7.307 -0.2459 -0.1116 -0.2505
  126OSM    H8F13484   1.450   5.731   7.389  0.3252  1.2547  0.8443
  126OSM    H8G13485   1.320   5.814   7.292 -0.2946 -0.7069 -0.3679
  126OSM    C9F13486   1.467   5.943   7.345  0.3128  0.0296  0.3517
  126OSM    H9F13487   1.499   6.005   7.260 -0.7603 -0.2403 -0.2581
  126OSM   C10F13488   1.464   5.985   7.473 -0.7626  0.5308 -0.6911
  126OSM   H10F13489   1.504   6.086   7.493  2.0863 -1.0031  2.4651
  126OSM   C11F13490   1.427   5.915   7.605 -0.2312  0.5340  0.8438
  126OSM   H11F13491   1.429   5.804   7.592 -0.7727  0.7181 -1.1651
  126OSM   H11G13492   1.324   5.948   7.631 -0.0529  1.3392  0.5605
  126OSM   C12F13493   1.515   5.956   7.723 -0.8977 -0.6125 -0.1449
  126OSM   H12F13494   1.513   6.066   7.736 -1.3528 -0.4173 -1.6623
  126OSM   H12G13495   1.623   5.933   7.718 -0.5993  0.9229 -1.6376
  126OSM   C13F13496   1.464   5.894   7.860 -0.0102  0.0130 -0.0013
  126OSM   H13F13497   1.489   5.787   7.868 -1.3820 -0.2630  1.0266
  126OSM   H13G13498   1.353   5.894   7.865 -0.1049 -2.7973 -0.5284
  126OSM   C14F13499   1.527   5.959   7.982 -0.3974 -0.5414  0.1051
  126OSM   H14F13500   1.497   5.893   8.066  0.0712 -0.6104  0.2182
  126OSM   H14G13501   1.470   6.053   8.000 -0.4221 -0.7688  1.2933
  126OSM   C15F13502   1.678   5.976   7.969  0.3295 -0.2684 -0.5654
  126OSM   H15F13503   1.710   6.052   7.895 -2.0429 -0.6067 -2.0515
  126OSM   H15G13504   1.710   5.875   7.937 -1.9359 -1.7398  1.4233
  126OSM   C16F13505   1.738   6.020   8.103  0.2282  0.7295  0.7888
  126OSM   H16F13506   1.846   5.999   8.089 -0.5510 -1.7047 -3.0562
  126OSM   H16G13507   1.703   5.958   8.188 -2.0564 -1.3325 -1.4954
  126OSM   C17F13508   1.703   6.163   8.144  0.7200  0.3574  0.6907
  126OSM   H17F13509   1.594   6.173   8.161  0.5503  0.5678 -0.4521
  126OSM   H17G13510   1.732   6.224   8.056  0.2744  1.8424  1.5395
  126OSM   C18F13511   1.787   6.196   8.265  0.4059  0.2324 -0.0497
  126OSM   H18F13512   1.728   6.150   8.347  0.4084 -0.6456 -0.5392
  126OSM   H18G13513   1.770   6.305   8.279  0.6921  0.4342 -1.1580
  126OSM   H18H13514   1.894   6.166   8.254  0.0150 -1.4392  0.5130
  127OSM      N13515   5.869   2.833   6.033 -0.4795  1.2059  0.1958
  127OSM    C1513516   5.922   2.966   6.087 -0.7566  0.3592  0.0543
  127OSM   H15A13517   6.015   2.991   6.038  0.5436 -2.8749  0.6225
  127OSM   H15B13518   5.936   2.959   6.194 -1.0024 -3.1166 -0.0150
  127OSM   H15C13519   5.857   3.049   6.066  0.6341  2.4005  3.0349
  127OSM    C1413520   5.817   2.861   5.896  0.3613 -0.8144  0.3771
  127OSM   H14A13521   5.736   2.932   5.906  2.0129  1.4176 -0.9091
  127OSM   H14B13522   5.774   2.777   5.844 -2.6102  0.0458  1.2558
  127OSM   H14C13523   5.888   2.902   5.825 -0.8291 -0.1737 -0.4783
  127OSM    C1313524   5.983   2.746   6.004 -0.4365 -0.4157 -0.3445
  127OSM   H13A13525   5.955   2.657   5.949 -0.4307  0.5783 -2.0228
  127OSM   H13B13526   6.030   2.724   6.098  0.1351 -0.9340 -0.7487
  127OSM   H13C13527   6.062   2.799   5.954  2.0398 -2.5468  1.0931
  127OSM    C1213528   5.758   2.777   6.121 -0.4381 -0.0412  0.3999
  127OSM   H12A13529   5.701   2.706   6.063 -0.9712  1.0784 -0.4830
  127OSM   H12B13530   5.687   2.855   6.141 -1.2101  0.6395 -3.9116
  127OSM    C1113531   5.792   2.729   6.263 -0.4843 -0.2842  0.7250
  127OSM   H11A13532   5.872   2.656   6.243 -2.1652 -2.1646  0.5858
  127OSM   H11B13533   5.701   2.675   6.297 -0.5953 -0.9393 -0.5424
  127OSM      P13534   5.746   2.915   6.447 -0.0089  0.1272  0.0761
  127OSM    O1313535   5.821   3.016   6.522 -0.4933 -0.1711  0.4805
  127OSM    O1413536   5.634   2.963   6.365 -0.3790 -0.6007 -0.0232
  127OSM    O1113537   5.700   2.793   6.542  0.1950  0.3922 -0.0883
  127OSM    O1213538   5.840   2.833   6.354 -0.4813 -0.6927  0.4152
  127OSM    C1S13539   5.787   2.738   6.638 -0.2308  0.5329 -0.2571
  127OSM    H1S13540   5.889   2.781   6.627 -0.0173  0.1419  0.1809
  127OSM    H1T13541   5.788   2.630   6.615  1.8775  0.4379  0.0997
  127OSM     NF13542   5.851   2.697   6.868 -0.0684  0.0515  0.3065
  127OSM    HNF13543   5.851   2.606   6.909 -1.3665 -0.2555 -0.3405
  127OSM    C2S13544   5.746   2.756   6.790 -0.9494  0.6859 -0.6834
  127OSM    H2S13545   5.735   2.865   6.805  1.8897  0.8326  0.9674
  127OSM    C3S13546   5.599   2.703   6.819  0.2248 -0.0417  0.2938
  127OSM    H3S13547   5.594   2.593   6.805 -0.3397  0.2382 -2.2044
  127OSM     O313548   5.504   2.751   6.716  0.1528  0.0704 -0.2007
  127OSM    HO313549   5.558   2.791   6.649  1.5314  0.2228  0.9539
  127OSM    C4S13550   5.548   2.742   6.959 -0.2369 -0.2299  0.1633
  127OSM    H4S13551   5.598   2.680   7.036  2.2733  0.6921 -0.6138
  127OSM    C5S13552   5.473   2.842   7.003  1.2167  0.4776 -0.2223
  127OSM    H5S13553   5.448   2.916   6.925 -1.7852 -0.2928 -0.1411
  127OSM    C6S13554   5.418   2.882   7.143 -0.0980 -0.4371 -0.0656
  127OSM    H6S13555   5.311   2.854   7.151 -0.2277 -0.0983 -0.5511
  127OSM    H6T13556   5.429   2.992   7.145  1.2718 -0.4988  3.6063
  127OSM    C7S13557   5.490   2.805   7.250  0.7332 -0.6602 -0.3234
  127OSM    H7S13558   5.600   2.807   7.231  0.6206  2.9430 -1.4899
  127OSM    H7T13559   5.453   2.702   7.266 -0.7867  0.1489  1.9320
  127OSM    C8S13560   5.477   2.894   7.380 -0.6395 -0.5213 -0.0797
  127OSM    H8S13561   5.507   3.000   7.364 -2.7353  0.2965  1.0732
  127OSM    H8T13562   5.543   2.846   7.456 -2.1944  1.0732  2.4390
  127OSM    C9S13563   5.329   2.888   7.422 -0.0971 -0.2146  0.5941
  127OSM    H9S13564   5.304   2.780   7.425 -1.5073  0.0626 -0.2058
  127OSM    H9T13565   5.262   2.937   7.348  0.2715 -0.5060  0.0584
  127OSM   C10S13566   5.296   2.951   7.559  0.4085 -0.2554 -0.4701
  127OSM   H10S13567   5.204   3.012   7.566 -0.1702 -1.3013  2.0785
  127OSM   H10T13568   5.378   3.023   7.582  1.1386 -0.5371 -2.0770
  127OSM   C11S13569   5.289   2.843   7.672 -0.9370  0.6618 -0.5179
  127OSM   H11S13570   5.382   2.784   7.664 -0.2448  0.8507  3.6942
  127OSM   H11T13571   5.199   2.779   7.660 -2.0183  1.9944  0.1986
  127OSM   C12S13572   5.296   2.907   7.813  0.2974  0.0335 -0.2324
  127OSM   H12S13573   5.377   2.983   7.817  2.0791 -1.8247  1.1295
  127OSM   H12T13574   5.323   2.825   7.883  0.0413  0.3105  0.2004
  127OSM   C13S13575   5.159   2.966   7.857 -0.1848 -0.0690  0.5573
  127OSM   H13S13576   5.079   2.889   7.847  1.1891 -1.3463 -1.3844
  127OSM   H13T13577   5.145   3.049   7.785 -3.5036 -0.6351  0.3908
  127OSM   C14S13578   5.163   3.016   8.009  0.7168 -1.2669 -0.4723
  127OSM   H14S13579   5.088   3.097   8.016  2.0526 -0.0207 -0.2899
  127OSM   H14T13580   5.270   3.045   8.019  0.4830 -0.6739  0.3732
  127OSM   C15S13581   5.132   2.908   8.117  0.4457  0.1231  0.0203
  127OSM   H15S13582   5.165   2.811   8.073  0.5301  0.9904 -1.9448
  127OSM   H15T13583   5.021   2.908   8.113  0.3991 -2.1066 -0.3520
  127OSM   C16S13584   5.189   2.942   8.255 -0.4154 -0.6786  0.3466
  127OSM   H16S13585   5.145   3.035   8.296  1.9602  0.9269 -0.4954
  127OSM   H16T13586   5.297   2.957   8.233 -0.8964  1.5954 -0.7917
  127OSM   C17S13587   5.169   2.827   8.352  0.1322 -0.1934  0.6354
  127OSM   H17S13588   5.216   2.743   8.297  0.2436  0.3479 -0.1110
  127OSM   H17T13589   5.060   2.804   8.349  0.4872 -2.0063 -2.0473
  127OSM   C18S13590   5.224   2.846   8.489  0.1586  0.3044  0.7621
  127OSM   H18S13591   5.267   2.947   8.506  1.7565 -0.6122  2.6628
  127OSM   H18T13592   5.309   2.778   8.511  1.2635  2.5156  4.0492
  127OSM   H18U13593   5.138   2.830   8.558 -0.6102  0.5282 -0.1193
  127OSM    C1F13594   5.965   2.756   6.871 -0.2413 -0.6834  0.5013
  127OSM     OF13595   5.963   2.879   6.855 -0.2088  0.4820  0.3330
  127OSM    C2F13596   6.083   2.675   6.891 -0.3092  0.4026  0.4386
  127OSM    H2F13597   6.136   2.661   6.794 -0.5321  0.7351  0.2668
  127OSM    H2G13598   6.046   2.579   6.932  1.9740 -0.6160  0.2327
  127OSM    C3F13599   6.181   2.735   6.988 -0.4523 -0.4380 -0.5245
  127OSM    H3F13600   6.126   2.740   7.085 -0.7380  0.9668 -0.7479
  127OSM    H3G13601   6.210   2.836   6.954  0.5076  0.0942  1.6946
  127OSM    C4F13602   6.312   2.657   6.993 -0.0214  0.2363 -0.0107
  127OSM    H4F13603   6.383   2.698   6.918 -0.9026  0.2185 -0.8824
  127OSM    H4G13604   6.288   2.553   6.962 -1.1807  0.8666 -1.3822
  127OSM    C5F13605   6.377   2.673   7.125 -0.8251  0.2007 -0.0377
  127OSM    H5F13606   6.474   2.620   7.123 -1.0584 -0.2506  0.1924
  127OSM    H5G13607   6.321   2.617   7.204  0.1101 -2.4785 -1.1588
  127OSM    C6F13608   6.411   2.815   7.175  0.4337  0.0091  0.3898
  127OSM    H6F13609   6.317   2.873   7.165  0.2590 -0.0235  1.6328
  127OSM    H6G13610   6.486   2.848   7.100  0.1683 -0.1567  0.0509
  127OSM    C7F13611   6.475   2.813   7.317 -0.6908  0.3542 -0.0443
  127OSM    H7F13612   6.525   2.911   7.337  0.5225 -0.1815 -0.3880
  127OSM    H7G13613   6.557   2.738   7.320 -0.9291  0.0131 -1.5931
  127OSM    C8F13614   6.382   2.788   7.430  0.3755  0.0982  0.2126
  127OSM    H8F13615   6.438   2.789   7.526 -2.3253  1.1464  1.8864
  127OSM    H8G13616   6.333   2.693   7.399 -1.1752  1.6199 -2.4306
  127OSM    C9F13617   6.276   2.900   7.447 -0.3177 -0.4283  0.2029
  127OSM    H9F13618   6.261   2.971   7.364 -0.9841  0.3081  0.9335
  127OSM   C10F13619   6.206   2.922   7.558  0.2751 -0.1412  0.6145
  127OSM   H10F13620   6.128   3.000   7.556  1.3523  0.9781  1.2247
  127OSM   C11F13621   6.214   2.844   7.687  0.3754 -0.4098 -0.5569
  127OSM   H11F13622   6.294   2.767   7.689 -0.5396 -1.4279  2.4932
  127OSM   H11G13623   6.119   2.790   7.705 -1.1965  2.3546  0.1568
  127OSM   C12F13624   6.238   2.941   7.809 -0.2741 -0.1028  0.2156
  127OSM   H12F13625   6.151   3.009   7.814  1.2814  2.2613 -2.1271
  127OSM   H12G13626   6.329   3.001   7.788  0.2870  0.7242  4.1634
  127OSM   C13F13627   6.247   2.869   7.947 -0.2983 -0.3174 -0.2360
  127OSM   H13F13628   6.346   2.820   7.955 -0.7486 -1.1949  0.1793
  127OSM   H13G13629   6.183   2.778   7.951  1.5182 -1.6647 -0.5289
  127OSM   C14F13630   6.235   2.956   8.068 -0.1728 -0.2015 -1.0422
  127OSM   H14F13631   6.136   3.003   8.087  2.0972  6.0339 -2.2370
  127OSM   H14G13632   6.305   3.041   8.061  0.4404 -0.2516  2.5458
  127OSM   C15F13633   6.279   2.879   8.195 -0.4373 -0.7354  0.3245
  127OSM   H15F13634   6.389   2.861   8.197 -0.1374  0.9687  1.9900
  127OSM   H15G13635   6.213   2.790   8.185 -2.6031  1.0457 -3.2647
  127OSM   C16F13636   6.240   2.947   8.328 -0.0070 -0.7207 -0.0470
  127OSM   H16F13637   6.129   2.952   8.332 -0.0502 -0.8248 -0.9727
  127OSM   H16G13638   6.272   3.052   8.341  1.1561 -1.3739  3.3910
  127OSM   C17F13639   6.283   2.868   8.456  0.4363  0.1375  0.2118
  127OSM   H17F13640   6.390   2.841   8.455  0.1875 -0.9001 -1.5227
  127OSM   H17G13641   6.218   2.778   8.452 -0.3303  0.6414  1.0374
  127OSM   C18F13642   6.243   2.932   8.590 -0.1652  0.6760 -0.4438
  127OSM   H18F13643   6.139   2.973   8.586 -1.1551 -1.5716  0.3020
  127OSM   H18G13644   6.314   3.015   8.607 -0.6530  1.1280 -0.5729
  127OSM   H18H13645   6.246   2.865   8.679  1.0736 -1.2795 -1.8778
  128OSM      N13646   6.594   4.293   5.968  0.4309 -0.0693  0.3592
  128OSM    C1513647   6.445   4.316   5.950 -0.3844  0.1062 -0.4574
  128OSM   H15A13648   6.391   4.223   5.944  1.0195 -0.7192 -0.8333
  128OSM   H15B13649   6.433   4.360   5.852  1.4741 -0.3754 -0.9385
  128OSM   H15C13650   6.411   4.376   6.034  0.1084  1.7460 -1.3718
  128OSM    C1413651   6.617   4.194   5.859  0.7046 -0.2511 -0.0123
  128OSM   H14A13652   6.594   4.238   5.763  0.4693  0.3465  0.3113
  128OSM   H14B13653   6.553   4.108   5.869 -0.4025  0.4274 -0.9556
  128OSM   H14C13654   6.717   4.154   5.852  0.3897 -1.3203  1.2663
  128OSM    C1313655   6.669   4.428   5.935  0.0795 -0.8744  0.6940
  128OSM   H13A13656   6.661   4.446   5.829 -1.8651  0.5398  1.0177
  128OSM   H13B13657   6.768   4.432   5.976 -0.3556  2.9831  1.7188
  128OSM   H13C13658   6.600   4.504   5.969  1.2395  1.0881 -1.0950
  128OSM    C1213659   6.631   4.239   6.100  0.1029 -0.1239  0.5661
  128OSM   H12A13660   6.739   4.240   6.097  0.1114 -0.8807  0.4244
  128OSM   H12B13661   6.599   4.136   6.110 -0.7396  0.0497 -0.2148
  128OSM    C1113662   6.583   4.312   6.225  0.0416 -0.7934  0.2898
  128OSM   H11A13663   6.623   4.251   6.309  2.8280  0.7824  0.2226
  128OSM   H11B13664   6.473   4.306   6.242 -0.2438  3.2081  0.8980
  128OSM      P13665   6.539   4.561   6.284  0.1495  0.0399  0.2113
  128OSM    O1313666   6.606   4.680   6.329 -0.1878 -0.0548  0.4246
  128OSM    O1413667   6.427   4.581   6.187  0.2664 -0.1596 -0.2430
  128OSM    O1113668   6.472   4.511   6.415 -0.0904  0.1317 -0.7522
  128OSM    O1213669   6.638   4.448   6.226 -0.4308  0.3654  0.3086
  128OSM    C1S13670   6.535   4.440   6.519 -0.5148 -0.2915  0.3846
  128OSM    H1S13671   6.645   4.453   6.515 -0.5671  0.0694  0.1360
  128OSM    H1T13672   6.521   4.330   6.510 -0.3430 -0.2432 -0.6653
  128OSM     NF13673   6.573   4.431   6.776 -0.0362 -0.5178 -0.0356
  128OSM    HNF13674   6.529   4.372   6.843 -0.2991 -0.2522  0.0270
  128OSM    C2S13675   6.488   4.494   6.667 -0.0832  0.3886 -0.7530
  128OSM    H2S13676   6.501   4.604   6.666 -1.2863  0.5458 -0.2220
  128OSM    C3S13677   6.341   4.457   6.691 -0.4301  0.0494 -0.1757
  128OSM    H3S13678   6.325   4.350   6.668  0.1896 -0.4064  1.3859
  128OSM     O313679   6.262   4.528   6.596 -0.5959  0.0152  0.1124
  128OSM    HO313680   6.313   4.558   6.521 -2.8591  2.0913 -0.7564
  128OSM    C4S13681   6.282   4.486   6.826  0.2322 -0.4309  0.2490
  128OSM    H4S13682   6.205   4.564   6.820 -0.9883 -1.5954  0.1305
  128OSM    C5S13683   6.278   4.409   6.933 -0.3060  0.2397 -0.9127
  128OSM    H5S13684   6.325   4.309   6.929 -0.1379  0.2989 -0.5372
  128OSM    C6S13685   6.201   4.429   7.063  0.4623  0.5108  0.1513
  128OSM    H6S13686   6.269   4.401   7.146  1.7954 -1.8646 -1.5888
  128OSM    H6T13687   6.122   4.351   7.061  0.1425  0.7948  1.3148
  128OSM    C7S13688   6.135   4.561   7.094  0.1548 -0.1247 -0.3144
  128OSM    H7S13689   6.070   4.609   7.018 -2.6481  3.6964  3.9325
  128OSM    H7T13690   6.210   4.636   7.128  1.2158 -1.6192  0.8051
  128OSM    C8S13691   6.034   4.549   7.207  0.4802 -0.7643  0.0763
  128OSM    H8S13692   5.962   4.469   7.182  0.8050 -1.1180  0.2630
  128OSM    H8T13693   5.975   4.642   7.225  1.4286 -0.4212  1.5589
  128OSM    C9S13694   6.110   4.517   7.336  0.3378  0.2556  0.7005
  128OSM    H9S13695   6.181   4.601   7.353 -1.4718  1.8719  0.6077
  128OSM    H9T13696   6.170   4.423   7.331  2.3609  1.5436 -2.8204
  128OSM   C10S13697   6.009   4.512   7.450 -0.5239  0.0143 -0.4017
  128OSM   H10S13698   5.960   4.412   7.446  0.9935 -0.7438 -0.5749
  128OSM   H10T13699   5.940   4.599   7.442  1.2484  1.3130 -2.8569
  128OSM   C11S13700   6.084   4.519   7.583 -0.0912 -0.3011  0.2707
  128OSM   H11S13701   6.130   4.620   7.584 -0.6745  0.1621 -3.8390
  128OSM   H11T13702   6.169   4.448   7.585 -0.3976 -0.8512 -2.5522
  128OSM   C12S13703   5.998   4.515   7.710  0.3172  0.1386 -0.6230
  128OSM   H12S13704   5.965   4.409   7.724 -3.1695  1.2744  0.8254
  128OSM   H12T13705   5.905   4.574   7.697 -0.8954 -1.9161 -1.8047
  128OSM   C13S13706   6.063   4.561   7.837  0.1707 -0.7187 -0.2735
  128OSM   H13S13707   6.093   4.668   7.829  0.5357 -0.6635  1.3877
  128OSM   H13T13708   6.151   4.495   7.856  0.8313 -0.7041 -2.8586
  128OSM   C14S13709   5.969   4.563   7.956 -0.4896 -0.0211  0.2191
  128OSM   H14S13710   5.886   4.628   7.922  1.7345  1.5687 -2.6650
  128OSM   H14T13711   6.030   4.611   8.036 -1.0608 -0.7762  1.1121
  128OSM   C15S13712   5.907   4.430   8.008  0.5216 -0.3610 -0.2926
  128OSM   H15S13713   5.996   4.370   8.037  0.9018  0.1592 -0.3787
  128OSM   H15T13714   5.839   4.390   7.929 -1.0691  0.7405  0.4549
  128OSM   C16S13715   5.810   4.458   8.123 -0.0570  1.3149  0.1880
  128OSM   H16S13716   5.751   4.549   8.102 -1.3117  0.4503 -0.1292
  128OSM   H16T13717   5.865   4.469   8.219  0.2041 -0.4673  0.2800
  128OSM   C17S13718   5.696   4.347   8.138  0.5362 -0.3010 -0.0781
  128OSM   H17S13719   5.743   4.247   8.148 -1.4425 -1.2468  0.0752
  128OSM   H17T13720   5.623   4.338   8.056 -0.1468 -0.1976  0.5064
  128OSM   C18S13721   5.616   4.376   8.264 -0.3452  0.5173 -0.0606
  128OSM   H18S13722   5.673   4.354   8.357 -0.2989 -0.7803 -0.3729
  128OSM   H18T13723   5.519   4.322   8.264 -0.6725  1.0926 -0.6238
  128OSM   H18U13724   5.593   4.483   8.248  1.8078  0.9672 -0.3901
  128OSM    C1F13725   6.707   4.449   6.776 -0.7425 -0.4700 -0.2089
  128OSM     OF13726   6.754   4.544   6.718 -0.2112 -0.7344  0.8003
  128OSM    C2F13727   6.795   4.346   6.830 -0.1096  0.1763 -0.8442
  128OSM    H2F13728   6.885   4.320   6.769  1.1367  1.5574  0.3200
  128OSM    H2G13729   6.737   4.256   6.858  0.4814  0.6218  2.1159
  128OSM    C3F13730   6.843   4.401   6.966 -0.6879  0.8816  0.1697
  128OSM    H3F13731   6.906   4.490   6.946 -0.6425  0.8063 -0.0155
  128OSM    H3G13732   6.900   4.321   7.018  1.4113  2.9447  1.2377
  128OSM    C4F13733   6.737   4.454   7.060  0.7861 -0.6225 -0.0970
  128OSM    H4F13734   6.670   4.531   7.015  1.1298  0.1718  0.7234
  128OSM    H4G13735   6.792   4.513   7.137  2.3432 -0.9207 -0.9314
  128OSM    C5F13736   6.666   4.353   7.141  0.1973  0.0638  0.5480
  128OSM    H5F13737   6.732   4.272   7.179  0.2902 -0.3374 -0.4482
  128OSM    H5G13738   6.584   4.308   7.081  0.4257 -0.3660  0.5516
  128OSM    C6F13739   6.599   4.403   7.276  0.1294  0.4460  0.6658
  128OSM    H6F13740   6.522   4.325   7.297 -2.3992  1.8713 -2.5540
  128OSM    H6G13741   6.535   4.490   7.254  2.0489  1.5643 -0.7782
  128OSM    C7F13742   6.691   4.423   7.394  0.1256 -0.1073 -1.2737
  128OSM    H7F13743   6.777   4.488   7.367  0.3024  0.8000  1.2160
  128OSM    H7G13744   6.733   4.330   7.438  1.1722 -0.1754 -2.3875
  128OSM    C8F13745   6.622   4.505   7.510  0.1766 -0.4001 -0.0846
  128OSM    H8F13746   6.597   4.601   7.460 -0.6425 -0.9149 -0.6847
  128OSM    H8G13747   6.699   4.535   7.584  0.8687  1.0822 -1.3429
  128OSM    C9F13748   6.495   4.444   7.562  0.6954 -0.9810  0.0757
  128OSM    H9F13749   6.446   4.373   7.494  0.1295 -0.2739 -0.2639
  128OSM   C10F13750   6.452   4.455   7.689 -0.0493 -0.6816  0.0391
  128OSM   H10F13751   6.355   4.412   7.720 -1.5208  1.0312 -1.8913
  128OSM   C11F13752   6.524   4.529   7.802 -0.2848 -0.0560  0.2417
  128OSM   H11F13753   6.505   4.636   7.777 -1.0198  0.0703  1.2684
  128OSM   H11G13754   6.631   4.500   7.805 -0.0462  0.8239  0.6685
  128OSM   C12F13755   6.457   4.484   7.930  1.1277  0.2048  0.1935
  128OSM   H12F13756   6.455   4.373   7.922  0.6499  0.2331 -0.1263
  128OSM   H12G13757   6.358   4.535   7.926  1.3624  0.7793  1.2559
  128OSM   C13F13758   6.534   4.512   8.063 -0.2468 -0.2702 -0.8984
  128OSM   H13F13759   6.491   4.601   8.113 -1.5447 -2.2161  1.7120
  128OSM   H13G13760   6.642   4.530   8.044 -0.0532 -0.4314 -0.0110
  128OSM   C14F13761   6.538   4.388   8.157 -0.2278 -0.1972  0.2004
  128OSM   H14F13762   6.587   4.307   8.100  0.6552  1.1533 -1.0218
  128OSM   H14G13763   6.433   4.358   8.178 -0.4222  0.0667 -0.3730
  128OSM   C15F13764   6.606   4.420   8.290 -0.0867  0.6616  0.1405
  128OSM   H15F13765   6.534   4.479   8.350 -0.9485  0.8043 -1.0112
  128OSM   H15G13766   6.699   4.478   8.274  0.0408  0.1176 -1.2374
  128OSM   C16F13767   6.622   4.293   8.387  0.3227 -0.3354 -0.7543
  128OSM   H16F13768   6.652   4.332   8.486  1.0549  0.3248 -1.2176
  128OSM   H16G13769   6.705   4.235   8.343 -0.2799 -1.0141 -1.0144
  128OSM   C17F13770   6.497   4.209   8.399 -0.4341 -0.1893 -0.7783
  128OSM   H17F13771   6.458   4.164   8.305 -0.5785 -1.2801 -0.2123
  128OSM   H17G13772   6.414   4.267   8.444 -1.6684 -2.4843  0.0936
  128OSM   C18F13773   6.514   4.098   8.504  1.0134  0.5838  0.0977
  128OSM   H18F13774   6.424   4.033   8.503  1.5875 -0.2702  1.2861
  128OSM   H18G13775   6.523   4.136   8.608  0.4578  0.0669  0.3378
  128OSM   H18H13776   6.600   4.033   8.474 -1.6130 -3.4288  0.5439
  129OSM      N13777   4.459   1.199   5.859 -0.3526  0.0053 -0.2180
  129OSM    C1513778   4.358   1.154   5.759 -0.0337 -0.6191  0.4598
  129OSM   H15A13779   4.381   1.085   5.679 -1.7844 -1.6804  0.8191
  129OSM   H15B13780   4.310   1.238   5.713  1.5548  0.6429  1.0256
  129OSM   H15C13781   4.273   1.108   5.809  0.5853 -0.9610  1.2247
  129OSM    C1413782   4.537   1.304   5.791 -0.2869  0.5728 -0.1544
  129OSM   H14A13783   4.628   1.326   5.845  0.8511 -0.1847 -1.6823
  129OSM   H14B13784   4.477   1.394   5.789 -0.8816  0.1962  0.3564
  129OSM   H14C13785   4.556   1.283   5.687  3.0912 -2.8265  0.9398
  129OSM    C1313786   4.379   1.257   5.980  0.1215  0.1323  0.2944
  129OSM   H13A13787   4.448   1.274   6.061  1.5312  0.4341 -0.9349
  129OSM   H13B13788   4.311   1.181   6.016  0.7358 -0.9804 -0.8354
  129OSM   H13C13789   4.327   1.351   5.965 -1.7820 -1.2299 -2.6250
  129OSM    C1213790   4.545   1.089   5.914  0.0330  0.1079  0.0694
  129OSM   H12A13791   4.591   1.040   5.829  1.1422  2.4699 -0.8204
  129OSM   H12B13792   4.483   1.022   5.971  0.2610 -0.3053 -0.1662
  129OSM    C1113793   4.661   1.128   6.008 -0.2823 -0.1716 -0.1024
  129OSM   H11A13794   4.674   1.033   6.064  3.2732  1.1569  1.6669
  129OSM   H11B13795   4.633   1.202   6.087  0.9700 -0.5830  0.7582
  129OSM      P13796   4.881   1.267   5.983 -0.1491 -0.0368  0.2055
  129OSM    O1313797   5.015   1.210   5.953  0.8248 -0.0783 -0.4507
  129OSM    O1413798   4.843   1.396   5.920  0.3564 -0.0877 -0.0714
  129OSM    O1113799   4.863   1.291   6.132 -0.0983 -0.1850  0.1007
  129OSM    O1213800   4.777   1.155   5.940 -0.4365 -0.6656  0.1851
  129OSM    C1S13801   4.942   1.390   6.202  0.2497  0.1430 -0.2779
  129OSM    H1S13802   4.915   1.493   6.171  1.9215  0.3755 -1.0515
  129OSM    H1T13803   5.048   1.386   6.171  0.7706  0.0213  1.4470
  129OSM     NF13804   4.997   1.491   6.424 -0.3159  0.0288  0.5450
  129OSM    HNF13805   5.092   1.492   6.454  0.4691  0.3573 -1.7304
  129OSM    C2S13806   4.944   1.370   6.360  0.4913  0.1927 -0.8071
  129OSM    H2S13807   4.840   1.358   6.398  1.4897 -0.4409  1.9824
  129OSM    C3S13808   5.018   1.244   6.398 -0.4104  0.6717 -0.2120
  129OSM    H3S13809   5.119   1.258   6.353 -1.0593 -1.0157 -2.4117
  129OSM     O313810   4.974   1.129   6.330 -0.3970  0.1730  0.5855
  129OSM    HO313811   4.926   1.159   6.253 -1.5419 -2.1823  0.2780
  129OSM    C4S13812   5.021   1.222   6.549  0.3998 -0.3215  0.0994
  129OSM    H4S13813   4.920   1.213   6.591 -0.9368  0.9101 -2.5853
  129OSM    C5S13814   5.125   1.211   6.624 -0.8189 -0.2588  0.4066
  129OSM    H5S13815   5.228   1.223   6.587 -1.4516  0.6565 -1.1626
  129OSM    C6S13816   5.127   1.207   6.772 -0.2140 -0.5034 -0.2218
  129OSM    H6S13817   5.220   1.255   6.809  0.3028  0.5376 -2.7278
  129OSM    H6T13818   5.140   1.098   6.790 -0.9614 -0.5894 -0.1613
  129OSM    C7S13819   4.999   1.274   6.838  0.6138 -0.2885 -0.1888
  129OSM    H7S13820   4.910   1.207   6.840  1.7013 -1.7792  1.8298
  129OSM    H7T13821   4.980   1.371   6.788 -0.2753 -1.4051 -2.1485
  129OSM    C8S13822   5.018   1.299   6.994 -0.1319 -0.3809 -0.0463
  129OSM    H8S13823   5.119   1.343   7.004  0.5571 -1.9948  0.4278
  129OSM    H8T13824   5.015   1.197   7.039  2.4696 -0.3289  0.3950
  129OSM    C9S13825   4.916   1.389   7.066 -0.0302 -0.1144 -0.7085
  129OSM    H9S13826   4.822   1.330   7.063  1.1276 -2.0995 -4.5777
  129OSM    H9T13827   4.904   1.487   7.015 -1.4276 -0.2456 -0.6633
  129OSM   C10S13828   4.959   1.407   7.221  0.8351  0.1490  0.0835
  129OSM   H10S13829   5.067   1.431   7.225  0.8827 -0.1680  0.7512
  129OSM   H10T13830   4.956   1.311   7.276 -2.4509 -0.0551 -0.2222
  129OSM   C11S13831   4.868   1.506   7.294  0.4192 -0.2459 -0.1153
  129OSM   H11S13832   4.768   1.459   7.297  0.9562 -1.6358 -2.1336
  129OSM   H11T13833   4.857   1.606   7.245 -0.1488  0.8189  2.0447
  129OSM   C12S13834   4.918   1.543   7.434  1.0884 -0.2728 -0.3301
  129OSM   H12S13835   5.011   1.605   7.432  0.6080  0.7430  2.9917
  129OSM   H12T13836   4.955   1.452   7.484  1.0088  0.6829  1.5544
  129OSM   C13S13837   4.809   1.618   7.516  0.2601  0.3293  0.2469
  129OSM   H13S13838   4.720   1.552   7.516  1.1760 -1.2039 -3.4907
  129OSM   H13T13839   4.786   1.713   7.463  1.6265  0.4580 -0.1493
  129OSM   C14S13840   4.862   1.663   7.656  1.1637 -0.0578  1.7760
  129OSM   H14S13841   4.952   1.728   7.644  0.3943  0.8892  0.9654
  129OSM   H14T13842   4.886   1.572   7.714 -2.2811 -0.8487  2.1735
  129OSM   C15S13843   4.760   1.745   7.736  0.0024 -0.4123 -0.3467
  129OSM   H15S13844   4.667   1.689   7.757 -0.5864  1.1932  1.6783
  129OSM   H15T13845   4.721   1.829   7.675 -2.6243 -2.2600 -1.3939
  129OSM   C16S13846   4.813   1.806   7.870  0.1133  0.1884  0.3957
  129OSM   H16S13847   4.835   1.719   7.935 -1.3951  1.2369  2.4497
  129OSM   H16T13848   4.729   1.864   7.916  0.4267  1.2456 -0.3345
  129OSM   C17S13849   4.940   1.888   7.844 -0.0448 -1.0364 -0.6775
  129OSM   H17S13850   4.928   1.939   7.746 -0.1035  1.8707  0.7319
  129OSM   H17T13851   5.029   1.823   7.831  1.0316 -0.1489  1.5938
  129OSM   C18S13852   4.967   1.983   7.968  0.4384 -0.8924 -0.1876
  129OSM   H18S13853   4.955   1.935   8.067  0.3716  0.7354  0.6314
  129OSM   H18T13854   4.889   2.062   7.968  1.6626  0.3512  0.4723
  129OSM   H18U13855   5.068   2.029   7.968 -0.9336  2.4077  0.9495
  129OSM    C1F13856   4.927   1.606   6.448 -0.2258  0.5353  0.0835
  129OSM     OF13857   4.837   1.644   6.375 -0.9166 -0.4773  0.1510
  129OSM    C2F13858   4.949   1.668   6.573 -0.0914  0.4634 -0.4476
  129OSM    H2F13859   5.037   1.735   6.566 -0.5391  1.1437  0.1960
  129OSM    H2G13860   4.981   1.592   6.647  0.5958  1.6675  0.5294
  129OSM    C3F13861   4.835   1.756   6.622 -0.1748 -0.7510 -0.4414
  129OSM    H3F13862   4.739   1.701   6.630 -0.3867 -0.3897 -0.5193
  129OSM    H3G13863   4.811   1.831   6.544  1.6962 -0.2791 -0.6075
  129OSM    C4F13864   4.869   1.831   6.753 -0.4788  0.0754  0.1286
  129OSM    H4F13865   4.782   1.889   6.790  0.0349  1.4168 -0.6979
  129OSM    H4G13866   4.948   1.906   6.730 -1.6085  1.6911  1.2434
  129OSM    C5F13867   4.915   1.743   6.874 -0.6106 -0.2690  0.2296
  129OSM    H5F13868   5.020   1.719   6.845 -1.0734 -2.3077  0.1063
  129OSM    H5G13869   4.850   1.654   6.885 -1.3449  0.3126  0.6633
  129OSM    C6F13870   4.922   1.834   7.001 -0.0708 -0.3309  0.4094
  129OSM    H6F13871   4.982   1.769   7.069 -1.9036 -2.4908  0.0850
  129OSM    H6G13872   4.822   1.850   7.047  0.6124 -0.7828  2.1565
  129OSM    C7F13873   5.001   1.961   6.965  0.4947 -0.3091  0.1908
  129OSM    H7F13874   4.938   2.033   6.908 -0.0439 -1.1968 -0.3643
  129OSM    H7G13875   5.083   1.926   6.898 -1.2009  0.4070 -2.4470
  129OSM    C8F13876   5.053   2.047   7.079  0.1184  0.5952 -0.3245
  129OSM    H8F13877   5.086   2.147   7.043  1.3931  0.7949  1.2927
  129OSM    H8G13878   5.140   2.000   7.130 -0.3525  2.2406  2.2106
  129OSM    C9F13879   4.938   2.065   7.183  0.5320 -1.1129 -0.0432
  129OSM    H9F13880   4.862   2.130   7.137 -0.2815 -2.1497 -0.1722
  129OSM   C10F13881   4.932   2.011   7.303 -0.4060 -0.3022  0.7548
  129OSM   H10F13882   4.841   2.025   7.362 -0.4499 -0.0279  0.6223
  129OSM   C11F13883   5.031   1.919   7.367 -0.1804 -0.1797  0.0166
  129OSM   H11F13884   5.116   1.906   7.296  0.5148  2.5498  0.1996
  129OSM   H11G13885   4.980   1.822   7.378  0.7395 -0.9238 -1.9330
  129OSM   C12F13886   5.071   1.950   7.515 -0.4713 -0.5141  0.7694
  129OSM   H12F13887   5.094   1.857   7.571 -0.7034 -1.2824 -0.3788
  129OSM   H12G13888   4.989   2.002   7.571 -0.7158  2.1417 -1.7938
  129OSM   C13F13889   5.194   2.047   7.526 -0.1214  0.0139 -0.1512
  129OSM   H13F13890   5.152   2.138   7.479 -0.2986  0.7675  1.3988
  129OSM   H13G13891   5.270   2.008   7.455 -0.0569 -1.0489  0.4835
  129OSM   C14F13892   5.249   2.062   7.670 -0.0497 -0.6191  0.1785
  129OSM   H14F13893   5.253   1.958   7.709 -0.4742 -0.4319  0.7454
  129OSM   H14G13894   5.163   2.112   7.720  0.3860 -1.7703  2.1637
  129OSM   C15F13895   5.378   2.136   7.692  0.3493 -0.1480  0.4701
  129OSM   H15F13896   5.366   2.240   7.653 -2.0931 -0.2905  0.6411
  129OSM   H15G13897   5.461   2.085   7.639  1.0303 -0.7560  2.0529
  129OSM   C16F13898   5.412   2.154   7.841 -0.5067  0.6881  0.1367
  129OSM   H16F13899   5.517   2.189   7.848 -0.7375  1.2296  1.0507
  129OSM   H16G13900   5.397   2.058   7.894 -0.0993  1.2457  1.2992
  129OSM   C17F13901   5.328   2.258   7.915 -0.2465  0.4039 -0.3505
  129OSM   H17F13902   5.222   2.230   7.900 -0.1932 -0.3653  0.6214
  129OSM   H17G13903   5.347   2.364   7.886  0.5473  1.1914  2.6655
  129OSM   C18F13904   5.355   2.254   8.067  0.4046 -0.2348  0.1269
  129OSM   H18F13905   5.462   2.259   8.095  0.1533  1.7232  0.8857
  129OSM   H18G13906   5.324   2.156   8.110  1.9403 -0.5783  0.4967
  129OSM   H18H13907   5.300   2.334   8.122  0.2783  0.3063 -0.7827
  130OSM      N13908   5.662   3.966   5.890 -0.2691 -0.3324  0.1299
  130OSM    C1513909   5.552   4.033   5.963  1.0749 -0.0411 -0.5926
  130OSM   H15A13910   5.590   4.081   6.051  2.5165 -2.3334  0.0863
  130OSM   H15B13911   5.478   3.962   5.996 -0.7161  0.9578 -2.2139
  130OSM   H15C13912   5.500   4.104   5.898 -0.8934 -1.7483 -0.9935
  130OSM    C1413913   5.600   3.913   5.762  0.1565 -0.7731  0.3032
  130OSM   H14A13914   5.517   3.847   5.782 -0.9777  0.4740 -0.2054
  130OSM   H14B13915   5.671   3.852   5.707  3.0699  0.2969  2.5926
  130OSM   H14C13916   5.557   3.993   5.704  1.0125  0.4843  1.3436
  130OSM    C1313917   5.765   4.064   5.858 -0.6711 -0.2739  0.2379
  130OSM   H13A13918   5.748   4.126   5.772 -1.0143 -2.0541 -1.0286
  130OSM   H13B13919   5.856   4.013   5.828 -0.5942 -0.0422  0.0748
  130OSM   H13C13920   5.796   4.122   5.944  0.1154 -1.0070  0.4692
  130OSM    C1213921   5.715   3.847   5.972  0.2310  0.1988  0.9696
  130OSM   H12A13922   5.760   3.882   6.063 -1.0172  2.3842  0.8263
  130OSM   H12B13923   5.804   3.806   5.926  0.3688 -1.0650  2.3184
  130OSM    C1113924   5.622   3.728   5.993 -0.0410 -0.6206  0.3634
  130OSM   H11A13925   5.582   3.686   5.899  2.7886 -1.8387 -0.3991
  130OSM   H11B13926   5.544   3.762   6.064  0.4475  1.1215  0.1097
  130OSM      P13927   5.711   3.593   6.201  0.0023  0.0323  0.0139
  130OSM    O1313928   5.801   3.475   6.210 -0.2910  0.1067  0.1256
  130OSM    O1413929   5.758   3.713   6.273 -0.0700  0.3829 -0.1746
  130OSM    O1113930   5.558   3.556   6.239  0.0304 -0.3451 -0.5557
  130OSM    O1213931   5.697   3.630   6.053  0.1799 -0.3656  0.3051
  130OSM    C1S13932   5.533   3.460   6.343  0.5920  0.2412  0.8225
  130OSM    H1S13933   5.609   3.379   6.340 -0.2549 -0.5484 -1.1409
  130OSM    H1T13934   5.439   3.410   6.311  1.1212  0.0627 -0.5096
  130OSM     NF13935   5.534   3.420   6.596  0.5064 -0.2738 -0.0534
  130OSM    HNF13936   5.452   3.385   6.640  0.3413 -0.2590 -0.3475
  130OSM    C2S13937   5.523   3.522   6.485 -0.5543 -0.1166 -1.3225
  130OSM    H2S13938   5.609   3.589   6.507  0.1007 -1.8544  1.9928
  130OSM    C3S13939   5.406   3.620   6.504  0.3414  0.5635 -0.4714
  130OSM    H3S13940   5.309   3.572   6.482 -0.7746  0.3652  3.9189
  130OSM     O313941   5.422   3.733   6.419  0.7304 -0.3844  0.1753
  130OSM    HO313942   5.475   3.698   6.347 -0.6937 -0.1356 -1.0455
  130OSM    C4S13943   5.378   3.669   6.645 -0.6701  0.2911  0.0551
  130OSM    H4S13944   5.317   3.593   6.697  0.1122 -2.3444 -2.6227
  130OSM    C5S13945   5.414   3.785   6.699  0.0996 -0.6773  0.0570
  130OSM    H5S13946   5.468   3.864   6.644  2.9194  0.3017  3.8403
  130OSM    C6S13947   5.380   3.812   6.842 -0.1019 -0.8328  0.2907
  130OSM    H6S13948   5.282   3.865   6.838  0.8038  1.0451  1.2668
  130OSM    H6T13949   5.451   3.886   6.886  0.7002  0.5861 -3.0624
  130OSM    C7S13950   5.371   3.698   6.941 -0.2521  0.0796 -0.0661
  130OSM    H7S13951   5.444   3.616   6.927 -0.5885 -0.2932  0.3093
  130OSM    H7T13952   5.273   3.650   6.920  0.6455 -2.7593  1.6602
  130OSM    C8S13953   5.392   3.735   7.086 -0.3266  0.7353  0.1751
  130OSM    H8S13954   5.474   3.811   7.088  0.2875  0.1498 -1.1298
  130OSM    H8T13955   5.426   3.643   7.139  1.4187  0.2206 -1.6810
  130OSM    C9S13956   5.273   3.773   7.164  0.6506  0.4122 -0.0950
  130OSM    H9S13957   5.199   3.691   7.153  1.1937 -0.5428  2.6197
  130OSM    H9T13958   5.224   3.867   7.132  1.3752  1.0549  0.6522
  130OSM   C10S13959   5.295   3.781   7.321 -0.3705 -0.3664 -0.0695
  130OSM   H10S13960   5.381   3.850   7.333 -2.3772  1.9649  1.8831
  130OSM   H10T13961   5.306   3.685   7.376  0.8612  1.5789  3.3568
  130OSM   C11S13962   5.176   3.844   7.400  0.1985 -0.5637  0.0471
  130OSM   H11S13963   5.085   3.786   7.374 -0.0936 -0.4821  0.8388
  130OSM   H11T13964   5.173   3.951   7.371 -0.4207  0.2356  2.7416
  130OSM   C12S13965   5.209   3.841   7.551  0.1483 -0.2063  0.5989
  130OSM   H12S13966   5.313   3.879   7.553  0.6892 -1.1883 -2.7019
  130OSM   H12T13967   5.216   3.736   7.587 -0.4645 -0.4378  0.0622
  130OSM   C13S13968   5.107   3.916   7.633 -0.1396  0.1894  0.3472
  130OSM   H13S13969   5.005   3.898   7.592  1.1139 -2.2432 -1.9271
  130OSM   H13T13970   5.120   4.024   7.609 -0.4271 -0.4207 -2.9039
  130OSM   C14S13971   5.102   3.867   7.780 -0.1608  0.6385 -0.4569
  130OSM   H14S13972   5.199   3.826   7.814  1.7138  2.4885 -3.2288
  130OSM   H14T13973   5.034   3.780   7.791 -1.8558  1.6443 -2.2894
  130OSM   C15S13974   5.060   3.985   7.868  0.3316  0.2037  0.1031
  130OSM   H15S13975   4.953   4.012   7.854  0.2646  0.8554  1.6819
  130OSM   H15T13976   5.129   4.069   7.845 -0.1439  0.8742  1.0966
  130OSM   C16S13977   5.079   3.961   8.017 -0.9796 -0.5203 -0.8613
  130OSM   H16S13978   5.187   3.935   8.026 -0.8412 -0.4621 -2.1837
  130OSM   H16T13979   5.025   3.872   8.056 -1.9108 -0.0871 -1.1384
  130OSM   C17S13980   5.052   4.087   8.105  0.4313 -0.0564 -0.3028
  130OSM   H17S13981   4.943   4.095   8.083 -0.2248 -0.5046  2.4008
  130OSM   H17T13982   5.107   4.171   8.059  0.2154 -0.0287 -0.5112
  130OSM   C18S13983   5.068   4.065   8.260  0.0189 -0.5684  0.2234
  130OSM   H18S13984   5.037   3.960   8.276  2.9572 -1.7566 -1.1181
  130OSM   H18T13985   5.008   4.139   8.316 -0.5100 -0.8238 -0.0009
  130OSM   H18U13986   5.175   4.062   8.289 -0.0263 -0.0077  0.4580
  130OSM    C1F13987   5.640   3.345   6.625  0.8488 -0.5215 -0.5615
  130OSM     OF13988   5.747   3.375   6.576 -0.4448  0.3855  0.0104
  130OSM    C2F13989   5.630   3.235   6.729  0.5152 -0.4923  0.7655
  130OSM    H2F13990   5.706   3.162   6.695 -0.1450 -0.4589 -0.8618
  130OSM    H2G13991   5.528   3.191   6.737  0.3661 -0.4877 -0.7444
  130OSM    C3F13992   5.682   3.281   6.860 -0.5378 -0.9228  0.6854
  130OSM    H3F13993   5.620   3.371   6.883 -1.6087 -1.3070 -0.5458
  130OSM    H3G13994   5.786   3.319   6.864 -0.8882  0.1705 -0.0934
  130OSM    C4F13995   5.668   3.188   6.981  0.7321  0.2977  0.0456
  130OSM    H4F13996   5.709   3.090   6.947 -1.7705 -1.1707  0.9673
  130OSM    H4G13997   5.560   3.169   6.996  1.0965 -1.7432  0.3503
  130OSM    C5F13998   5.737   3.240   7.111 -0.4317 -0.6017  0.0085
  130OSM    H5F13999   5.687   3.333   7.144 -0.4451 -1.1012  1.4759
  130OSM    H5G14000   5.835   3.281   7.079  0.0512 -2.3691 -0.9042
  130OSM    C6F14001   5.752   3.141   7.226  0.2766 -0.2321 -0.3748
  130OSM    H6F14002   5.806   3.050   7.190 -1.9208 -1.3547 -0.9987
  130OSM    H6G14003   5.646   3.112   7.236  0.7633 -1.4040  2.0486
  130OSM    C7F14004   5.807   3.196   7.357 -0.2354 -0.0600  0.2580
  130OSM    H7F14005   5.750   3.288   7.381 -0.4865 -0.3647  0.8407
  130OSM    H7G14006   5.913   3.230   7.353  0.4705 -2.1515 -0.1979
  130OSM    C8F14007   5.806   3.092   7.472 -0.1304 -0.1437  0.1271
  130OSM    H8F14008   5.874   3.011   7.439 -1.6680 -1.1190 -0.7678
  130OSM    H8G14009   5.701   3.057   7.478 -1.1958  2.7213  0.1115
  130OSM    C9F14010   5.855   3.155   7.603 -0.3664 -0.8495  0.7236
  130OSM    H9F14011   5.880   3.262   7.591 -0.7672 -0.7047  1.1397
  130OSM   C10F14012   5.868   3.106   7.729  0.5741 -0.6414 -0.0741
  130OSM   H10F14013   5.894   3.182   7.805  1.5623  1.2630 -2.2003
  130OSM   C11F14014   5.812   2.973   7.776  0.0139 -0.8980  0.0821
  130OSM   H11F14015   5.826   2.892   7.701  0.9247 -0.5493 -0.1357
  130OSM   H11G14016   5.701   2.978   7.785 -0.1020 -2.6945 -0.0173
  130OSM   C12F14017   5.872   2.925   7.908  0.8340  0.9121  0.2013
  130OSM   H12F14018   5.982   2.935   7.900  0.4938  4.0158 -3.0001
  130OSM   H12G14019   5.863   2.814   7.910 -0.6063  1.0094  0.2472
  130OSM   C13F14020   5.811   2.994   8.039 -0.3613  0.5368 -0.1325
  130OSM   H13F14021   5.845   2.936   8.128  0.4923 -0.0007 -0.8027
  130OSM   H13G14022   5.701   2.979   8.030 -0.2846 -0.8240  0.9278
  130OSM   C14F14023   5.849   3.143   8.079  0.6171  0.5456 -0.2155
  130OSM   H14F14024   5.784   3.202   8.010 -1.2730 -1.5961 -0.3965
  130OSM   H14G14025   5.957   3.166   8.063  0.8955 -0.1411  0.6450
  130OSM   C15F14026   5.809   3.181   8.219 -0.5085  0.7270  0.1544
  130OSM   H15F14027   5.828   3.285   8.255 -0.9068  0.4897  1.0998
  130OSM   H15G14028   5.876   3.122   8.284  1.2998  2.0582 -0.4319
  130OSM   C16F14029   5.654   3.172   8.240  1.0317 -0.1674 -0.1869
  130OSM   H16F14030   5.637   3.170   8.350 -2.1330 -0.7866 -0.5772
  130OSM   H16G14031   5.603   3.082   8.202  1.1537  0.2302 -1.3206
  130OSM   C17F14032   5.585   3.296   8.181  0.4677  0.0060 -0.7368
  130OSM   H17F14033   5.587   3.299   8.070  0.3013  0.0435 -0.7385
  130OSM   H17G14034   5.637   3.384   8.225  0.0060  0.2417 -0.6573
  130OSM   C18F14035   5.436   3.303   8.225 -0.7462 -0.0603 -0.0612
  130OSM   H18F14036   5.362   3.273   8.148 -0.5063 -0.8323 -0.0003
  130OSM   H18G14037   5.434   3.413   8.241 -0.0688 -0.1684  0.8865
  130OSM   H18H14038   5.417   3.243   8.316 -2.4019  1.0478  0.3697
  131OSM      N14039   5.746   0.718   6.211  0.4538 -0.8233  0.5121
  131OSM    C1514040   5.640   0.614   6.207 -0.2555  0.4954 -0.1102
  131OSM   H15A14041   5.673   0.521   6.251 -0.1045  1.0947  1.0929
  131OSM   H15B14042   5.618   0.587   6.105  2.1376  0.1491 -0.5842
  131OSM   H15C14043   5.551   0.636   6.264 -0.7206 -1.1506 -0.1457
  131OSM    C1414044   5.812   0.726   6.349 -0.3550 -0.2175 -0.0080
  131OSM   H14A14045   5.742   0.722   6.431  1.0739 -1.1565  1.2027
  131OSM   H14B14046   5.876   0.812   6.357 -1.1318  0.8492 -3.5318
  131OSM   H14C14047   5.869   0.640   6.380 -1.0462 -1.0274 -0.9039
  131OSM    C1314048   5.844   0.681   6.115 -0.3250 -0.1605  0.5285
  131OSM   H13A14049   5.898   0.596   6.153 -0.0709  0.7277  2.2918
  131OSM   H13B14050   5.917   0.761   6.103 -2.2526  1.8538  1.4746
  131OSM   H13C14051   5.808   0.650   6.018  1.6518 -2.9381  0.5688
  131OSM    C1214052   5.689   0.859   6.178 -0.4072  0.2002 -0.4091
  131OSM   H12A14053   5.771   0.927   6.199  0.6143 -0.9436 -0.5887
  131OSM   H12B14054   5.615   0.878   6.255  1.3069 -2.4884  2.1498
  131OSM    C1114055   5.624   0.871   6.042 -0.0979  0.1908  0.5679
  131OSM   H11A14056   5.544   0.795   6.025 -0.5800  1.0948 -1.6260
  131OSM   H11B14057   5.702   0.849   5.966 -0.4070 -2.1246  0.8339
  131OSM      P14058   5.437   1.061   6.043  0.1352 -0.2781 -0.2276
  131OSM    O1314059   5.444   1.209   6.014  0.1527  0.1174  0.3803
  131OSM    O1414060   5.340   0.979   5.973  0.1870  0.5196  0.4120
  131OSM    O1114061   5.419   1.045   6.202  0.5900  0.0685  0.5896
  131OSM    O1214062   5.581   1.002   6.022 -0.3588  0.2256  0.3925
  131OSM    C1S14063   5.500   1.126   6.284  0.9198  0.3326  0.2983
  131OSM    H1S14064   5.475   1.231   6.260 -0.4436 -0.0833 -0.1961
  131OSM    H1T14065   5.610   1.108   6.276  1.2166  1.9403  0.4268
  131OSM     NF14066   5.546   1.198   6.517  0.8136 -0.4733  0.3285
  131OSM    HNF14067   5.631   1.158   6.551  3.4140  0.4642 -4.2288
  131OSM    C2S14068   5.461   1.108   6.433  0.6328 -0.4033 -0.1559
  131OSM    H2S14069   5.353   1.130   6.442  0.4470 -1.1106 -0.5695
  131OSM    C3S14070   5.470   0.954   6.477 -0.3949 -0.3507  0.5218
  131OSM    H3S14071   5.575   0.919   6.484  0.1440  1.2730  0.8050
  131OSM     O314072   5.403   0.874   6.383 -0.3074  1.0138  0.3174
  131OSM    HO314073   5.392   0.931   6.306  1.1473  1.3127  0.3032
  131OSM    C4S14074   5.413   0.924   6.611 -0.4877  0.0830 -0.5482
  131OSM    H4S14075   5.312   0.882   6.618 -0.3296 -0.0413  1.9627
  131OSM    C5S14076   5.479   0.952   6.727  0.3909  0.4271  0.6302
  131OSM    H5S14077   5.576   1.003   6.721  1.2730 -0.8487  2.8284
  131OSM    C6S14078   5.425   0.919   6.859 -0.4208  0.6847  0.4025
  131OSM    H6S14079   5.482   0.833   6.900  0.3674  1.4479  0.9285
  131OSM    H6T14080   5.321   0.886   6.883  0.2709 -0.6960  1.6567
  131OSM    C7S14081   5.454   1.032   6.957  0.0055 -0.4896 -0.8762
  131OSM    H7S14082   5.400   1.125   6.930  0.0207 -0.1503  0.1977
  131OSM    H7T14083   5.561   1.061   6.948  0.2621  0.5062  3.3399
  131OSM    C8S14084   5.422   1.010   7.109 -1.1731 -0.4242 -0.1602
  131OSM    H8S14085   5.452   1.105   7.159  0.1242  0.1260 -1.9036
  131OSM    H8T14086   5.481   0.927   7.153  1.5514  1.7177  0.5290
  131OSM    C9S14087   5.271   1.000   7.139  0.7746 -0.2433 -0.1015
  131OSM    H9S14088   5.223   0.908   7.099 -3.1686  0.6975  1.8843
  131OSM    H9T14089   5.219   1.085   7.090 -1.5952 -1.4034  0.2257
  131OSM   C10S14090   5.234   1.005   7.289  0.1537 -0.6031  0.8221
  131OSM   H10S14091   5.271   0.918   7.347  1.0946  1.2167  3.1051
  131OSM   H10T14092   5.124   0.992   7.289 -0.0222  0.7752  0.5043
  131OSM   C11S14093   5.267   1.129   7.369  0.4955  0.4497 -0.3001
  131OSM   H11S14094   5.252   1.220   7.307  1.4465  0.4095 -0.6057
  131OSM   H11T14095   5.374   1.124   7.399 -0.1098  1.4067  2.2997
  131OSM   C12S14096   5.201   1.135   7.508  0.4787  0.8467  0.3119
  131OSM   H12S14097   5.092   1.143   7.486  0.6529  0.0334 -0.9906
  131OSM   H12T14098   5.239   1.227   7.559 -0.2504  0.2601  1.9518
  131OSM   C13S14099   5.230   1.008   7.591 -0.1970  0.2326 -0.5614
  131OSM   H13S14100   5.339   0.989   7.587  0.1817  1.7967  1.0308
  131OSM   H13T14101   5.177   0.921   7.548  0.0520  0.2148 -0.8301
  131OSM   C14S14102   5.175   1.025   7.732 -0.0528 -0.2837 -0.4288
  131OSM   H14S14103   5.067   1.047   7.719  0.6447  4.2443 -0.1065
  131OSM   H14T14104   5.232   1.109   7.776  0.7600 -2.1843  2.4287
  131OSM   C15S14105   5.177   0.897   7.819  0.5210  0.2189  0.1293
  131OSM   H15S14106   5.283   0.864   7.829  1.5411  3.0330 -0.4157
  131OSM   H15T14107   5.118   0.818   7.767  0.6795 -1.3661  2.2214
  131OSM   C16S14108   5.100   0.915   7.954  0.1036 -0.2944  0.3048
  131OSM   H16S14109   5.010   0.980   7.943 -1.0969 -1.9282  0.0717
  131OSM   H16T14110   5.163   0.967   8.029  1.8083  1.4643 -2.1630
  131OSM   C17S14111   5.045   0.787   8.005  0.4435 -0.0847 -0.6609
  131OSM   H17S14112   5.125   0.711   8.013 -1.5761 -2.2081  0.9120
  131OSM   H17T14113   4.978   0.738   7.931  0.0736 -1.1402  0.3374
  131OSM   C18S14114   4.982   0.793   8.151 -0.6447 -0.1638  0.4750
  131OSM   H18S14115   5.045   0.777   8.241 -0.9079 -1.9105  0.3855
  131OSM   H18T14116   4.915   0.705   8.163  1.0602 -1.6607 -0.4273
  131OSM   H18U14117   4.922   0.886   8.160  2.3292  2.0260 -0.5499
  131OSM    C1F14118   5.526   1.330   6.505  0.3450  0.1072 -0.1113
  131OSM     OF14119   5.415   1.377   6.486 -0.3754  0.6068 -0.7101
  131OSM    C2F14120   5.651   1.420   6.523 -0.1266 -0.5553  0.0883
  131OSM    H2F14121   5.675   1.480   6.433 -1.3320  0.5455  0.4695
  131OSM    H2G14122   5.742   1.357   6.540  0.6178  0.0474 -1.4597
  131OSM    C3F14123   5.613   1.521   6.631  0.1930 -0.1251  0.2882
  131OSM    H3F14124   5.523   1.580   6.601 -0.7465 -2.7848 -2.6259
  131OSM    H3G14125   5.684   1.606   6.634 -0.5369  0.5125 -0.2123
  131OSM    C4F14126   5.594   1.461   6.775  0.2003  0.3932 -0.3694
  131OSM    H4F14127   5.513   1.386   6.760  0.4797  0.4640 -2.3850
  131OSM    H4G14128   5.556   1.541   6.842  0.2029 -0.4431  0.6658
  131OSM    C5F14129   5.721   1.395   6.830  0.1825  0.5875  0.0671
  131OSM    H5F14130   5.806   1.467   6.831  1.0688 -0.4133 -0.5010
  131OSM    H5G14131   5.754   1.315   6.760  4.0012  2.1973 -0.2359
  131OSM    C6F14132   5.698   1.338   6.975 -0.3422  0.4659  0.8504
  131OSM    H6F14133   5.766   1.252   6.989  1.7930  1.2912 -2.9720
  131OSM    H6G14134   5.590   1.313   6.965  0.3800 -2.1480 -1.8108
  131OSM    C7F14135   5.712   1.448   7.079  0.2260  0.1363  0.2572
  131OSM    H7F14136   5.626   1.514   7.054 -1.2617 -2.2836 -1.5630
  131OSM    H7G14137   5.807   1.503   7.067 -0.9363  1.7117 -2.9167
  131OSM    C8F14138   5.687   1.387   7.212  0.1447  0.0387  0.4517
  131OSM    H8F14139   5.750   1.300   7.240  0.9197  0.6451  0.6234
  131OSM    H8G14140   5.585   1.343   7.214  0.3742 -0.6619 -1.1075
  131OSM    C9F14141   5.695   1.497   7.316  0.9263 -0.4700 -0.3618
  131OSM    H9F14142   5.605   1.559   7.311  1.1727 -0.0831 -0.0361
  131OSM   C10F14143   5.782   1.526   7.411 -0.7181 -0.2456  0.3230
  131OSM   H10F14144   5.748   1.611   7.473 -1.0081 -0.3814  0.3540
  131OSM   C11F14145   5.906   1.443   7.444  0.3138  0.6792 -0.5024
  131OSM   H11F14146   6.000   1.492   7.411  0.5550 -0.0509 -0.9160
  131OSM   H11G14147   5.906   1.346   7.389  2.0912  0.8278 -0.8345
  131OSM   C12F14148   5.898   1.408   7.596  0.1830  0.0609 -0.1086
  131OSM   H12F14149   5.813   1.339   7.617 -1.1646  1.7322  0.2116
  131OSM   H12G14150   5.897   1.506   7.649  1.1156 -0.1101  0.2352
  131OSM   C13F14151   6.026   1.343   7.646  0.0520  0.1159 -0.3363
  131OSM   H13F14152   6.100   1.418   7.612 -0.7465  1.0382 -0.0675
  131OSM   H13G14153   6.032   1.242   7.599  1.4060 -1.9680  3.8313
  131OSM   C14F14154   6.038   1.322   7.797  0.3592 -0.2767 -0.3201
  131OSM   H14F14155   6.044   1.413   7.860 -0.3045 -0.9655  0.7776
  131OSM   H14G14156   6.127   1.263   7.829 -0.6466 -1.0855  1.1403
  131OSM   C15F14157   5.924   1.249   7.871  0.5195  0.6682 -0.4451
  131OSM   H15F14158   5.862   1.176   7.815 -0.1170 -0.3384  1.4640
  131OSM   H15G14159   5.860   1.333   7.905  0.0575  0.0918  0.1220
  131OSM   C16F14160   5.954   1.173   8.001 -0.1141 -0.1545  0.2604
  131OSM   H16F14161   5.855   1.146   8.044 -0.3905  0.4600  0.0311
  131OSM   H16G14162   5.997   1.252   8.066 -0.6829  2.8479 -2.6811
  131OSM   C17F14163   6.047   1.056   7.992  0.7204 -0.2607 -0.4278
  131OSM   H17F14164   6.153   1.088   7.998  1.4184 -2.3847 -0.7554
  131OSM   H17G14165   6.035   1.005   7.894 -0.9138  1.0410 -0.9579
  131OSM   C18F14166   6.014   0.960   8.098 -0.0695 -0.0663  0.3159
  131OSM   H18F14167   6.040   0.997   8.200 -2.2289  1.2339  0.4619
  131OSM   H18G14168   6.065   0.861   8.091  1.8251  0.7904  1.2630
  131OSM   H18H14169   5.905   0.940   8.103  0.2644 -2.3366 -0.4951
  132OSM      N14170   2.315   3.838   6.309  0.3680 -0.3886 -0.1874
  132OSM    C1514171   2.402   3.878   6.190 -0.2298 -0.0293  0.5258
  132OSM   H15A14172   2.343   3.919   6.108  2.1181 -0.0990 -1.3048
  132OSM   H15B14173   2.448   3.791   6.145 -0.8897 -0.3892  0.5211
  132OSM   H15C14174   2.478   3.944   6.226 -1.1186  1.8241 -0.8291
  132OSM    C1414175   2.270   3.955   6.389  0.3917 -0.4427 -1.0238
  132OSM   H14A14176   2.190   3.929   6.456  0.0961  1.3838 -0.6163
  132OSM   H14B14177   2.219   4.018   6.318  0.6248 -0.4613 -1.2104
  132OSM   H14C14178   2.349   4.005   6.443 -0.7179  2.6524 -2.0376
  132OSM    C1314179   2.196   3.768   6.265 -0.1065  0.0625 -0.1621
  132OSM   H13A14180   2.227   3.684   6.205 -2.1851 -1.5898  0.9469
  132OSM   H13B14181   2.117   3.830   6.225 -0.3503 -0.8955 -1.2084
  132OSM   H13C14182   2.152   3.712   6.347  1.6074 -0.8495  0.1870
  132OSM    C1214183   2.399   3.749   6.401  0.0079  0.2946 -0.0090
  132OSM   H12A14184   2.337   3.718   6.484  0.0547  2.6429  0.9649
  132OSM   H12B14185   2.482   3.806   6.440 -0.2938  0.3721  0.5322
  132OSM    C1114186   2.455   3.616   6.343  0.0039 -0.3956  0.1264
  132OSM   H11A14187   2.367   3.564   6.298 -2.9676  2.8057  1.7411
  132OSM   H11B14188   2.487   3.560   6.433  1.0671  1.8039  1.1755
  132OSM      P14189   2.699   3.710   6.267 -0.2981 -0.1711 -0.1414
  132OSM    O1314190   2.785   3.675   6.153 -1.0449 -0.3960  0.1408
  132OSM    O1414191   2.680   3.857   6.276 -0.3492  0.3669 -0.2082
  132OSM    O1114192   2.743   3.654   6.403 -0.1740 -0.1768 -0.5297
  132OSM    O1214193   2.554   3.634   6.251 -0.0695  0.3063 -0.3608
  132OSM    C1S14194   2.701   3.702   6.533 -0.3097 -0.1002  0.0072
  132OSM    H1S14195   2.607   3.651   6.564 -1.9502  2.5370 -0.3161
  132OSM    H1T14196   2.673   3.809   6.527  1.9796  0.5658  0.2910
  132OSM     NF14197   2.761   3.767   6.761 -0.5647 -0.0490 -0.3164
  132OSM    HNF14198   2.803   3.853   6.789  1.1302 -0.7790 -0.4662
  132OSM    C2S14199   2.810   3.698   6.640 -0.2219  0.0818 -1.0789
  132OSM    H2S14200   2.818   3.590   6.664  0.2297  0.2027 -0.6740
  132OSM    C3S14201   2.944   3.755   6.583 -0.2751  0.5251  0.4927
  132OSM    H3S14202   2.934   3.865   6.571  0.5310  0.5069 -0.4008
  132OSM     O314203   2.999   3.706   6.461 -0.4213  0.5561  0.3602
  132OSM    HO314204   2.929   3.661   6.413  0.7323 -1.3269  0.3188
  132OSM    C4S14205   3.046   3.744   6.693  0.4187 -0.0264  0.7322
  132OSM    H4S14206   3.055   3.839   6.747  0.4514 -0.5198  1.6187
  132OSM    C5S14207   3.113   3.638   6.740 -0.3031 -0.3120  0.2824
  132OSM    H5S14208   3.088   3.541   6.695 -1.1183 -0.3050  0.7167
  132OSM    C6S14209   3.213   3.647   6.851 -0.0271  0.7169  0.3636
  132OSM    H6S14210   3.298   3.703   6.807  0.4879 -1.2831 -1.3248
  132OSM    H6T14211   3.253   3.547   6.875 -0.9154  0.8391  2.6044
  132OSM    C7S14212   3.175   3.703   6.986 -0.5321 -0.2653 -0.4607
  132OSM    H7S14213   3.073   3.668   7.013  0.2910 -0.9163  2.0650
  132OSM    H7T14214   3.172   3.814   6.975 -3.7819 -0.1535  0.6094
  132OSM    C8S14215   3.261   3.655   7.107 -0.4510  0.4417  0.4188
  132OSM    H8S14216   3.367   3.672   7.078 -0.0225 -0.7482  1.2031
  132OSM    H8T14217   3.248   3.549   7.136 -0.7943 -0.0937 -1.5407
  132OSM    C9S14218   3.231   3.735   7.234 -0.2346  0.3416  0.5718
  132OSM    H9S14219   3.121   3.724   7.245 -0.7304  2.7775 -1.1689
  132OSM    H9T14220   3.236   3.844   7.214 -2.0004  0.3849  0.2248
  132OSM   C10S14221   3.308   3.684   7.366 -0.9367  0.2446  0.6225
  132OSM   H10S14222   3.413   3.718   7.358 -1.3984  1.9083  1.2038
  132OSM   H10T14223   3.299   3.575   7.347 -2.2021  0.2337  1.1849
  132OSM   C11S14224   3.248   3.730   7.491  1.0304 -0.2339  0.0763
  132OSM   H11S14225   3.146   3.687   7.504  0.6799 -0.0300 -1.7081
  132OSM   H11T14226   3.234   3.841   7.484 -1.3235 -0.3546  1.5918
  132OSM   C12S14227   3.328   3.706   7.615  0.2889 -0.3212  0.0221
  132OSM   H12S14228   3.429   3.747   7.597 -0.1826  0.4537 -0.9724
  132OSM   H12T14229   3.328   3.598   7.641  0.1590  0.0088  1.5042
  132OSM   C13S14230   3.268   3.768   7.744  0.5532 -0.5018 -0.5348
  132OSM   H13S14231   3.159   3.753   7.761  0.0459  3.3527  0.6690
  132OSM   H13T14232   3.249   3.875   7.722 -1.8889 -0.9788 -1.0793
  132OSM   C14S14233   3.349   3.738   7.881  0.2904  0.0938  0.3730
  132OSM   H14S14234   3.457   3.759   7.869  0.6371 -1.0948  1.2747
  132OSM   H14T14235   3.368   3.629   7.894 -0.0944 -0.4477 -2.7007
  132OSM   C15S14236   3.294   3.815   8.004  0.5898  0.8467 -0.3746
  132OSM   H15S14237   3.191   3.777   8.020  0.7954  0.1538 -0.6554
  132OSM   H15T14238   3.292   3.924   7.980  0.4165  0.6061 -1.5037
  132OSM   C16S14239   3.386   3.779   8.121  0.1500 -0.6392  0.8475
  132OSM   H16S14240   3.481   3.832   8.099 -0.7073  1.1752  1.3700
  132OSM   H16T14241   3.401   3.669   8.119 -0.9434 -0.7997  0.4716
  132OSM   C17S14242   3.324   3.819   8.257 -0.1146  0.3559 -0.0918
  132OSM   H17S14243   3.257   3.737   8.290  0.1274  0.6842  1.2792
  132OSM   H17T14244   3.258   3.908   8.250  0.2157  0.4966 -1.8534
  132OSM   C18S14245   3.431   3.833   8.370 -0.4084  0.0692 -0.4915
  132OSM   H18S14246   3.471   3.731   8.384 -0.9629  0.2047  2.8969
  132OSM   H18T14247   3.391   3.866   8.468  1.6484 -2.1644  1.2109
  132OSM   H18U14248   3.514   3.901   8.340 -0.6487 -1.1720 -4.7449
  132OSM    C1F14249   2.658   3.725   6.836 -0.0607 -0.6437 -0.5069
  132OSM     OF14250   2.577   3.638   6.804 -0.3040 -0.2297 -0.0003
  132OSM    C2F14251   2.649   3.798   6.969 -0.3540  0.4984  0.2557
  132OSM    H2F14252   2.617   3.903   6.955  0.0178  0.4217 -1.4608
  132OSM    H2G14253   2.755   3.794   7.003 -0.2802 -0.7114 -0.0637
  132OSM    C3F14254   2.557   3.734   7.073  0.7140  0.2614  0.3030
  132OSM    H3F14255   2.584   3.627   7.086  0.3353  0.1283  0.0341
  132OSM    H3G14256   2.452   3.728   7.036  0.7827  0.6612  0.0366
  132OSM    C4F14257   2.560   3.789   7.218 -0.2187 -0.3561  0.4008
  132OSM    H4F14258   2.669   3.795   7.238 -0.2044  0.4271  0.1504
  132OSM    H4G14259   2.510   3.708   7.275 -1.8094  1.6513  2.0196
  132OSM    C5F14260   2.483   3.927   7.230 -0.3133  0.5933  0.4518
  132OSM    H5F14261   2.377   3.915   7.200  0.3332 -1.4400 -1.2511
  132OSM    H5G14262   2.528   3.985   7.146 -1.8958 -1.1059 -1.6918
  132OSM    C6F14263   2.511   3.992   7.368 -0.2082 -0.9424 -0.1982
  132OSM    H6F14264   2.485   4.100   7.375  0.9291 -0.6916  0.4544
  132OSM    H6G14265   2.621   3.990   7.387 -0.1332 -1.2871 -0.6540
  132OSM    C7F14266   2.439   3.928   7.495  0.5370 -0.6923  0.4626
  132OSM    H7F14267   2.445   3.819   7.475 -0.5868 -1.3038  3.0275
  132OSM    H7G14268   2.330   3.948   7.486  0.6333 -0.5147 -0.3522
  132OSM    C8F14269   2.502   3.962   7.632  0.6563  0.1085  0.4735
  132OSM    H8F14270   2.440   3.902   7.701 -2.1652  0.9150 -1.1831
  132OSM    H8G14271   2.491   4.070   7.655 -2.1661  0.3129 -1.4294
  132OSM    C9F14272   2.647   3.914   7.636 -0.2042 -0.2279 -0.3693
  132OSM    H9F14273   2.701   3.914   7.540  1.0334 -0.5291  0.3066
  132OSM   C10F14274   2.712   3.879   7.744  0.1136  0.2247 -0.2585
  132OSM   H10F14275   2.815   3.842   7.736 -0.3603 -1.2819  0.2486
  132OSM   C11F14276   2.662   3.874   7.886  0.0963 -0.6016  0.7026
  132OSM   H11F14277   2.712   3.794   7.945  1.5877 -0.0205  0.2783
  132OSM   H11G14278   2.551   3.865   7.893  0.1787 -1.0227  1.6398
  132OSM   C12F14279   2.704   4.007   7.948  0.2682  0.3954  0.7436
  132OSM   H12F14280   2.642   4.092   7.912  1.4966  1.4431  1.0153
  132OSM   H12G14281   2.807   4.035   7.917 -0.3344  0.8911 -0.8765
  132OSM   C13F14282   2.704   4.006   8.100 -0.4581 -0.6611  0.3212
  132OSM   H13F14283   2.602   3.987   8.141  0.8352 -0.4915  4.0387
  132OSM   H13G14284   2.733   4.110   8.123 -1.0341  0.0137 -1.7563
  132OSM   C14F14285   2.806   3.916   8.169  0.0742 -0.1591  0.1183
  132OSM   H14F14286   2.900   3.930   8.112  0.7187 -0.7634  1.0214
  132OSM   H14G14287   2.777   3.809   8.162 -0.0995 -0.0326 -1.5901
  132OSM   C15F14288   2.822   3.958   8.317 -0.7364  0.0026  0.5757
  132OSM   H15F14289   2.732   3.933   8.377 -1.2586  2.4081  0.8896
  132OSM   H15G14290   2.846   4.067   8.313 -1.7098  0.1877 -1.3712
  132OSM   C16F14291   2.939   3.890   8.388 -0.1207  0.1731  0.2699
  132OSM   H16F14292   2.952   3.936   8.489  0.4734 -1.4665  0.9848
  132OSM   H16G14293   3.041   3.902   8.345  0.3504  2.4505  1.8275
  132OSM   C17F14294   2.922   3.738   8.408  0.4252 -0.5679  0.4135
  132OSM   H17F14295   2.937   3.691   8.308 -3.1082  2.2488 -1.7124
  132OSM   H17G14296   2.819   3.715   8.440  0.3573 -0.2636  0.4134
  132OSM   C18F14297   3.015   3.700   8.518  0.2401  0.4704  0.7632
  132OSM   H18F14298   3.029   3.592   8.541  0.1001  0.3237  0.1563
  132OSM   H18G14299   2.969   3.749   8.607 -0.6275 -0.7791  1.0196
  132OSM   H18H14300   3.118   3.739   8.507  1.7880 -3.4773 -0.2107
  133SAPE     N14301   0.454   6.758  10.920 -0.4155  0.4453 -0.6634
  133SAPE   HN114302   0.453   6.834  10.991 -0.4121  0.5667 -0.7943
  133SAPE   HN214303   0.365   6.709  10.942 -1.5486  2.4541 -0.5394
  133SAPE   HN314304   0.535   6.696  10.938 -0.3339  0.3267 -1.4314
  133SAPE   C1214305   0.453   6.794  10.777 -0.2270  1.0138  0.0115
  133SAPE  H12A14306   0.456   6.696  10.725  1.5088  1.7655 -1.4075
  133SAPE  H12B14307   0.541   6.859  10.755  0.0750  0.3057 -0.9693
  133SAPE   C1114308   0.321   6.862  10.735  0.0105  0.3787  0.0368
  133SAPE  H11A14309   0.326   6.889  10.627 -1.0529 -0.7995 -0.3260
  133SAPE  H11B14310   0.311   6.958  10.790 -2.1001 -0.2684  0.8759
  133SAPE     P14311   0.067   6.814  10.727 -0.7440 -0.4077 -0.0553
  133SAPE   O1314312  -0.028   6.717  10.785  0.0742 -0.2452 -0.3506
  133SAPE   O1414313   0.050   6.963  10.764 -0.2848  1.3452  0.1518
  133SAPE   O1214314   0.210   6.770  10.764 -0.1229  0.3697  0.0700
  133SAPE   O1114315   0.073   6.802  10.569 -0.0557 -0.0109 -1.1908
  133SAPE    C114316   0.082   6.684  10.503  0.2273  0.5462  1.0159
  133SAPE    HA14317   0.114   6.594  10.561 -2.0999 -1.3392 -0.4065
  133SAPE    HB14318  -0.023   6.659  10.473 -0.0690  2.2572  0.5028
  133SAPE    C214319   0.166   6.704  10.371  0.3407  0.2259  0.0510
  133SAPE    HS14320   0.264   6.741  10.409  0.8205 -0.6434 -0.3191
  133SAPE   O2114321   0.108   6.810  10.283  0.8211  0.1166 -0.1172
  133SAPE   C2114322   0.192   6.886  10.216 -0.0121 -0.8836  0.2681
  133SAPE   O2214323   0.311   6.882  10.219  0.0488 -0.5919  0.0981
  133SAPE   C2214324   0.120   6.979  10.121  0.4335  0.5357 -0.2920
  133SAPE   H2R14325   0.012   6.974  10.144  1.0312  1.5741  3.3781
  133SAPE   H2S14326   0.152   7.082  10.145  0.0866  0.5785 -0.0155
  133SAPE    C314327   0.201   6.571  10.301 -0.4681  0.0377  0.3742
  133SAPE    HX14328   0.102   6.527  10.281 -0.5241  0.4947 -0.3928
  133SAPE    HY14329   0.248   6.504  10.377  1.9873  0.9218 -0.2571
  133SAPE   O3114330   0.282   6.585  10.179  0.1765 -0.5477 -0.4221
  133SAPE   C3114331   0.407   6.596  10.209  0.1724  0.1263 -0.0597
  133SAPE   O3214332   0.454   6.573  10.320  0.1126 -0.9616  0.4910
  133SAPE   C3214333   0.491   6.631  10.092 -0.5157  0.6815 -0.1692
  133SAPE   H2X14334   0.540   6.534  10.069  0.3912  1.5370 -2.0602
  133SAPE   H2Y14335   0.565   6.706  10.125 -0.1294 -0.5965  2.0487
  133SAPE   C2314336   0.155   6.950   9.975  0.0972  0.1890  0.0649
  133SAPE   H3R14337   0.130   6.846   9.947  0.3722 -0.0017  0.5036
  133SAPE   H3S14338   0.266   6.953   9.964  0.2637 -1.4997  0.8243
  133SAPE   C2414339   0.110   7.051   9.875 -0.0435 -0.2599 -0.0716
  133SAPE   H4R14340   0.170   7.029   9.784  0.2002 -0.3851  0.1188
  133SAPE   H4S14341   0.152   7.150   9.904  0.0572  0.0152 -1.0973
  133SAPE   C2514342  -0.037   7.067   9.860 -0.6491  0.7800 -0.0821
  133SAPE   H5R14343  -0.088   7.070   9.958 -1.0489  1.0044 -0.2929
  133SAPE   C2614344  -0.110   7.065   9.744  0.2004 -0.3113  0.4048
  133SAPE   H6R14345  -0.219   7.077   9.745  0.1109 -0.4970 -1.8155
  133SAPE   C2714346  -0.046   7.036   9.610 -1.0238  0.1713 -0.3458
  133SAPE   H7R14347  -0.066   6.929   9.587 -2.5181  0.6074 -1.2807
  133SAPE   H7S14348   0.064   7.039   9.624 -1.2042 -0.9933  1.6302
  133SAPE   C2814349  -0.096   7.130   9.494 -0.1222 -0.3889 -0.8148
  133SAPE   H8R14350  -0.159   7.217   9.519 -0.3399 -0.9195  0.5822
  133SAPE   C2914351  -0.065   7.116   9.366 -0.7533  0.5346 -0.0092
  133SAPE   H9R14352  -0.124   7.175   9.294 -1.9024 -1.1433 -0.4971
  133SAPE  C21014353   0.017   6.997   9.316 -0.7254  0.6292  0.2279
  133SAPE  H10R14354   0.066   6.930   9.389 -2.8720 -2.1489 -0.6883
  133SAPE  H10S14355   0.095   7.053   9.260 -0.4797  0.8894  0.8212
  133SAPE  C21114356  -0.067   6.903   9.228  0.3626  0.0355 -0.9292
  133SAPE  H11R14357  -0.143   6.845   9.281  1.4215 -1.2196 -0.7481
  133SAPE  C21214358  -0.061   6.897   9.091  0.5093 -0.9016 -0.7781
  133SAPE  H12R14359  -0.128   6.827   9.040  1.2200 -3.3094  1.3647
  133SAPE  C21314360   0.031   6.970   9.003 -0.1722  0.1334 -0.1866
  133SAPE  H13R14361   0.076   6.899   8.931 -0.3811 -1.1161  0.8760
  133SAPE  H13S14362   0.122   7.002   9.059  1.4399 -0.0283 -2.5431
  133SAPE  C21414363  -0.037   7.087   8.933  0.3018 -0.9785 -0.6769
  133SAPE  H14R14364  -0.101   7.151   8.995  4.1953  1.9711  0.7367
  133SAPE  C21514365  -0.023   7.114   8.801  0.7429 -0.8119  0.7976
  133SAPE  H15R14366  -0.086   7.196   8.766 -2.1899 -2.1964  2.4745
  133SAPE  C21614367   0.060   7.046   8.693 -0.3119  0.2374 -0.1847
  133SAPE  H16R14368   0.129   6.982   8.752 -0.5081  1.4050  1.3908
  133SAPE  H16S14369   0.121   7.122   8.640 -0.9035 -0.2271 -1.5527
  133SAPE  C21714370  -0.028   6.971   8.596 -0.0404 -0.7153 -0.1830
  133SAPE  H17R14371  -0.088   6.892   8.645  0.6019 -0.2073  1.5005
  133SAPE  H17S14372   0.033   6.926   8.515 -1.4590 -0.8496 -1.2120
  133SAPE  C21814373  -0.129   7.060   8.526  0.2026 -0.2581  0.0916
  133SAPE  H18R14374  -0.194   7.093   8.611  0.0206 -1.0226  0.2499
  133SAPE  H18S14375  -0.189   6.997   8.458 -1.3485  0.7815  0.4292
  133SAPE  C21914376  -0.077   7.180   8.448 -0.3333 -0.2335 -0.5263
  133SAPE  H19R14377  -0.007   7.137   8.372 -0.7793 -1.1886 -0.4193
  133SAPE  H19S14378  -0.023   7.260   8.502 -2.9777  0.0328  1.9627
  133SAPE  C22014379  -0.189   7.243   8.365 -1.2360  0.2946  0.1822
  133SAPE  H20R14380  -0.281   7.261   8.426 -1.2019 -0.5288  0.4972
  133SAPE  H20S14381  -0.233   7.179   8.285 -0.9811  2.8064 -2.1028
  133SAPE  H20T14382  -0.147   7.333   8.317 -1.5342  0.5831  0.4632
  133SAPE   C3314383   0.416   6.684   9.968  0.3054 -0.1520  0.1046
  133SAPE   H3X14384   0.391   6.792   9.975 -2.9918 -0.7573 -0.5609
  133SAPE   H3Y14385   0.320   6.629   9.960  0.0571 -0.2536  2.7080
  133SAPE   C3414386   0.505   6.666   9.847 -0.2843  0.2799  0.1479
  133SAPE   H4X14387   0.605   6.693   9.888  0.2306  0.4752 -1.1940
  133SAPE   H4Y14388   0.476   6.731   9.762  0.4385  0.1307 -0.2292
  133SAPE   C3514389   0.516   6.518   9.789  0.2278  0.6752 -0.0905
  133SAPE   H5X14390   0.417   6.476   9.762  0.9436  0.0869 -1.9739
  133SAPE   H5Y14391   0.565   6.463   9.872 -1.4758 -0.8278 -0.0145
  133SAPE   C3614392   0.607   6.488   9.669  0.0980 -0.0575 -0.5238
  133SAPE   H6X14393   0.624   6.379   9.668  0.7568 -0.0255  1.8076
  133SAPE   H6Y14394   0.700   6.544   9.693 -0.1484  0.4623 -0.7540
  133SAPE   C3714395   0.533   6.531   9.534  0.0174  0.1409 -0.3855
  133SAPE   H7X14396   0.489   6.626   9.569  1.7376 -0.0585  2.6954
  133SAPE   H7Y14397   0.459   6.451   9.511  1.0572 -1.3962  1.2863
  133SAPE   C3814398   0.628   6.548   9.416  0.3604  0.5842 -0.2473
  133SAPE   H8X14399   0.702   6.631   9.426  3.6634 -2.0564 -0.9990
  133SAPE   H8Y14400   0.563   6.575   9.330 -0.0160 -0.2382 -0.2248
  133SAPE   C3914401   0.696   6.417   9.372  0.5734 -0.2832 -0.2228
  133SAPE   H9X14402   0.628   6.329   9.382  0.1906 -0.2573 -2.2902
  133SAPE   H9Y14403   0.791   6.397   9.427  0.1977  0.4207  0.7137
  133SAPE  C31014404   0.723   6.424   9.221 -0.9456 -0.3332  0.7205
  133SAPE  H10X14405   0.624   6.440   9.174  0.0650  0.6693 -1.2163
  133SAPE  H10Y14406   0.774   6.340   9.170 -1.0966  0.3245 -0.5590
  133SAPE  C31114407   0.791   6.547   9.177  0.4117  0.0336  0.2835
  133SAPE  H11X14408   0.897   6.559   9.209  0.6077 -1.2844  0.1866
  133SAPE  H11Y14409   0.740   6.641   9.206 -1.1463 -0.9015  0.6791
  133SAPE  C31214410   0.808   6.557   9.021  0.4217  0.0001  0.4174
  133SAPE  H12X14411   0.705   6.547   8.981  0.5253  0.7706 -0.0629
  133SAPE  H12Y14412   0.855   6.473   8.967 -0.8277 -0.1705 -0.4501
  133SAPE  C31314413   0.871   6.694   8.986 -0.2591  0.1183  0.1007
  133SAPE  H13X14414   0.972   6.693   9.032  0.0330  0.2648 -0.5272
  133SAPE  H13Y14415   0.810   6.776   9.031 -3.0207 -2.4325  1.3639
  133SAPE  C31414416   0.883   6.728   8.844  0.0401  0.8169  0.7088
  133SAPE  H14X14417   0.905   6.835   8.823 -1.4195  0.8246 -1.0773
  133SAPE  H14Y14418   0.785   6.709   8.795  1.0839  0.1468 -1.2236
  133SAPE  C31514419   0.994   6.639   8.776 -0.4204 -0.0542 -0.1515
  133SAPE  H15X14420   0.976   6.530   8.785 -0.6567 -0.0472 -0.5036
  133SAPE  H15Y14421   1.086   6.651   8.835 -1.1496  0.2693  0.9488
  133SAPE  C31614422   1.021   6.685   8.631  0.0919  0.0234  0.0990
  133SAPE  H16X14423   1.013   6.796   8.621 -1.2464 -0.1317 -0.7930
  133SAPE  H16Y14424   0.957   6.646   8.549 -1.2056 -0.8446  1.4752
  133SAPE  C31714425   1.164   6.640   8.592 -0.1402 -0.1045  0.2390
  133SAPE  H17X14426   1.240   6.695   8.652  0.6983 -2.2366  1.2443
  133SAPE  H17Y14427   1.177   6.670   8.485 -1.2498  0.3304  0.2117
  133SAPE  C31814428   1.194   6.489   8.604 -0.0480  0.0060  0.3002
  133SAPE  H18X14429   1.113   6.431   8.555  0.8046  1.3895 -3.0337
  133SAPE  H18Y14430   1.192   6.474   8.714 -1.6307 -1.4713  0.1013
  133SAPE  H18Z14431   1.291   6.471   8.552 -0.8424  1.6008 -1.8790
  134SAPE     N14432   4.405   6.391  10.539 -0.6041  0.2372 -0.3483
  134SAPE   HN114433   4.411   6.435  10.633 -2.3312 -0.5949  0.1822
  134SAPE   HN214434   4.337   6.316  10.565  0.4188  0.4302  3.5112
  134SAPE   HN314435   4.496   6.349  10.511 -1.3365 -1.0341 -0.8918
  134SAPE   C1214436   4.370   6.483  10.425  0.7255 -0.3077  0.4581
  134SAPE  H12A14437   4.366   6.429  10.328 -2.6558 -0.3272  0.4783
  134SAPE  H12B14438   4.452   6.557  10.413  0.2950 -0.0228 -0.8417
  134SAPE   C1114439   4.237   6.553  10.452  0.5162 -0.7162 -1.0437
  134SAPE  H11A14440   4.157   6.485  10.487  1.2423 -0.2570  1.7571
  134SAPE  H11B14441   4.201   6.606  10.361 -1.5304  2.7035  1.5107
  134SAPE     P14442   4.162   6.753  10.618  0.4021 -0.3284  0.5515
  134SAPE   O1314443   4.030   6.693  10.641  0.0579  0.3973  0.1293
  134SAPE   O1414444   4.227   6.808  10.737 -0.1065 -0.6150 -0.3686
  134SAPE   O1214445   4.258   6.649  10.553 -0.2116  0.4899  0.0944
  134SAPE   O1114446   4.153   6.865  10.509  0.0209 -0.5333 -0.3892
  134SAPE    C114447   4.242   6.888  10.407  0.3465 -0.3308 -0.0188
  134SAPE    HA14448   4.343   6.849  10.434  0.0732 -0.5772  0.6716
  134SAPE    HB14449   4.201   6.834  10.320 -1.6175  1.0699 -0.0169
  134SAPE    C214450   4.263   7.041  10.369  0.1050  0.6147  0.4822
  134SAPE    HS14451   4.292   7.098  10.460  0.9450  3.4320 -1.4338
  134SAPE   O2114452   4.143   7.091  10.324  0.2623 -0.3895  0.2024
  134SAPE   C2114453   4.122   7.220  10.330 -0.2165 -0.2880 -0.1258
  134SAPE   O2214454   4.201   7.303  10.373 -0.5642 -0.4942 -0.2634
  134SAPE   C2214455   3.984   7.246  10.266  0.0950  0.2821 -0.3181
  134SAPE   H2R14456   3.926   7.153  10.250 -2.1535  1.5710 -0.1046
  134SAPE   H2S14457   3.931   7.317  10.333  0.3296  0.0670  0.0940
  134SAPE    C314458   4.370   7.064  10.266 -0.1879  0.5824  0.2000
  134SAPE    HX14459   4.465   7.041  10.319 -1.1882 -1.7470  1.1444
  134SAPE    HY14460   4.371   7.172  10.243 -2.5235  0.2210 -1.9973
  134SAPE   O3114461   4.369   6.982  10.149 -0.2108  0.6683  0.2064
  134SAPE   C3114462   4.450   7.020  10.059  0.0165 -0.1747  0.0298
  134SAPE   O3214463   4.517   7.125  10.059  1.3151  0.4005  0.3055
  134SAPE   C3214464   4.459   6.922   9.950  0.6892 -0.4896 -0.1155
  134SAPE   H2X14465   4.365   6.919   9.892 -0.2278  1.2067  1.2023
  134SAPE   H2Y14466   4.465   6.815   9.981  2.5564 -0.0110  1.4583
  134SAPE   C2314467   4.004   7.310  10.128  0.5567 -0.1285  1.0850
  134SAPE   H3R14468   4.042   7.414  10.130  0.2449  0.2197 -2.7014
  134SAPE   H3S14469   3.902   7.325  10.087  1.0177  4.1082  1.0006
  134SAPE   C2414470   4.089   7.225  10.035  0.0858 -0.2707 -0.3487
  134SAPE   H4R14471   4.191   7.229  10.077 -0.6855  0.2774  1.5718
  134SAPE   H4S14472   4.099   7.274   9.935 -1.4037 -0.1584 -0.4734
  134SAPE   C2514473   4.053   7.073  10.023  0.2226  0.0984 -0.5990
  134SAPE   H5R14474   4.046   7.024  10.121 -1.2215  0.0615 -0.7005
  134SAPE   C2614475   4.043   7.010   9.907  0.1522  0.0702  0.1767
  134SAPE   H6R14476   4.003   6.909   9.919 -1.1989  0.4662 -0.7500
  134SAPE   C2714477   4.040   7.070   9.768 -0.2547 -0.2337  0.1718
  134SAPE   H7R14478   4.022   7.180   9.767 -0.2368 -0.1249  3.3417
  134SAPE   H7S14479   3.951   7.027   9.717  0.8492 -0.8218 -1.3355
  134SAPE   C2814480   4.165   7.045   9.682  0.8410  0.4096  0.2273
  134SAPE   H8R14481   4.248   6.994   9.733 -1.4448 -1.1193  2.6832
  134SAPE   C2914482   4.168   7.065   9.544  0.2534 -0.1182 -0.6934
  134SAPE   H9R14483   4.264   7.047   9.492 -0.4166  1.7728 -2.7461
  134SAPE  C21014484   4.053   7.107   9.455  0.6198 -0.0389  0.5629
  134SAPE  H10R14485   4.073   7.184   9.378 -3.8952  2.9213  1.9552
  134SAPE  H10S14486   3.962   7.142   9.507 -2.1221 -2.4783 -2.1514
  134SAPE  C21114487   4.012   6.985   9.372 -0.0411 -0.8182  0.2949
  134SAPE  H11R14488   3.968   6.904   9.432  0.4804 -0.9155  0.5545
  134SAPE  C21214489   4.028   6.962   9.241 -0.3570  0.5591 -0.0847
  134SAPE  H12R14490   4.001   6.864   9.200  0.9940  0.3281 -0.4575
  134SAPE  C21314491   4.090   7.049   9.135  0.4288  0.3856  0.2106
  134SAPE  H13R14492   4.115   7.152   9.169  1.0629  0.4270 -0.3671
  134SAPE  H13S14493   4.009   7.073   9.063 -0.1933 -0.3171  0.6686
  134SAPE  C21414494   4.204   6.978   9.069  0.3749 -0.1602 -0.5357
  134SAPE  H14R14495   4.180   6.915   8.983  0.4025  1.5711 -1.8779
  134SAPE  C21514496   4.332   7.000   9.096  0.3596 -0.2061 -0.2622
  134SAPE  H15R14497   4.412   6.947   9.043  1.1667  2.7391 -2.2722
  134SAPE  C21614498   4.389   7.090   9.198  0.0858 -0.6730  0.3549
  134SAPE  H16R14499   4.457   7.029   9.261 -0.2043 -0.4609  0.8861
  134SAPE  H16S14500   4.302   7.113   9.263 -0.6671 -0.0102 -0.8448
  134SAPE  C21714501   4.459   7.221   9.154  0.6288  0.1388  0.1643
  134SAPE  H17R14502   4.534   7.199   9.075  0.1206  2.0059 -0.9031
  134SAPE  H17S14503   4.508   7.263   9.244  0.3669  2.5019 -0.7233
  134SAPE  C21814504   4.359   7.319   9.102 -0.3528 -0.1931  0.8033
  134SAPE  H18R14505   4.265   7.317   9.161 -0.9197 -0.0646 -0.0856
  134SAPE  H18S14506   4.340   7.298   8.995  2.6456 -2.3313  0.5677
  134SAPE  C21914507   4.416   7.474   9.099  0.5003  0.6216  0.0836
  134SAPE  H19R14508   4.355   7.523   9.020  3.1280 -1.9956 -3.8868
  134SAPE  H19S14509   4.512   7.480   9.044  0.7759 -0.4788  0.4378
  134SAPE  C22014510   4.410   7.546   9.233  0.7831  0.4092 -0.2350
  134SAPE  H20R14511   4.483   7.514   9.310  0.2712 -0.0315  0.0727
  134SAPE  H20S14512   4.306   7.550   9.271  1.6758  0.8921  2.3598
  134SAPE  H20T14513   4.446   7.651   9.222  0.0127  0.7018 -0.0749
  134SAPE   C3314514   4.560   6.956   9.847  0.2716 -0.3704  0.1188
  134SAPE   H3X14515   4.665   6.947   9.884  0.4651  0.3335 -0.2427
  134SAPE   H3Y14516   4.547   7.061   9.815  2.7816  0.7377  2.3096
  134SAPE   C3414517   4.544   6.869   9.715 -0.0322  0.1470  0.6605
  134SAPE   H4X14518   4.439   6.873   9.678 -0.5464 -1.4550  1.7797
  134SAPE   H4Y14519   4.583   6.766   9.732  0.0206  0.0618  0.0243
  134SAPE   C3514520   4.630   6.916   9.601  0.7397  0.3436 -0.0412
  134SAPE   H5X14521   4.733   6.951   9.624  0.6727  0.2166  0.4550
  134SAPE   H5Y14522   4.579   7.002   9.551 -1.9111 -0.9253  0.3058
  134SAPE   C3614523   4.648   6.812   9.495 -0.2168  0.7592  0.3239
  134SAPE   H6X14524   4.557   6.753   9.471  0.6776 -0.3146 -0.5535
  134SAPE   H6Y14525   4.717   6.731   9.528 -1.5505  0.9035  3.9570
  134SAPE   C3714526   4.693   6.876   9.363  0.0224  0.4568  0.2555
  134SAPE   H7X14527   4.794   6.920   9.381  0.1443 -0.3890  1.8405
  134SAPE   H7Y14528   4.615   6.947   9.328 -0.7703 -0.6672 -0.3132
  134SAPE   C3814529   4.704   6.775   9.246  0.3501  0.5567 -0.3714
  134SAPE   H8X14530   4.604   6.728   9.234  0.7605 -1.1605  2.1268
  134SAPE   H8Y14531   4.786   6.703   9.263 -1.0243 -1.1880 -0.8382
  134SAPE   C3914532   4.750   6.855   9.122  0.1437  0.3524  0.1890
  134SAPE   H9X14533   4.842   6.911   9.149 -0.2319  0.8985  0.3452
  134SAPE   H9Y14534   4.669   6.930   9.105 -1.7671 -0.6722  3.7731
  134SAPE  C31014535   4.769   6.775   8.994  0.2346  0.1245  0.3829
  134SAPE  H10X14536   4.670   6.737   8.961  0.1315 -0.8692  1.7259
  134SAPE  H10Y14537   4.826   6.680   9.002  0.3424 -0.1397 -2.5766
  134SAPE  C31114538   4.842   6.845   8.878 -0.3617 -0.1884 -0.2400
  134SAPE  H11X14539   4.937   6.888   8.915  0.5577 -1.6616 -0.8072
  134SAPE  H11Y14540   4.772   6.921   8.837 -0.4337  0.0432  0.3047
  134SAPE  C31214541   4.877   6.754   8.766 -0.2034  1.0564 -0.0583
  134SAPE  H12X14542   4.802   6.680   8.729  0.5426  0.4531 -0.4048
  134SAPE  H12Y14543   4.962   6.689   8.796 -1.3122  0.9489  3.3445
  134SAPE  C31314544   4.938   6.828   8.643  0.4795 -0.0044  0.1052
  134SAPE  H13X14545   5.003   6.912   8.675 -0.6102  1.1237 -0.5233
  134SAPE  H13Y14546   4.853   6.876   8.590  0.4463  0.1492  0.2971
  134SAPE  C31414547   5.000   6.738   8.544 -0.0294  0.1189 -0.0118
  134SAPE  H14X14548   4.918   6.672   8.509 -0.9216  1.5896 -0.7832
  134SAPE  H14Y14549   5.082   6.682   8.594  1.8721  3.2160  0.6496
  134SAPE  C31514550   5.065   6.813   8.430  0.5974  0.7018 -0.7191
  134SAPE  H15X14551   5.143   6.874   8.480  1.0835  0.5688 -1.2951
  134SAPE  H15Y14552   4.997   6.885   8.379 -0.0932 -0.3765 -1.3729
  134SAPE  C31614553   5.115   6.722   8.318  0.4599 -0.1616 -0.9970
  134SAPE  H16X14554   5.166   6.631   8.357  0.6485 -0.8779 -2.8217
  134SAPE  H16Y14555   5.185   6.776   8.252 -0.2064  3.2451  0.8449
  134SAPE  C31714556   5.005   6.689   8.217 -0.1640 -0.4197 -0.6778
  134SAPE  H17X14557   4.970   6.774   8.155 -1.2365  0.9542  1.6750
  134SAPE  H17Y14558   4.912   6.651   8.264 -0.4297 -0.9826 -1.6424
  134SAPE  C31814559   5.049   6.574   8.126  0.2590 -0.0157  0.5234
  134SAPE  H18X14560   5.064   6.475   8.175  2.0442 -0.5882 -1.0394
  134SAPE  H18Y14561   5.137   6.597   8.063  0.8904 -4.9252 -0.7851
  134SAPE  H18Z14562   4.969   6.550   8.054  0.3491 -0.9398  0.7110
  135SAPE     N14563   5.465   2.079  10.332 -0.3280 -1.3732  0.0685
  135SAPE   HN114564   5.383   2.066  10.394  0.1671 -1.5063  0.7070
  135SAPE   HN214565   5.508   2.173  10.336 -1.3040 -0.9706  3.4009
  135SAPE   HN314566   5.458   2.047  10.233 -0.4278 -0.3703 -0.2553
  135SAPE   C1214567   5.571   1.991  10.385  0.1880  0.7095  0.8269
  135SAPE  H12A14568   5.661   2.018  10.325  0.8818 -1.3901  0.8074
  135SAPE  H12B14569   5.544   1.885  10.366 -0.6575  1.1993 -0.8171
  135SAPE   C1114570   5.607   2.030  10.529  0.2330 -0.2540  0.4540
  135SAPE  H11A14571   5.681   1.961  10.576  0.6969  0.2930  0.5469
  135SAPE  H11B14572   5.520   2.020  10.597  1.2880 -1.5823  1.6722
  135SAPE     P14573   5.809   2.198  10.539 -0.2376 -0.2254  0.3271
  135SAPE   O1314574   5.828   2.330  10.597  0.0418 -0.1730 -0.3253
  135SAPE   O1414575   5.888   2.083  10.593  0.3692  0.1611 -0.4801
  135SAPE   O1214576   5.655   2.170  10.539 -0.1630  0.1054 -0.0899
  135SAPE   O1114577   5.840   2.213  10.387  0.2085 -0.0455  0.4850
  135SAPE    C114578   5.974   2.244  10.352  0.1318  0.4012  0.2228
  135SAPE    HA14579   6.018   2.338  10.391  3.1676 -1.3210  1.3339
  135SAPE    HB14580   6.039   2.160  10.385 -2.6375 -1.7087  0.6932
  135SAPE    C214581   5.987   2.261  10.195 -0.5011  0.2078  0.3107
  135SAPE    HS14582   6.094   2.247  10.170 -1.2268 -0.6605 -2.7270
  135SAPE   O2114583   5.938   2.392  10.151 -0.2963  0.0230  0.5102
  135SAPE   C2114584   6.020   2.488  10.142 -0.6321 -0.2770  0.3379
  135SAPE   O2214585   6.134   2.492  10.183 -0.3830  0.2077  0.2946
  135SAPE   C2214586   5.946   2.602  10.065 -0.3272  0.0993 -0.8503
  135SAPE   H2R14587   5.844   2.563  10.042 -0.0313 -0.7858 -0.6812
  135SAPE   H2S14588   5.937   2.685  10.138  2.4456 -0.9712  0.8612
  135SAPE    C314589   5.902   2.149  10.121 -0.1471 -0.6733  0.2684
  135SAPE    HX14590   5.797   2.175  10.146  0.2182  0.6326  0.5313
  135SAPE    HY14591   5.925   2.048  10.160 -0.0911 -0.6864  0.2003
  135SAPE   O3114592   5.921   2.157   9.978  0.0918 -0.3487 -0.2386
  135SAPE   C3114593   5.872   2.057   9.908  0.1244  0.0668  0.8230
  135SAPE   O3214594   5.798   1.967   9.945  0.0557  0.5148 -0.6913
  135SAPE   C3214595   5.910   2.078   9.757 -0.0938 -0.1189  0.5122
  135SAPE   H2X14596   6.013   2.119   9.753  0.8433 -2.1810  1.8899
  135SAPE   H2Y14597   5.838   2.153   9.718 -0.0646 -0.3059  0.1007
  135SAPE   C2314598   6.014   2.646   9.931 -0.4964  0.2630 -0.7744
  135SAPE   H3R14599   6.041   2.559   9.866 -1.5927  0.8418 -2.0570
  135SAPE   H3S14600   6.111   2.698   9.949  0.0568 -0.4867 -1.5026
  135SAPE   C2414601   5.922   2.746   9.850 -0.4541  0.1879 -0.0441
  135SAPE   H4R14602   5.838   2.682   9.816 -0.4495 -0.1739  0.6072
  135SAPE   H4S14603   5.979   2.782   9.762  1.1580 -1.6460  0.1728
  135SAPE   C2514604   5.881   2.866   9.936  0.4037  0.6731  0.7051
  135SAPE   H5R14605   5.950   2.909  10.010  2.0084  0.4367 -0.6048
  135SAPE   C2614606   5.759   2.924   9.936  0.0597  0.9673  0.1084
  135SAPE   H6R14607   5.726   2.998  10.010 -2.2986  0.2218 -0.0930
  135SAPE   C2714608   5.639   2.888   9.845 -0.0645  0.2842  0.0735
  135SAPE   H7R14609   5.643   2.778   9.829  4.5987  0.4479 -1.6076
  135SAPE   H7S14610   5.656   2.941   9.749  0.7234 -0.1979 -0.0591
  135SAPE   C2814611   5.510   2.928   9.911  1.0172  0.4483  0.1794
  135SAPE   H8R14612   5.490   2.892  10.013 -0.6674 -1.5742 -0.7910
  135SAPE   C2914613   5.403   3.003   9.861 -0.9002  0.1776  0.0420
  135SAPE   H9R14614   5.338   3.044   9.940  0.4458  1.3470  0.5869
  135SAPE  C21014615   5.395   3.054   9.725  0.8094  0.1437  0.4693
  135SAPE  H10R14616   5.287   3.051   9.699  0.4028 -0.8049  2.1041
  135SAPE  H10S14617   5.445   2.985   9.653 -0.8185 -1.3636  0.7007
  135SAPE  C21114618   5.458   3.184   9.710 -0.7783  0.4465  0.0231
  135SAPE  H11R14619   5.483   3.248   9.797  2.3842  0.8778 -1.0731
  135SAPE  C21214620   5.482   3.236   9.596  0.9394 -0.1070 -0.3846
  135SAPE  H12R14621   5.520   3.339   9.592  0.5495  0.1009  0.9993
  135SAPE  C21314622   5.435   3.185   9.464 -0.6126  0.3795  0.0726
  135SAPE  H13R14623   5.416   3.076   9.457 -0.2435  0.4419 -3.7947
  135SAPE  H13S14624   5.527   3.195   9.403 -0.0402 -1.9156  0.4989
  135SAPE  C21414625   5.317   3.258   9.398  0.0336  0.1617  0.2139
  135SAPE  H14R14626   5.216   3.241   9.439  0.9309  1.5443  3.2950
  135SAPE  C21514627   5.324   3.327   9.283  0.2167  0.2721  0.2564
  135SAPE  H15R14628   5.240   3.370   9.228  2.1389  0.8734 -2.3642
  135SAPE  C21614629   5.449   3.356   9.200 -0.6334  0.0301 -0.0776
  135SAPE  H16R14630   5.444   3.306   9.100 -0.8687  0.4240 -0.2640
  135SAPE  H16S14631   5.546   3.316   9.236 -0.6819 -0.8292 -0.8322
  135SAPE  C21714632   5.471   3.511   9.174  0.5748  0.0068  0.4338
  135SAPE  H17R14633   5.373   3.548   9.137  0.6554 -1.0095 -0.8724
  135SAPE  H17S14634   5.555   3.517   9.101  1.3669  3.4138  1.4189
  135SAPE  C21814635   5.495   3.590   9.299 -0.0299  0.3017 -0.2485
  135SAPE  H18R14636   5.404   3.595   9.363  0.0656  1.2451 -0.1828
  135SAPE  H18S14637   5.502   3.697   9.270 -2.1009  1.2125  2.2297
  135SAPE  C21914638   5.629   3.553   9.374  0.5640 -0.3625  0.5810
  135SAPE  H19R14639   5.716   3.565   9.305 -0.9144 -1.2109 -1.5655
  135SAPE  H19S14640   5.625   3.446   9.405 -0.4918 -0.3490  0.5447
  135SAPE  C22014641   5.645   3.636   9.501 -0.2917 -0.2722 -0.3252
  135SAPE  H20R14642   5.545   3.629   9.548  0.8551  0.2553  2.3579
  135SAPE  H20S14643   5.660   3.744   9.480  2.7460 -0.4605  0.5051
  135SAPE  H20T14644   5.719   3.602   9.575 -0.4380  0.2840  0.0846
  135SAPE   C3314645   5.912   1.942   9.679  0.2140  0.0192  0.1376
  135SAPE   H3X14646   5.820   1.880   9.680 -1.8127  2.7914 -1.8160
  135SAPE   H3Y14647   6.002   1.889   9.717  0.8290  1.4230  0.7116
  135SAPE   C3414648   5.932   1.977   9.529  0.5373 -0.2117  0.0180
  135SAPE   H4X14649   5.984   2.075   9.531 -0.7604  0.5934 -2.1278
  135SAPE   H4Y14650   5.835   2.003   9.480  0.7254  1.0117  0.2742
  135SAPE   C3514651   5.995   1.865   9.448 -0.5955  0.4038  0.4152
  135SAPE   H5X14652   5.951   1.764   9.466  0.2043  0.0970  0.7256
  135SAPE   H5Y14653   6.101   1.854   9.478 -0.4239  0.5378 -0.1392
  135SAPE   C3614654   5.980   1.890   9.301  0.1885 -0.6595  0.1962
  135SAPE   H6X14655   6.031   1.982   9.265  0.7184 -1.0007  0.0555
  135SAPE   H6Y14656   5.878   1.892   9.258  0.0397 -1.9499  0.4703
  135SAPE   C3714657   6.039   1.779   9.217  0.4665 -0.5331  0.5179
  135SAPE   H7X14658   6.001   1.683   9.257  1.5439 -0.6141  1.3956
  135SAPE   H7Y14659   6.150   1.771   9.220  0.5406 -0.2660 -0.7914
  135SAPE   C3814660   6.012   1.795   9.067  0.1264 -0.2027  0.3053
  135SAPE   H8X14661   5.906   1.806   9.036 -0.0744 -0.1761  0.9987
  135SAPE   H8Y14662   6.052   1.721   8.994  0.5189  1.1106 -0.8544
  135SAPE   C3914663   6.076   1.920   9.004 -0.4224  0.3712 -0.9130
  135SAPE   H9X14664   6.186   1.920   9.016 -0.4119  1.0636 -0.9916
  135SAPE   H9Y14665   6.046   2.018   9.047  2.5544  1.8262 -1.8896
  135SAPE  C31014666   6.062   1.929   8.855  0.1435 -0.3371  1.0246
  135SAPE  H10X14667   5.988   2.008   8.832  1.1368  1.1043  2.5437
  135SAPE  H10Y14668   6.026   1.832   8.816 -3.0790  1.1237  0.0081
  135SAPE  C31114669   6.189   1.960   8.772  0.1980 -0.4836  0.3387
  135SAPE  H11X14670   6.238   1.861   8.758 -0.5139 -0.9273  0.8760
  135SAPE  H11Y14671   6.260   2.028   8.822  2.4154 -0.6631 -2.2946
  135SAPE  C31214672   6.155   2.022   8.636 -0.4255 -0.7591 -0.2360
  135SAPE  H12X14673   6.113   2.121   8.664  0.2689 -0.7828  0.9362
  135SAPE  H12Y14674   6.077   1.962   8.585 -1.0380 -0.5227  0.4041
  135SAPE  C31314675   6.286   2.039   8.555  0.1237 -0.2744  0.3062
  135SAPE  H13X14676   6.330   1.939   8.537  0.6560 -0.3916  2.0594
  135SAPE  H13Y14677   6.352   2.103   8.619  0.5701 -1.5784  1.1801
  135SAPE  C31414678   6.264   2.119   8.427  0.0774 -0.6277 -0.3184
  135SAPE  H14X14679   6.358   2.173   8.407 -0.6063 -0.2468 -2.9486
  135SAPE  H14Y14680   6.194   2.201   8.454  0.5671 -0.2093 -0.3061
  135SAPE  C31514681   6.239   2.039   8.299 -0.7529 -0.1297 -0.0510
  135SAPE  H15X14682   6.149   1.975   8.297  0.5767 -2.0901 -1.0934
  135SAPE  H15Y14683   6.324   1.968   8.294 -0.6382  0.0041 -0.0225
  135SAPE  C31614684   6.257   2.130   8.179 -0.0098 -0.6016  0.1867
  135SAPE  H16X14685   6.340   2.204   8.187 -0.3147  0.0693 -2.0641
  135SAPE  H16Y14686   6.165   2.191   8.173  0.4157 -0.1137 -2.0565
  135SAPE  C31714687   6.282   2.045   8.050  0.3993 -0.2769 -0.7235
  135SAPE  H17X14688   6.245   2.100   7.960  1.1788 -0.6643 -1.2918
  135SAPE  H17Y14689   6.210   1.961   8.063 -0.1456  0.2318 -0.3575
  135SAPE  C31814690   6.429   2.011   8.027  0.1538  0.2761  0.4509
  135SAPE  H18X14691   6.483   1.945   8.098  1.1367 -1.2408 -1.6062
  135SAPE  H18Y14692   6.485   2.107   8.032 -0.5924  0.6710  1.3764
  135SAPE  H18Z14693   6.426   1.965   7.925 -1.0641  2.6934 -0.6799
  136SAPE     N14694   5.995   5.217  11.147 -0.1520  0.3041  0.4529
  136SAPE   HN114695   6.089   5.200  11.189 -0.3968  0.0187  0.8936
  136SAPE   HN214696   5.931   5.156  11.202 -0.9156 -0.1967 -0.9402
  136SAPE   HN314697   5.995   5.186  11.047 -0.5761 -1.7376  1.0404
  136SAPE   C1214698   5.975   5.374  11.171  0.0659  0.3950 -0.3010
  136SAPE  H12A14699   5.990   5.426  11.074 -1.3640 -0.0982 -0.8114
  136SAPE  H12B14700   6.056   5.404  11.240 -0.5316  1.5138 -0.0721
  136SAPE   C1114701   5.835   5.413  11.225 -0.7040 -0.0990  0.2576
  136SAPE  H11A14702   5.825   5.522  11.207  2.3538 -0.1509 -2.7940
  136SAPE  H11B14703   5.831   5.400  11.335  0.1615  2.0117  0.5911
  136SAPE     P14704   5.599   5.408  11.118 -0.1470 -0.4811 -0.1034
  136SAPE   O1314705   5.492   5.311  11.092 -0.4059 -0.5477 -0.9470
  136SAPE   O1414706   5.572   5.515  11.216 -0.5821 -0.4040 -0.2401
  136SAPE   O1214707   5.733   5.334  11.156 -0.1308 -0.1075  0.3913
  136SAPE   O1114708   5.649   5.474  10.975  0.0579  0.3041 -0.2164
  136SAPE    C114709   5.626   5.397  10.857 -0.3658 -0.4351 -0.5104
  136SAPE    HA14710   5.682   5.301  10.866 -0.1761 -0.2489  0.3409
  136SAPE    HB14711   5.517   5.384  10.845 -0.4602 -1.4701  1.1474
  136SAPE    C214712   5.685   5.463  10.733 -0.5875 -0.4530 -0.1152
  136SAPE    HS14713   5.791   5.484  10.758 -1.2332  1.0036  1.6608
  136SAPE   O2114714   5.603   5.584  10.706 -0.3515 -0.5459 -0.2131
  136SAPE   C2114715   5.660   5.679  10.622  0.3477 -0.2341 -0.2924
  136SAPE   O2214716   5.778   5.690  10.604  1.0257 -0.6696  0.2464
  136SAPE   C2214717   5.549   5.773  10.580 -0.3730  0.1699 -0.0499
  136SAPE   H2R14718   5.469   5.709  10.536 -2.4533  3.2033 -0.9848
  136SAPE   H2S14719   5.500   5.825  10.665 -0.2178  1.0747 -0.4982
  136SAPE    C314720   5.685   5.372  10.607 -0.2663  0.1315 -0.3311
  136SAPE    HX14721   5.578   5.359  10.580 -0.9643 -0.7131  2.4432
  136SAPE    HY14722   5.737   5.276  10.630 -0.1569 -0.2432 -2.0610
  136SAPE   O3114723   5.742   5.429  10.485  0.1778  0.4063  0.5251
  136SAPE   C3114724   5.872   5.411  10.467 -0.0765 -0.2434  0.1073
  136SAPE   O3214725   5.948   5.376  10.558  0.3679 -0.1818  0.4013
  136SAPE   C3214726   5.924   5.463  10.331 -1.1462  0.2089 -0.2066
  136SAPE   H2X14727   5.987   5.388  10.279  0.6008  0.4693  1.4302
  136SAPE   H2Y14728   5.998   5.544  10.348 -0.6137 -0.0955 -1.0340
  136SAPE   C2314729   5.595   5.877  10.471  0.5560  0.3963 -0.3125
  136SAPE   H3R14730   5.704   5.899  10.470  0.2946  1.7600 -1.2268
  136SAPE   H3S14731   5.539   5.972  10.484 -0.0998  0.0393 -0.4491
  136SAPE   C2414732   5.564   5.829  10.320  0.2013 -0.3422 -0.1000
  136SAPE   H4R14733   5.603   5.725  10.319  1.6201  0.1599  0.5279
  136SAPE   H4S14734   5.617   5.874  10.234  1.6772  1.3303  1.5940
  136SAPE   C2514735   5.411   5.831  10.298 -0.1437  0.5929  0.0392
  136SAPE   H5R14736   5.349   5.836  10.389  1.5369 -1.2419  1.3793
  136SAPE   C2614737   5.345   5.810  10.185 -0.8259  0.2230 -0.6182
  136SAPE   H6R14738   5.239   5.780  10.188 -1.4124  2.1529  1.8727
  136SAPE   C2714739   5.399   5.790  10.054  0.2525  0.4186 -0.2786
  136SAPE   H7R14740   5.326   5.738   9.988 -0.2019 -1.5926  1.6949
  136SAPE   H7S14741   5.476   5.710  10.052 -0.4212 -0.3130  1.4229
  136SAPE   C2814742   5.447   5.917   9.990  0.4280  0.2350 -1.0180
  136SAPE   H8R14743   5.473   5.994  10.065 -2.0193 -1.0698  1.3118
  136SAPE   C2914744   5.474   5.936   9.854  0.4786 -0.3572 -0.8737
  136SAPE   H9R14745   5.529   6.027   9.827 -1.4874  1.0331 -0.4610
  136SAPE  C21014746   5.442   5.822   9.755 -0.0726 -0.2322 -0.3052
  136SAPE  H10R14747   5.373   5.862   9.677 -1.6885 -0.2514  1.0672
  136SAPE  H10S14748   5.380   5.741   9.798 -0.7257  1.3243  1.8614
  136SAPE  C21114749   5.574   5.767   9.703  0.3468 -0.4106 -0.1364
  136SAPE  H11R14750   5.661   5.777   9.770  0.7862  0.0868 -0.7664
  136SAPE  C21214751   5.600   5.729   9.577  0.4661  0.5409  0.5086
  136SAPE  H12R14752   5.703   5.699   9.551  0.4493 -1.3742  2.3523
  136SAPE  C21314753   5.501   5.718   9.460 -0.5622  0.0998  0.3453
  136SAPE  H13R14754   5.398   5.727   9.500  0.0544  1.3334  1.7692
  136SAPE  H13S14755   5.501   5.617   9.414 -0.0288 -0.1535  0.8904
  136SAPE  C21414756   5.508   5.841   9.365  0.7562  0.6934 -0.3345
  136SAPE  H14R14757   5.462   5.934   9.401 -1.4489 -0.8971  1.2079
  136SAPE  C21514758   5.564   5.834   9.243  0.0893  0.0808  0.2911
  136SAPE  H15R14759   5.566   5.927   9.185  0.0308  0.1854  0.4549
  136SAPE  C21614760   5.632   5.719   9.175 -0.3543  0.3768  0.0788
  136SAPE  H16R14761   5.625   5.626   9.235 -0.6608 -0.2351 -0.8983
  136SAPE  H16S14762   5.740   5.741   9.157 -0.3011 -0.0699 -0.1647
  136SAPE  C21714763   5.583   5.657   9.045  0.3414  0.2848  0.0359
  136SAPE  H17R14764   5.676   5.609   9.008 -0.4152  0.5772 -2.3923
  136SAPE  H17S14765   5.554   5.729   8.966  1.6609 -1.3544 -2.0397
  136SAPE  C21814766   5.465   5.566   9.065 -0.2951  1.0578  0.1213
  136SAPE  H18R14767   5.381   5.617   9.117 -1.1025  0.3035 -0.4043
  136SAPE  H18S14768   5.495   5.477   9.123 -0.4561  1.4644  0.8405
  136SAPE  C21914769   5.415   5.518   8.927  0.2173  0.1115  0.4694
  136SAPE  H19R14770   5.392   5.599   8.856  1.0374 -0.7617 -0.8470
  136SAPE  H19S14771   5.317   5.469   8.946  0.3018  0.1778  1.0980
  136SAPE  C22014772   5.504   5.420   8.860 -0.0515  0.7056  0.3658
  136SAPE  H20R14773   5.600   5.469   8.836  0.9248 -1.0586  0.5287
  136SAPE  H20S14774   5.469   5.387   8.760  0.6501 -0.2146  0.4146
  136SAPE  H20T14775   5.525   5.328   8.918  4.2528 -0.2790 -2.3066
  136SAPE   C3314776   5.818   5.521  10.235  0.1990 -0.1875  0.6345
  136SAPE   H3X14777   5.758   5.597  10.288 -0.0712  0.6004 -0.7541
  136SAPE   H3Y14778   5.755   5.434  10.205  0.9185 -0.1638 -1.0549
  136SAPE   C3414779   5.873   5.590  10.106  0.4105  0.4227 -0.1331
  136SAPE   H4X14780   5.963   5.644  10.143  1.5601 -1.2959 -0.3064
  136SAPE   H4Y14781   5.801   5.660  10.058 -0.9097 -0.9753 -0.2657
  136SAPE   C3514782   5.926   5.497   9.984 -0.5664 -0.4177 -1.2775
  136SAPE   H5X14783   5.840   5.437   9.946 -1.6473 -1.0275  1.8296
  136SAPE   H5Y14784   6.011   5.439  10.025  0.2802  1.4363 -0.3073
  136SAPE   C3614785   5.977   5.583   9.870 -0.8523  0.1755 -0.4528
  136SAPE   H6X14786   6.071   5.634   9.900 -1.5306  0.6461  0.9403
  136SAPE   H6Y14787   5.912   5.672   9.866 -3.2839 -1.5234 -0.9271
  136SAPE   C3714788   5.996   5.498   9.740 -0.1227 -0.2286  0.3938
  136SAPE   H7X14789   6.042   5.397   9.747  0.7597 -0.2426 -3.2626
  136SAPE   H7Y14790   6.070   5.552   9.676  2.1563 -1.5880  1.7314
  136SAPE   C3814791   5.859   5.470   9.667 -0.3452 -0.7630  0.2556
  136SAPE   H8X14792   5.821   5.573   9.650  3.3688  0.9616  1.2960
  136SAPE   H8Y14793   5.788   5.426   9.740 -1.0212  0.0328  0.1021
  136SAPE   C3914794   5.882   5.395   9.547  0.0441 -0.4730  0.2453
  136SAPE   H9X14795   5.796   5.334   9.511 -0.2867  2.1124 -4.0280
  136SAPE   H9Y14796   5.960   5.320   9.570 -1.1921 -1.5694  1.0124
  136SAPE  C31014797   5.943   5.480   9.438 -0.0646  0.2682 -0.2184
  136SAPE  H10X14798   6.026   5.544   9.473  2.8346 -1.9646 -2.5566
  136SAPE  H10Y14799   5.860   5.548   9.408  0.1261  0.2305 -0.8452
  136SAPE  C31114800   5.989   5.409   9.309 -0.0364 -0.1048 -0.7199
  136SAPE  H11X14801   5.926   5.324   9.277 -1.2651 -0.4478  2.2413
  136SAPE  H11Y14802   6.089   5.364   9.327 -0.1121  0.4820  1.5470
  136SAPE  C31214803   6.001   5.511   9.191 -0.2617 -0.3191 -0.4503
  136SAPE  H12X14804   6.086   5.581   9.207  0.4555 -0.4680 -3.1587
  136SAPE  H12Y14805   5.910   5.575   9.188 -0.6931 -0.9434 -2.8601
  136SAPE  C31314806   6.019   5.447   9.057 -0.7818 -0.6150  0.3740
  136SAPE  H13X14807   6.116   5.393   9.063  0.6592  1.8637  0.9853
  136SAPE  H13Y14808   6.034   5.535   8.991  1.4055 -0.6952  0.6750
  136SAPE  C31414809   5.905   5.351   9.010  0.2269  0.3539 -0.2014
  136SAPE  H14X14810   5.813   5.414   9.012 -0.1398 -0.0930 -1.6371
  136SAPE  H14Y14811   5.892   5.271   9.085 -1.2675  1.2412  0.5202
  136SAPE  C31514812   5.925   5.280   8.877 -0.6072 -0.2813  1.0532
  136SAPE  H15X14813   6.009   5.208   8.882 -1.3119 -1.0672  1.7570
  136SAPE  H15Y14814   5.942   5.356   8.798  4.1414 -1.6252  0.4546
  136SAPE  C31614815   5.807   5.198   8.825  0.0617 -0.2201 -0.0983
  136SAPE  H16X14816   5.721   5.268   8.830  0.0511 -0.1219 -1.3200
  136SAPE  H16Y14817   5.794   5.113   8.895 -1.8135 -1.3129 -1.6762
  136SAPE  C31714818   5.820   5.153   8.675 -0.6362 -0.7449  0.0855
  136SAPE  H17X14819   5.851   5.247   8.624  0.5844 -0.2344  1.6894
  136SAPE  H17Y14820   5.725   5.108   8.641 -0.7104 -1.4339  1.1564
  136SAPE  C31814821   5.941   5.066   8.649 -0.3350  0.6962  0.0942
  136SAPE  H18X14822   5.953   4.992   8.731 -0.4831  1.2200  0.5954
  136SAPE  H18Y14823   6.040   5.116   8.634  0.9892 -1.4742  1.0184
  136SAPE  H18Z14824   5.929   5.001   8.560 -0.4176 -0.6843  1.0816
  137SAPE     N14825   0.211   4.372  10.907 -0.0945 -0.5273 -0.0745
  137SAPE   HN114826   0.155   4.393  10.992 -1.5528 -2.0471 -0.6031
  137SAPE   HN214827   0.208   4.268  10.901 -0.3822 -0.4338 -2.4586
  137SAPE   HN314828   0.309   4.408  10.910  0.9172 -3.1254  1.5253
  137SAPE   C1214829   0.127   4.410  10.786 -0.5540 -0.2681 -0.1032
  137SAPE  H12A14830   0.182   4.366  10.700  0.9068  0.2862  0.5055
  137SAPE  H12B14831   0.125   4.520  10.773  0.8123 -0.1932  0.1698
  137SAPE   C1114832  -0.012   4.343  10.792  0.3318 -0.6163 -0.0327
  137SAPE  H11A14833  -0.053   4.338  10.688  0.3703 -2.8286  0.0031
  137SAPE  H11B14834  -0.084   4.409  10.845 -0.2535 -0.5011 -0.9403
  137SAPE     P14835  -0.126   4.147  10.930  0.0063 -0.7441  0.3288
  137SAPE   O1314836  -0.073   4.039  11.009 -0.0357  0.0782 -0.2111
  137SAPE   O1414837  -0.207   4.246  11.008  0.4987 -1.0752 -0.5228
  137SAPE   O1214838  -0.002   4.220  10.857  0.4088 -0.0049 -0.1356
  137SAPE   O1114839  -0.219   4.090  10.819  0.1931 -0.4785  0.4859
  137SAPE    C114840  -0.155   4.010  10.707  0.1237 -1.0407 -0.2503
  137SAPE    HA14841  -0.044   4.011  10.715  0.0039  1.0002  2.7353
  137SAPE    HB14842  -0.184   3.904  10.725 -0.6965 -0.7167  0.3790
  137SAPE    C214843  -0.203   4.051  10.560  0.1947 -0.4589 -0.4566
  137SAPE    HS14844  -0.166   4.154  10.546  0.5302 -0.3239  1.2890
  137SAPE   O2114845  -0.345   4.043  10.563  0.3825 -0.5865  0.2627
  137SAPE   C2114846  -0.407   4.156  10.568  0.4270 -0.5754  0.1340
  137SAPE   O2214847  -0.363   4.272  10.570 -0.0948 -0.3023  0.6245
  137SAPE   C2214848  -0.551   4.126  10.607 -0.1584 -0.2950  0.1176
  137SAPE   H2R14849  -0.578   4.033  10.554  1.0024 -0.7432  0.2979
  137SAPE   H2S14850  -0.548   4.100  10.715 -0.7826  0.3220  0.2941
  137SAPE    C314851  -0.139   3.964  10.443  0.0605  0.3356  0.0186
  137SAPE    HX14852  -0.202   3.872  10.446  2.2900 -1.2819  0.0220
  137SAPE    HY14853  -0.029   3.949  10.451  0.1565  0.8830 -0.2230
  137SAPE   O3114854  -0.156   4.026  10.319 -0.4239 -0.1658 -0.5603
  137SAPE   C3114855  -0.140   3.952  10.208 -0.0827 -1.0518 -0.3294
  137SAPE   O3214856  -0.131   3.834  10.201  0.1204 -0.4825 -0.1276
  137SAPE   C3214857  -0.134   4.045  10.081 -0.2326 -0.1679 -1.2576
  137SAPE   H2X14858  -0.068   4.129  10.110 -1.0544  0.3133 -0.7389
  137SAPE   H2Y14859  -0.240   4.077  10.067 -0.4503  0.2737  0.9879
  137SAPE   C2314860  -0.660   4.231  10.574 -0.4536  0.5120 -0.3078
  137SAPE   H3R14861  -0.622   4.328  10.613  1.3590  0.4444 -1.7396
  137SAPE   H3S14862  -0.747   4.197  10.633  0.6092 -1.3407  0.2900
  137SAPE   C2414863  -0.702   4.217  10.428 -0.0298  0.1046  0.2515
  137SAPE   H4R14864  -0.787   4.289  10.425  1.2792  1.7397  0.5156
  137SAPE   H4S14865  -0.737   4.113  10.411 -0.9229  0.2127  1.3445
  137SAPE   C2514866  -0.594   4.262  10.329  0.7896 -0.2846  0.1179
  137SAPE   H5R14867  -0.532   4.342  10.372  0.5217  0.2159 -0.4078
  137SAPE   C2614868  -0.566   4.209  10.206  0.0918  0.0236 -0.8353
  137SAPE   H6R14869  -0.475   4.241  10.154  0.4135  1.4670  0.5469
  137SAPE   C2714870  -0.647   4.098  10.146 -0.5105 -0.1954  0.6631
  137SAPE   H7R14871  -0.735   4.133  10.090 -0.4944  0.3892  0.9972
  137SAPE   H7S14872  -0.695   4.038  10.227 -2.4561  1.7792  1.0532
  137SAPE   C2814873  -0.575   4.009  10.050  0.6619  0.2742  0.2860
  137SAPE   H8R14874  -0.549   3.905  10.076  0.8071 -0.1174 -1.3447
  137SAPE   C2914875  -0.555   4.041   9.913  0.3190  0.2599  0.2149
  137SAPE   H9R14876  -0.499   3.970   9.849  0.0439 -0.3738  0.6617
  137SAPE  C21014877  -0.602   4.174   9.854  0.8037  0.7769  0.3200
  137SAPE  H10R14878  -0.628   4.243   9.937  0.0068  0.3475  0.4440
  137SAPE  H10S14879  -0.684   4.156   9.781  1.9731 -2.3915 -0.3678
  137SAPE  C21114880  -0.492   4.240   9.769 -0.4230  0.0199  0.1387
  137SAPE  H11R14881  -0.432   4.318   9.817  1.9204 -2.0818  0.8349
  137SAPE  C21214882  -0.462   4.220   9.640 -0.3011 -0.2715  0.1136
  137SAPE  H12R14883  -0.381   4.286   9.606 -0.3059  0.4589  1.4363
  137SAPE  C21314884  -0.524   4.120   9.544  0.0417  0.5461 -0.3962
  137SAPE  H13R14885  -0.559   4.180   9.458  0.8270 -1.0196 -1.8606
  137SAPE  H13S14886  -0.622   4.075   9.570 -1.4282  1.7029 -3.4466
  137SAPE  C21414887  -0.442   3.997   9.504 -0.2884 -0.8812  0.0121
  137SAPE  H14R14888  -0.392   3.938   9.582 -0.0256 -1.0728 -0.2999
  137SAPE  C21514889  -0.441   3.947   9.381 -0.7549  0.0903  1.0408
  137SAPE  H15R14890  -0.374   3.866   9.350 -1.2091  0.0071  0.2464
  137SAPE  C21614891  -0.519   3.998   9.266  0.1100 -0.3782 -0.3129
  137SAPE  H16R14892  -0.515   4.108   9.259 -0.0518 -0.4747 -2.2738
  137SAPE  H16S14893  -0.627   3.975   9.277 -0.0670  0.0612 -1.1592
  137SAPE  C21714894  -0.478   3.945   9.125 -0.0690 -0.5951  0.0111
  137SAPE  H17R14895  -0.418   3.852   9.129 -0.7134 -1.0353 -0.4361
  137SAPE  H17S14896  -0.398   4.016   9.094  1.4061 -1.2779  2.0232
  137SAPE  C21814897  -0.592   3.947   9.032 -0.3974  0.5044 -0.1162
  137SAPE  H18R14898  -0.658   4.035   9.047 -1.3049 -0.3084  0.7559
  137SAPE  H18S14899  -0.649   3.856   9.057  1.8933 -0.4883  1.8149
  137SAPE  C21914900  -0.546   3.944   8.884  0.5604  0.4365  0.1156
  137SAPE  H19R14901  -0.494   3.846   8.873 -2.6112 -1.3783  0.1500
  137SAPE  H19S14902  -0.479   4.032   8.875 -0.8269  1.5661  0.4279
  137SAPE  C22014903  -0.661   3.951   8.788  0.4807  0.4738  0.6422
  137SAPE  H20R14904  -0.628   3.953   8.682 -2.1210  2.2898 -0.2207
  137SAPE  H20S14905  -0.718   4.044   8.808 -0.9347  0.1999 -1.8020
  137SAPE  H20T14906  -0.721   3.858   8.800  0.4180  0.6345  1.7295
  137SAPE   C3314907  -0.077   3.977   9.956 -0.0862 -0.4919 -0.5127
  137SAPE   H3X14908  -0.154   3.898   9.944  0.0617 -0.6870 -0.1714
  137SAPE   H3Y14909   0.019   3.922   9.959 -2.2042 -4.5779  0.4203
  137SAPE   C3414910  -0.066   4.073   9.838 -0.4297 -0.3767 -0.0443
  137SAPE   H4X14911  -0.004   4.161   9.863 -0.6206  0.0943 -1.1502
  137SAPE   H4Y14912  -0.167   4.116   9.824  0.0442  0.5414 -0.7498
  137SAPE   C3514913  -0.016   3.991   9.713  0.9281 -0.1000  0.1300
  137SAPE   H5X14914  -0.088   3.910   9.686 -0.7193  1.2027  0.4548
  137SAPE   H5Y14915   0.084   3.950   9.736  1.0152  0.8714  1.5974
  137SAPE   C3614916   0.006   4.079   9.590 -0.5720  0.1943  0.7987
  137SAPE   H6X14917  -0.088   4.112   9.539 -0.5250 -0.2383  0.4330
  137SAPE   H6Y14918   0.057   4.009   9.521 -0.2801 -0.2092  1.4265
  137SAPE   C3714919   0.086   4.210   9.619  0.2339 -0.5245 -0.4387
  137SAPE   H7X14920   0.176   4.184   9.679 -0.2433 -1.6206 -0.1750
  137SAPE   H7Y14921   0.023   4.272   9.688 -0.4822 -1.5263 -0.1714
  137SAPE   C3814922   0.090   4.302   9.500  0.1063  0.5841 -0.3950
  137SAPE   H8X14923  -0.005   4.326   9.447 -0.8269 -1.3103  0.3604
  137SAPE   H8Y14924   0.148   4.248   9.422  0.8577  1.8029 -0.7099
  137SAPE   C3914925   0.173   4.426   9.528 -0.3463 -0.3230  0.0726
  137SAPE   H9X14926   0.272   4.393   9.567  0.9612 -0.3880 -2.9684
  137SAPE   H9Y14927   0.129   4.482   9.613 -1.0467 -1.4566  0.4800
  137SAPE  C31014928   0.218   4.508   9.403 -0.5584  0.7614 -0.8717
  137SAPE  H10X14929   0.274   4.452   9.325 -0.7698 -0.0722 -0.4364
  137SAPE  H10Y14930   0.285   4.585   9.447 -0.4964  0.6914 -0.8430
  137SAPE  C31114931   0.108   4.553   9.309  0.1603 -0.5498  0.0329
  137SAPE  H11X14932   0.020   4.591   9.366  0.4765  2.1951 -1.1586
  137SAPE  H11Y14933   0.070   4.463   9.256 -1.8750  1.0399 -1.3959
  137SAPE  C31214934   0.152   4.663   9.215  0.3257 -0.0424  0.6613
  137SAPE  H12X14935   0.231   4.621   9.149  0.2292 -0.1096  0.5882
  137SAPE  H12Y14936   0.208   4.738   9.275  0.2354  0.1892  0.4580
  137SAPE  C31314937   0.034   4.728   9.139  0.2225 -0.3215  0.3060
  137SAPE  H13X14938  -0.050   4.722   9.211  1.3681 -1.5820  1.6030
  137SAPE  H13Y14939  -0.002   4.665   9.055 -4.2364  2.0207  0.1828
  137SAPE  C31414940   0.052   4.873   9.107 -0.7877 -0.4587 -0.5599
  137SAPE  H14X14941   0.144   4.908   9.055  0.5389  1.5096  2.8200
  137SAPE  H14Y14942   0.054   4.925   9.205 -3.3450 -0.5840 -0.3823
  137SAPE  C31514943  -0.075   4.915   9.033  0.1747 -0.6428 -0.1841
  137SAPE  H15X14944  -0.164   4.900   9.097 -0.3084  0.6806 -0.5221
  137SAPE  H15Y14945  -0.090   4.857   8.939 -1.2220  0.6066 -0.7661
  137SAPE  C31614946  -0.061   5.068   8.998  0.3099 -0.0144 -0.1144
  137SAPE  H16X14947  -0.156   5.105   8.955 -0.1108 -1.7002 -0.7337
  137SAPE  H16Y14948   0.020   5.083   8.923  0.0807  0.5265 -0.2574
  137SAPE  C31714949  -0.026   5.160   9.123 -0.0009 -0.9519 -0.5001
  137SAPE  H17X14950   0.071   5.127   9.166 -0.4914 -2.2556 -0.3463
  137SAPE  H17Y14951  -0.105   5.150   9.201  0.7569 -1.1912  0.2458
  137SAPE  C31814952  -0.023   5.309   9.079 -0.2356 -0.0265  0.2851
  137SAPE  H18X14953  -0.102   5.351   9.014 -0.3463 -2.6036 -1.4022
  137SAPE  H18Y14954   0.078   5.322   9.036 -0.0566  0.3450  0.8026
  137SAPE  H18Z14955  -0.023   5.371   9.172  0.9680 -0.8799  0.8873
  138SAPE     N14956   5.981   2.749  10.787 -0.3919  0.4176  0.5591
  138SAPE   HN114957   6.044   2.675  10.747 -1.7980 -1.0095  0.8722
  138SAPE   HN214958   5.910   2.765  10.713 -0.3953 -0.5447  0.3343
  138SAPE   HN314959   6.046   2.825  10.813  1.6562 -0.8099 -0.6408
  138SAPE   C1214960   5.909   2.694  10.908  0.3182  0.1724 -0.5279
  138SAPE  H12A14961   5.991   2.668  10.978  1.2009  1.1249 -1.1786
  138SAPE  H12B14962   5.865   2.598  10.875  3.1674 -0.9413 -1.4277
  138SAPE   C1114963   5.811   2.802  10.966  0.2939  0.2794  0.5966
  138SAPE  H11A14964   5.859   2.902  10.967  0.7863  0.0389  1.8210
  138SAPE  H11B14965   5.795   2.769  11.071  0.6001 -1.1223  0.2257
  138SAPE     P14966   5.636   2.871  10.780  0.6810  0.1020  0.1354
  138SAPE   O1314967   5.486   2.866  10.782 -0.6559  0.2103  0.3052
  138SAPE   O1414968   5.705   3.005  10.772 -0.3467  0.3624 -0.0919
  138SAPE   O1214969   5.677   2.797  10.914  0.0946 -0.4028  0.1536
  138SAPE   O1114970   5.701   2.778  10.671  0.1558 -0.1356 -0.6661
  138SAPE    C114971   5.621   2.674  10.608 -0.3479  0.6833 -0.0532
  138SAPE    HA14972   5.647   2.571  10.641  0.3924  0.1474 -2.1672
  138SAPE    HB14973   5.511   2.684  10.620 -0.6335 -3.3713  2.9325
  138SAPE    C214974   5.642   2.681  10.452  0.6532 -0.3955  0.1639
  138SAPE    HS14975   5.751   2.681  10.429  0.5673 -0.4722 -0.2519
  138SAPE   O2114976   5.580   2.795  10.390  0.9280  0.2483  0.0450
  138SAPE   C2114977   5.660   2.903  10.364  0.6681  0.5623 -0.1670
  138SAPE   O2214978   5.779   2.905  10.382 -0.1660  0.2565  0.5439
  138SAPE   C2214979   5.567   3.005  10.297  0.6681 -0.2472  0.1363
  138SAPE   H2R14980   5.526   2.966  10.201 -0.7903  0.3388  0.4983
  138SAPE   H2S14981   5.481   3.016  10.367  2.3544 -1.8024  2.5935
  138SAPE    C314982   5.570   2.555  10.403  0.3361  0.0123  0.6921
  138SAPE    HX14983   5.465   2.550  10.438 -0.1429 -1.7324 -0.8029
  138SAPE    HY14984   5.626   2.470  10.447 -0.7123 -0.8523  0.4000
  138SAPE   O3114985   5.582   2.545  10.254  0.1159 -0.2578 -1.3446
  138SAPE   C3114986   5.579   2.420  10.209 -0.7425  0.3786  0.0413
  138SAPE   O3214987   5.535   2.323  10.262  0.0776  0.4351 -0.2812
  138SAPE   C3214988   5.605   2.431  10.061  0.0734 -0.2671 -0.2416
  138SAPE   H2X14989   5.716   2.439  10.053 -0.0209  1.8225 -0.0009
  138SAPE   H2Y14990   5.545   2.515  10.020 -0.6095 -0.5898  0.0834
  138SAPE   C2314991   5.637   3.133  10.265 -0.2252 -0.6352  0.2316
  138SAPE   H3R14992   5.725   3.122  10.197 -0.0307 -2.6180  0.7660
  138SAPE   H3S14993   5.686   3.171  10.357 -1.0381  0.4931  0.2285
  138SAPE   C2414994   5.545   3.246  10.209  0.5629  0.4227 -0.0564
  138SAPE   H4R14995   5.451   3.235  10.267  0.1710  0.5008 -0.6713
  138SAPE   H4S14996   5.517   3.209  10.108 -0.2932  0.6965  0.0713
  138SAPE   C2514997   5.585   3.395  10.213 -1.1531 -0.2527  0.2091
  138SAPE   H5R14998   5.625   3.434  10.308  1.1394  0.4644 -0.9605
  138SAPE   C2614999   5.592   3.473  10.103  0.1820 -0.4365 -0.4697
  138SAPE   H6R15000   5.623   3.578  10.117  0.1656 -0.6620  1.5983
  138SAPE   C2715001   5.564   3.424   9.962  0.0860  0.2681 -0.4774
  138SAPE   H7R15002   5.464   3.376   9.971  1.4562 -2.8822 -0.6695
  138SAPE   H7S15003   5.640   3.347   9.936  1.3481  1.0546  0.7399
  138SAPE   C2815004   5.580   3.536   9.856  0.6187 -0.4418 -0.5897
  138SAPE   H8R15005   5.676   3.557   9.807 -0.6752  2.6166 -2.1373
  138SAPE   C2915006   5.484   3.615   9.821  0.0562  0.1372 -0.2323
  138SAPE   H9R15007   5.512   3.701   9.758 -0.8722 -0.3479 -1.3517
  138SAPE  C21015008   5.344   3.605   9.877  0.5596  0.4568  0.2680
  138SAPE  H10R15009   5.311   3.710   9.892 -0.8009  0.1019 -0.0887
  138SAPE  H10S15010   5.343   3.554   9.976  2.7636 -1.6353 -0.6773
  138SAPE  C21115011   5.250   3.529   9.786 -0.4882 -0.2342 -0.1807
  138SAPE  H11R15012   5.299   3.500   9.692  1.3587  0.5774  0.4910
  138SAPE  C21215013   5.115   3.518   9.799 -0.6797  0.4623 -0.4027
  138SAPE  H12R15014   5.052   3.458   9.732  2.1135 -0.9664 -1.8945
  138SAPE  C21315015   5.041   3.570   9.919  0.6883 -0.1434 -1.0326
  138SAPE  H13R15016   4.945   3.620   9.894 -0.5771 -1.8902  0.0840
  138SAPE  H13S15017   5.093   3.643   9.985 -3.0861  0.1178  2.0259
  138SAPE  C21415018   4.993   3.441   9.986 -0.2768 -0.0398  0.1570
  138SAPE  H14R15019   4.945   3.368   9.920  2.1090  0.0551 -1.8251
  138SAPE  C21515020   4.991   3.420  10.121  0.6269  0.0725 -0.3859
  138SAPE  H15R15021   4.944   3.324  10.148  0.4792  0.2905  0.1587
  138SAPE  C21615022   5.031   3.517  10.230 -0.5321 -0.4736  0.1295
  138SAPE  H16R15023   4.984   3.478  10.322 -0.5267  0.3473  0.4941
  138SAPE  H16S15024   5.002   3.622  10.205 -0.8246 -1.3166 -3.7257
  138SAPE  C21715025   5.183   3.529  10.254  0.5725  0.1255 -0.2295
  138SAPE  H17R15026   5.213   3.566  10.154 -0.6068 -0.2773 -0.7528
  138SAPE  H17S15027   5.219   3.425  10.268 -1.9257 -0.9193 -0.9516
  138SAPE  C21815028   5.236   3.628  10.367 -0.3230 -0.0641  0.1616
  138SAPE  H18R15029   5.212   3.593  10.470 -0.0500  0.1667  0.3054
  138SAPE  H18S15030   5.177   3.718  10.342 -2.6602 -2.1485 -2.3833
  138SAPE  C21915031   5.385   3.646  10.369  0.6497  0.7073  0.8486
  138SAPE  H19R15032   5.398   3.683  10.265 -1.8829  1.7581  0.8372
  138SAPE  H19S15033   5.440   3.550  10.382 -1.2820 -0.6575 -0.3567
  138SAPE  C22015034   5.425   3.748  10.477 -0.1930  0.3323  0.1252
  138SAPE  H20R15035   5.533   3.771  10.489 -0.0681 -0.8987  1.6787
  138SAPE  H20S15036   5.401   3.712  10.579  3.6047  0.0743  1.0576
  138SAPE  H20T15037   5.367   3.841  10.459  0.2066  0.6452  0.4454
  138SAPE   C3315038   5.561   2.305   9.989 -0.2039 -0.5433  0.4132
  138SAPE   H3X15039   5.471   2.260  10.036 -1.2795 -1.1638 -2.0612
  138SAPE   H3Y15040   5.638   2.224   9.992 -1.1442 -1.5312 -0.6920
  138SAPE   C3415041   5.529   2.343   9.837 -0.7464  0.1994 -0.3648
  138SAPE   H4X15042   5.446   2.418   9.835 -1.7214 -0.8016  0.7500
  138SAPE   H4Y15043   5.498   2.252   9.782  0.7721  0.1272 -1.1320
  138SAPE   C3515044   5.653   2.405   9.765  0.4867 -0.1367  0.0100
  138SAPE   H5X15045   5.738   2.334   9.778 -0.9235 -1.8406  0.3157
  138SAPE   H5Y15046   5.685   2.498   9.817 -1.0322 -0.2037  1.1387
  138SAPE   C3615047   5.624   2.440   9.616 -1.0155 -0.4406  0.3071
  138SAPE   H6X15048   5.717   2.490   9.580 -1.4450 -0.9033 -1.5775
  138SAPE   H6Y15049   5.531   2.501   9.616 -1.7913 -1.5968  0.4843
  138SAPE   C3715050   5.619   2.312   9.528 -0.4454  0.3973  0.3709
  138SAPE   H7X15051   5.523   2.261   9.549 -0.4471 -0.6892 -1.9799
  138SAPE   H7Y15052   5.696   2.237   9.558  1.2843  2.3538  1.0737
  138SAPE   C3815053   5.645   2.328   9.379 -0.5912 -0.5304 -0.2136
  138SAPE   H8X15054   5.750   2.362   9.374  0.0220 -2.1207  0.9631
  138SAPE   H8Y15055   5.573   2.398   9.333 -0.0025  0.8230  0.8516
  138SAPE   C3915056   5.640   2.197   9.291 -0.0491  0.5460  0.8268
  138SAPE   H9X15057   5.534   2.168   9.278  0.0996  1.4367 -5.1705
  138SAPE   H9Y15058   5.691   2.116   9.348  0.4623 -0.2124 -0.6662
  138SAPE  C31015059   5.707   2.214   9.156  0.5644 -0.1774 -0.4365
  138SAPE  H10X15060   5.654   2.299   9.109  0.3617  1.6582  2.7934
  138SAPE  H10Y15061   5.690   2.120   9.099 -0.7248 -0.8919  1.0453
  138SAPE  C31115062   5.850   2.249   9.165 -0.1752  0.4509 -0.6843
  138SAPE  H11X15063   5.913   2.171   9.213  0.8407  1.6349 -0.0398
  138SAPE  H11Y15064   5.872   2.348   9.212  1.0757 -0.3994  0.6097
  138SAPE  C31215065   5.908   2.261   9.019  0.2417  0.1126  0.4796
  138SAPE  H12X15066   5.840   2.322   8.955  1.8603 -0.9467 -2.4576
  138SAPE  H12Y15067   5.902   2.159   8.975 -3.2494 -0.1724  1.3581
  138SAPE  C31315068   6.043   2.324   9.015  0.2688  0.4159 -0.5218
  138SAPE  H13X15069   6.122   2.276   9.076 -0.5465  1.6666  1.6467
  138SAPE  H13Y15070   6.028   2.422   9.067  0.3854  0.9720 -1.5219
  138SAPE  C31415071   6.099   2.345   8.878 -0.4762  0.3331  0.1706
  138SAPE  H14X15072   6.050   2.295   8.791 -1.3647 -1.8340  1.8060
  138SAPE  H14Y15073   6.202   2.304   8.879  0.0869  1.6890  1.2810
  138SAPE  C31515074   6.105   2.495   8.855 -0.0660  0.2978  1.1554
  138SAPE  H15X15075   6.178   2.531   8.931  1.6490 -1.1723  0.2753
  138SAPE  H15Y15076   6.006   2.542   8.877 -0.4581 -0.3250  0.7625
  138SAPE  C31615077   6.140   2.531   8.710 -0.3273 -0.0445 -0.6232
  138SAPE  H16X15078   6.243   2.494   8.693  0.9265  2.1712  1.5415
  138SAPE  H16Y15079   6.150   2.640   8.692  1.1076 -0.1734 -0.7213
  138SAPE  C31715080   6.045   2.479   8.605  0.7836 -0.2114  0.0972
  138SAPE  H17X15081   5.940   2.490   8.641  0.0543  0.0704 -1.9609
  138SAPE  H17Y15082   6.074   2.374   8.581  0.8674  0.2884 -2.1778
  138SAPE  C31815083   6.043   2.561   8.477 -0.0843 -0.1435  0.4993
  138SAPE  H18X15084   5.976   2.521   8.398  0.5823 -0.0829 -0.1087
  138SAPE  H18Y15085   6.142   2.583   8.431 -0.6500  0.2012 -0.5806
  138SAPE  H18Z15086   6.009   2.662   8.507  1.5743  0.8414 -0.7761
  139SAPE     N15087   3.788   6.771  10.667  0.0437  0.7374  0.7340
  139SAPE   HN115088   3.738   6.692  10.622  0.5695  0.8900 -0.1501
  139SAPE   HN215089   3.891   6.755  10.658 -0.0198  1.0777 -1.0700
  139SAPE   HN315090   3.759   6.757  10.765  1.2012 -2.0407  0.7696
  139SAPE   C1215091   3.752   6.894  10.593  0.8322  0.1032 -0.2125
  139SAPE  H12A15092   3.765   6.882  10.483 -0.2542  3.0238 -0.7295
  139SAPE  H12B15093   3.817   6.977  10.628 -0.2087  0.5490  0.7108
  139SAPE   C1115094   3.611   6.941  10.619  0.5899 -0.3267 -0.5585
  139SAPE  H11A15095   3.603   6.947  10.730 -2.3391  0.6011 -0.7378
  139SAPE  H11B15096   3.533   6.866  10.593 -2.2594  2.6661 -1.2850
  139SAPE     P15097   3.473   7.160  10.581  0.2650  0.1148 -0.3464
  139SAPE   O1315098   3.446   7.153  10.725  0.2997 -0.9742 -0.2966
  139SAPE   O1415099   3.509   7.296  10.530 -0.3194 -0.3784 -0.3859
  139SAPE   O1215100   3.596   7.064  10.553  0.0904 -0.6214 -0.6382
  139SAPE   O1115101   3.349   7.104  10.494  0.5380  0.2392 -0.4612
  139SAPE    C115102   3.376   7.033  10.370 -0.4153 -0.0508  0.8741
  139SAPE    HA15103   3.458   6.958  10.377  0.9175  1.2101 -0.3895
  139SAPE    HB15104   3.286   6.977  10.336 -0.9744  0.5283  1.3751
  139SAPE    C215105   3.425   7.131  10.257  1.1298  0.4722 -0.5642
  139SAPE    HS15106   3.519   7.178  10.293  1.0148 -0.9755  1.8075
  139SAPE   O2115107   3.316   7.218  10.233 -0.6038 -0.0652 -0.3286
  139SAPE   C2115108   3.360   7.337  10.190 -0.0445  0.2046  0.4944
  139SAPE   O2215109   3.477   7.363  10.171 -0.4155 -0.4405  0.1971
  139SAPE   C2215110   3.240   7.436  10.181  0.5413  0.4170 -0.1877
  139SAPE   H2R15111   3.207   7.455  10.285 -0.5257 -1.6279 -0.1060
  139SAPE   H2S15112   3.273   7.530  10.131 -0.7408  0.0351 -1.8248
  139SAPE    C315113   3.466   7.033  10.137 -0.1393  0.7390 -0.8998
  139SAPE    HX15114   3.377   6.970  10.115 -0.0928  0.5245 -0.4766
  139SAPE    HY15115   3.544   6.960  10.164 -0.8735  0.6100  1.0736
  139SAPE   O3115116   3.478   7.106  10.021  0.3419  0.5055  0.0013
  139SAPE   C3115117   3.605   7.130   9.978 -0.9960 -0.0416 -0.3192
  139SAPE   O3215118   3.705   7.083  10.039 -1.1626  0.0304  0.3249
  139SAPE   C3215119   3.608   7.213   9.850  0.6951 -0.3381 -0.3585
  139SAPE   H2X15120   3.687   7.291   9.845  1.9237 -1.2209  2.8480
  139SAPE   H2Y15121   3.516   7.272   9.832 -0.5259 -2.3189 -0.9668
  139SAPE   C2315122   3.119   7.382  10.100 -0.9571  0.4038 -0.2401
  139SAPE   H3R15123   3.024   7.431  10.128 -0.9195  0.9565 -1.0521
  139SAPE   H3S15124   3.106   7.272  10.107 -2.4416  0.5108 -1.0345
  139SAPE   C2415125   3.132   7.416   9.947 -0.3682  0.0407 -0.5793
  139SAPE   H4R15126   3.170   7.520   9.935 -0.1820 -0.0514 -0.7887
  139SAPE   H4S15127   3.029   7.415   9.907 -0.5517 -0.6491 -0.1040
  139SAPE   C2515128   3.223   7.309   9.886 -0.6725 -0.2323 -0.1632
  139SAPE   H5R15129   3.283   7.251   9.958  0.7290  1.4000  0.0447
  139SAPE   C2615130   3.250   7.296   9.755  0.7191 -0.0952  0.3689
  139SAPE   H6R15131   3.319   7.214   9.730 -0.8892 -1.3132 -0.1994
  139SAPE   C2715132   3.189   7.386   9.646 -0.1985  0.7186 -0.1493
  139SAPE   H7R15133   3.140   7.474   9.693 -0.2182 -0.4232  2.0961
  139SAPE   H7S15134   3.104   7.328   9.603  1.5033 -0.1189 -2.6048
  139SAPE   C2815135   3.286   7.432   9.535 -0.3897  0.6766 -0.4143
  139SAPE   H8R15136   3.379   7.484   9.562 -0.5079  1.5731 -1.6261
  139SAPE   C2915137   3.264   7.418   9.403 -0.1472 -0.7837  0.2706
  139SAPE   H9R15138   3.326   7.471   9.329  0.3256 -1.8852 -0.1519
  139SAPE  C21015139   3.135   7.357   9.338 -0.8573  0.2255 -0.0144
  139SAPE  H10R15140   3.083   7.440   9.286 -0.4132  1.5031  1.4911
  139SAPE  H10S15141   3.059   7.325   9.412 -0.9368 -2.4497 -1.1622
  139SAPE  C21115142   3.180   7.250   9.238  0.3775 -0.3947 -0.0745
  139SAPE  H11R15143   3.202   7.154   9.286  1.1089 -1.4039 -2.2949
  139SAPE  C21215144   3.195   7.267   9.105 -0.3660  0.5224  0.0516
  139SAPE  H12R15145   3.227   7.185   9.040 -0.0044  0.6903  0.0162
  139SAPE  C21315146   3.177   7.395   9.032  0.0757 -0.6295  0.2686
  139SAPE  H13R15147   3.110   7.460   9.093  2.4351  1.4196  0.8417
  139SAPE  H13S15148   3.107   7.385   8.947  1.8006 -0.3369 -1.2328
  139SAPE  C21415149   3.312   7.468   9.016  0.6296  0.2860 -0.0443
  139SAPE  H14R15150   3.354   7.522   9.101 -0.2840  0.4419  0.3274
  139SAPE  C21515151   3.388   7.453   8.898  0.7832  0.2842 -0.3500
  139SAPE  H15R15152   3.479   7.512   8.879  1.0827 -0.0488  0.0266
  139SAPE  C21615153   3.345   7.374   8.778  0.7243 -0.3851  0.1913
  139SAPE  H16R15154   3.311   7.443   8.698 -1.9353 -1.3886  0.3619
  139SAPE  H16S15155   3.254   7.313   8.796  1.3032 -1.2493  0.2600
  139SAPE  C21715156   3.438   7.277   8.707  0.4261  0.5842 -0.2497
  139SAPE  H17R15157   3.466   7.186   8.766  1.0055  1.7038  1.2716
  139SAPE  H17S15158   3.525   7.345   8.697  1.5491 -0.9785 -1.8716
  139SAPE  C21815159   3.390   7.219   8.568 -0.5656 -0.0999 -0.9858
  139SAPE  H18R15160   3.351   7.307   8.513  0.9110  0.3109 -1.4287
  139SAPE  H18S15161   3.318   7.140   8.598  0.4823 -0.8685 -0.3928
  139SAPE  C21915162   3.506   7.149   8.491  0.1882 -0.5028 -0.3240
  139SAPE  H19R15163   3.553   7.071   8.554 -0.3728 -1.2396 -0.8037
  139SAPE  H19S15164   3.584   7.227   8.480 -2.7260  2.5962 -1.0834
  139SAPE  C22015165   3.453   7.121   8.346  0.0405  0.1260  0.1419
  139SAPE  H20R15166   3.361   7.060   8.347 -0.5844  1.0114 -1.0983
  139SAPE  H20S15167   3.524   7.050   8.299 -0.2558 -1.1445  1.5333
  139SAPE  H20T15168   3.437   7.224   8.308  0.6053  0.8675  1.7920
  139SAPE   C3315169   3.619   7.114   9.731 -0.4796 -0.9260  0.1208
  139SAPE   H3X15170   3.516   7.071   9.730 -1.4990  1.3109  1.2462
  139SAPE   H3Y15171   3.693   7.032   9.744  1.0860  0.2231 -1.1160
  139SAPE   C3415172   3.622   7.192   9.605 -0.0748 -0.9653  0.5287
  139SAPE   H4X15173   3.718   7.248   9.593 -1.0625  0.8631  0.8065
  139SAPE   H4Y15174   3.548   7.275   9.606  1.3088  0.3157  1.1627
  139SAPE   C3515175   3.611   7.096   9.482 -0.1478 -0.2269  0.3882
  139SAPE   H5X15176   3.529   7.023   9.503  0.0574 -0.7782 -0.6328
  139SAPE   H5Y15177   3.694   7.023   9.478  0.0248 -0.3161  3.3992
  139SAPE   C3615178   3.576   7.171   9.356  0.3128  0.1956  0.7414
  139SAPE   H6X15179   3.661   7.224   9.308 -1.8571  2.2558 -1.0346
  139SAPE   H6Y15180   3.501   7.246   9.388  0.4464  1.0111 -0.7743
  139SAPE   C3715181   3.524   7.087   9.239  0.2485 -0.1180  0.5477
  139SAPE   H7X15182   3.505   7.166   9.163  0.3222 -1.5963 -1.0717
  139SAPE   H7Y15183   3.424   7.046   9.263 -0.8414  1.0241 -1.6775
  139SAPE   C3815184   3.606   6.972   9.186 -0.2484  0.9596  0.0121
  139SAPE   H8X15185   3.626   6.895   9.263  3.7659  3.5636  1.9131
  139SAPE   H8Y15186   3.708   7.014   9.173 -0.0199  0.1363 -0.9841
  139SAPE   C3915187   3.538   6.913   9.060 -0.2400 -0.2549  1.0098
  139SAPE   H9X15188   3.487   7.002   9.020 -2.4661 -0.7873  2.4408
  139SAPE   H9Y15189   3.463   6.837   9.092 -0.6049 -0.7220 -0.8780
  139SAPE  C31015190   3.645   6.863   8.962 -0.5643  0.5625 -0.4664
  139SAPE  H10X15191   3.598   6.804   8.880 -3.9901  1.9752  0.3176
  139SAPE  H10Y15192   3.716   6.792   9.011 -2.3805 -0.8020  0.2929
  139SAPE  C31115193   3.747   6.984   8.924 -0.8228  0.1005  0.4230
  139SAPE  H11X15194   3.813   7.004   9.011 -1.2935  0.6726  0.6466
  139SAPE  H11Y15195   3.691   7.067   8.877  2.0614  0.9291 -1.9010
  139SAPE  C31215196   3.837   6.936   8.799  0.0574  0.1247  0.4446
  139SAPE  H12X15197   3.776   6.898   8.714 -1.3630 -1.0170  1.9020
  139SAPE  H12Y15198   3.889   6.848   8.842  1.3618  1.4940  1.7722
  139SAPE  C31315199   3.936   7.040   8.753  0.1065 -0.1943  0.0298
  139SAPE  H13X15200   3.975   7.096   8.840 -0.5705  0.5917 -0.1594
  139SAPE  H13Y15201   3.882   7.115   8.691 -0.6660  1.2487  2.3032
  139SAPE  C31415202   4.051   6.979   8.675 -0.3821  0.0096 -0.2902
  139SAPE  H14X15203   4.020   6.884   8.626 -2.9294  0.6414 -0.0447
  139SAPE  H14Y15204   4.134   6.966   8.748 -0.6336  0.7976  0.1466
  139SAPE  C31515205   4.107   7.073   8.565 -0.0257  0.5449 -0.1582
  139SAPE  H15X15206   4.024   7.098   8.495  0.4339 -0.7627 -1.1913
  139SAPE  H15Y15207   4.183   7.023   8.502 -0.8010  1.4585 -1.8673
  139SAPE  C31615208   4.171   7.201   8.622 -0.1316 -0.2233 -0.6128
  139SAPE  H16X15209   4.226   7.245   8.535  4.0857 -1.2101  1.2750
  139SAPE  H16Y15210   4.089   7.271   8.644  0.2620 -0.2404  0.9962
  139SAPE  C31715211   4.279   7.194   8.731 -0.2395  0.4328  0.1817
  139SAPE  H17X15212   4.225   7.167   8.825 -2.1921 -1.9811 -1.4844
  139SAPE  H17Y15213   4.321   7.293   8.758  0.5298 -0.0699  0.8626
  139SAPE  C31815214   4.392   7.097   8.701  0.5909  0.7505  0.2387
  139SAPE  H18X15215   4.459   7.137   8.621  0.9710 -1.0719 -0.4156
  139SAPE  H18Y15216   4.357   6.998   8.665 -0.5868  1.4713 -0.6826
  139SAPE  H18Z15217   4.466   7.080   8.781  1.0346 -0.3364 -0.3779
  140SAPE     N15218   6.697   2.444  10.930  0.2460 -0.4789 -0.1085
  140SAPE   HN115219   6.716   2.482  11.025 -0.0367 -1.4443  0.3444
  140SAPE   HN215220   6.664   2.345  10.936 -0.0914 -0.5602 -2.3879
  140SAPE   HN315221   6.793   2.431  10.891  0.7254 -0.7207  1.0972
  140SAPE   C1215222   6.599   2.521  10.857 -0.7465 -0.7294  0.4022
  140SAPE  H12A15223   6.635   2.620  10.822  0.3698  0.0239  3.3899
  140SAPE  H12B15224   6.505   2.527  10.917 -0.3087 -1.0001  1.1168
  140SAPE   C1115225   6.547   2.444  10.731 -0.3389  0.1388  0.4423
  140SAPE  H11A15226   6.644   2.444  10.677  1.3223  2.7297  3.1714
  140SAPE  H11B15227   6.474   2.512  10.682 -0.5397  1.2252  2.2087
  140SAPE     P15228   6.356   2.267  10.703 -0.0334 -0.0747 -0.3667
  140SAPE   O1315229   6.336   2.136  10.763  0.2686  0.3423 -0.3668
  140SAPE   O1415230   6.247   2.363  10.739  0.1093 -0.1602  0.4197
  140SAPE   O1215231   6.490   2.316  10.764  0.1777 -0.4979 -1.1120
  140SAPE   O1115232   6.366   2.265  10.544  0.2896  0.0121 -0.0106
  140SAPE    C115233   6.478   2.199  10.481 -0.6540  0.1718  0.4671
  140SAPE    HA15234   6.576   2.244  10.508 -0.3302 -0.4407  0.3205
  140SAPE    HB15235   6.474   2.091  10.505  1.0792 -0.1006 -0.3318
  140SAPE    C215236   6.465   2.205  10.324 -0.5286 -0.3134  0.1292
  140SAPE    HS15237   6.543   2.142  10.275 -1.6082 -1.0841 -0.6474
  140SAPE   O2115238   6.461   2.342  10.270 -0.3219 -0.3351 -0.5323
  140SAPE   C2115239   6.573   2.405  10.278 -0.0785 -0.0785  0.0302
  140SAPE   O2215240   6.684   2.355  10.302  0.2793  0.4519  0.2232
  140SAPE   C2215241   6.556   2.556  10.250  0.3333 -0.0234  0.1923
  140SAPE   H2R15242   6.486   2.603  10.322  1.3438  0.4886  0.8569
  140SAPE   H2S15243   6.660   2.590  10.268  0.4834 -0.5929  0.4220
  140SAPE    C315244   6.331   2.131  10.295 -0.8974  0.5384 -0.3646
  140SAPE    HX15245   6.262   2.185  10.363 -0.1107  0.4749  0.5100
  140SAPE    HY15246   6.346   2.031  10.339 -0.3966  0.7472 -0.0418
  140SAPE   O3115247   6.296   2.127  10.149  0.6439 -0.2647 -0.2189
  140SAPE   C3115248   6.367   2.041  10.080  0.0542 -0.0897 -0.2352
  140SAPE   O3215249   6.463   1.981  10.123  0.2325 -0.0931 -0.1507
  140SAPE   C3215250   6.321   2.023   9.934  0.8354 -0.4091  0.0047
  140SAPE   H2X15251   6.308   2.125   9.893 -1.1028 -0.4843  0.3186
  140SAPE   H2Y15252   6.217   1.985   9.944  0.8918 -0.3396  0.8952
  140SAPE   C2315253   6.526   2.595  10.105 -0.7702  0.1280 -0.0781
  140SAPE   H3R15254   6.502   2.702  10.092 -2.0988 -0.3176 -1.5983
  140SAPE   H3S15255   6.438   2.535  10.071 -0.9944  0.4723 -0.1063
  140SAPE   C2415256   6.649   2.568  10.014  0.0832  0.3595 -0.5464
  140SAPE   H4R15257   6.746   2.599  10.057 -0.7357  1.4213  0.5915
  140SAPE   H4S15258   6.639   2.632   9.924 -1.5439  0.1843 -0.5299
  140SAPE   C2515259   6.651   2.422   9.969  1.2922 -0.3678  0.0014
  140SAPE   H5R15260   6.701   2.353  10.039 -0.2143 -1.2432  0.2499
  140SAPE   C2615261   6.581   2.379   9.862 -0.1471 -0.1056  0.4650
  140SAPE   H6R15262   6.581   2.272   9.834  0.7290 -0.7746  2.7560
  140SAPE   C2715263   6.487   2.454   9.768  0.5217  0.4210  0.1417
  140SAPE   H7R15264   6.394   2.483   9.822  0.2848 -0.5601  0.2836
  140SAPE   H7S15265   6.447   2.380   9.695  1.8074  1.4299 -1.6659
  140SAPE   C2815266   6.515   2.567   9.672 -1.0283 -0.8451  0.3321
  140SAPE   H8R15267   6.609   2.576   9.615 -1.0322 -1.9451  0.1293
  140SAPE   C2915268   6.435   2.673   9.647 -0.0906 -0.5247  0.2028
  140SAPE   H9R15269   6.468   2.754   9.580 -1.4406  0.6874  0.9456
  140SAPE  C21015270   6.298   2.705   9.710 -1.1038 -0.2179 -0.0837
  140SAPE  H10R15271   6.331   2.774   9.791 -1.3138 -0.2929  0.0654
  140SAPE  H10S15272   6.249   2.620   9.763 -1.4286 -0.2029 -0.3587
  140SAPE  C21115273   6.201   2.778   9.624 -0.4188  0.5557 -0.3609
  140SAPE  H11R15274   6.149   2.704   9.561  0.9764  0.3036 -1.2568
  140SAPE  C21215275   6.186   2.912   9.619  0.9203  0.0721 -0.2025
  140SAPE  H12R15276   6.108   2.955   9.555  0.0490  0.4342  1.0535
  140SAPE  C21315277   6.254   3.022   9.689  0.2345  0.0073 -0.2788
  140SAPE  H13R15278   6.246   3.109   9.620 -1.0092  0.8558  0.8851
  140SAPE  H13S15279   6.363   3.002   9.695  0.2223  0.0030 -0.0564
  140SAPE  C21415280   6.204   3.062   9.832 -0.1259 -0.2621  0.3058
  140SAPE  H14R15281   6.238   2.999   9.915  0.6168 -0.7917 -0.3904
  140SAPE  C21515282   6.122   3.167   9.866  0.6443  0.0533 -0.5004
  140SAPE  H15R15283   6.104   3.183   9.973 -0.3153  2.1550 -0.9216
  140SAPE  C21615284   6.052   3.266   9.771  0.1922  0.1252 -0.1788
  140SAPE  H16R15285   6.121   3.283   9.685  1.2908  0.4386  0.7374
  140SAPE  H16S15286   6.050   3.366   9.820  3.0983 -0.6113  1.6704
  140SAPE  C21715287   5.916   3.205   9.726 -0.3833 -0.5325 -0.2258
  140SAPE  H17R15288   5.851   3.203   9.816  0.6696 -1.3865  0.5412
  140SAPE  H17S15289   5.927   3.098   9.699 -1.1121 -0.3979 -1.0982
  140SAPE  C21815290   5.859   3.290   9.613 -0.1151 -0.4865 -0.2369
  140SAPE  H18R15291   5.876   3.395   9.644 -2.0310  0.6329 -2.6514
  140SAPE  H18S15292   5.749   3.273   9.608 -0.1520 -0.8506  1.3030
  140SAPE  C21915293   5.912   3.265   9.473  0.2913 -0.1273  0.2131
  140SAPE  H19R15294   6.023   3.268   9.470  0.3034 -0.5295  0.1862
  140SAPE  H19S15295   5.874   3.337   9.398 -2.5640 -0.0081  1.6177
  140SAPE  C22015296   5.867   3.134   9.409 -0.1583  0.0841 -0.6158
  140SAPE  H20R15297   5.757   3.125   9.427  0.0916 -1.8628  0.1753
  140SAPE  H20S15298   5.921   3.047   9.452  0.0062  0.4425 -0.0806
  140SAPE  H20T15299   5.876   3.125   9.299  0.6911 -1.9303 -0.4152
  140SAPE   C3315300   6.411   1.930   9.849 -0.6280  0.6408 -0.6948
  140SAPE   H3X15301   6.396   1.830   9.895  1.7845 -0.5977 -2.3551
  140SAPE   H3Y15302   6.516   1.962   9.867 -1.6434  4.0872 -0.2971
  140SAPE   C3415303   6.376   1.927   9.698 -0.5715 -0.0373 -0.1942
  140SAPE   H4X15304   6.271   1.896   9.682 -0.3392 -1.6764  1.1137
  140SAPE   H4Y15305   6.443   1.851   9.653  1.1348  1.2337  0.0551
  140SAPE   C3515306   6.391   2.064   9.632 -0.1216 -0.1246  0.0219
  140SAPE   H5X15307   6.490   2.108   9.658 -0.0088 -1.0337  1.1784
  140SAPE   H5Y15308   6.313   2.131   9.673 -1.2891  0.0116 -2.2320
  140SAPE   C3615309   6.369   2.060   9.481 -0.4459  0.4330  0.4275
  140SAPE   H6X15310   6.385   2.159   9.432 -0.8938  1.1460  1.6897
  140SAPE   H6Y15311   6.261   2.038   9.465 -0.2021  0.4003 -1.3982
  140SAPE   C3715312   6.473   1.959   9.410 -0.1075 -0.1401 -0.8024
  140SAPE   H7X15313   6.455   1.855   9.446  0.6856  0.2842  0.9251
  140SAPE   H7Y15314   6.576   1.992   9.436  0.4335 -0.3561 -2.5481
  140SAPE   C3815315   6.453   1.957   9.260  0.4899 -0.1180  0.2839
  140SAPE   H8X15316   6.344   1.936   9.248  0.4695 -0.0134  0.2798
  140SAPE   H8Y15317   6.515   1.881   9.209 -0.4805  0.2169 -1.5045
  140SAPE   C3915318   6.479   2.093   9.183 -0.3875 -1.1055 -0.3045
  140SAPE   H9X15319   6.585   2.110   9.211 -0.5027  0.4231 -0.7418
  140SAPE   H9Y15320   6.422   2.181   9.220  0.4099 -1.7320  2.7554
  140SAPE  C31015321   6.473   2.073   9.026  1.0303 -0.4273 -0.5503
  140SAPE  H10X15322   6.374   2.035   8.990  0.1883 -0.8053  1.9408
  140SAPE  H10Y15323   6.558   2.003   9.015  0.7828 -0.8969  0.4416
  140SAPE  C31115324   6.508   2.201   8.955  0.6219  0.3024 -0.7656
  140SAPE  H11X15325   6.577   2.268   9.011  1.2443 -0.0354 -1.1104
  140SAPE  H11Y15326   6.417   2.264   8.948 -0.7328 -1.1817  2.0596
  140SAPE  C31215327   6.563   2.173   8.814 -0.1409 -0.1462 -0.1476
  140SAPE  H12X15328   6.511   2.093   8.758  2.3507  0.8661 -4.3047
  140SAPE  H12Y15329   6.668   2.141   8.828 -0.0663 -0.4970 -1.3967
  140SAPE  C31315330   6.547   2.293   8.724 -0.8625 -0.1191  0.2943
  140SAPE  H13X15331   6.587   2.384   8.774  0.3316 -0.0478 -0.7259
  140SAPE  H13Y15332   6.440   2.321   8.711 -1.7763 -2.9492  1.0309
  140SAPE  C31415333   6.612   2.284   8.582  0.2079  0.2175  0.4585
  140SAPE  H14X15334   6.557   2.364   8.528  0.2039  0.5084  0.8809
  140SAPE  H14Y15335   6.591   2.187   8.532  2.9964  0.8594 -2.2622
  140SAPE  C31515336   6.757   2.320   8.579 -0.9106 -0.5690 -0.5759
  140SAPE  H15X15337   6.803   2.250   8.651  3.7674  1.8474 -0.7935
  140SAPE  H15Y15338   6.767   2.422   8.622  1.3918 -1.3005  0.8039
  140SAPE  C31615339   6.832   2.295   8.441  0.7635  0.4045 -0.4582
  140SAPE  H16X15340   6.791   2.203   8.395  1.6583  0.9722 -2.5128
  140SAPE  H16Y15341   6.941   2.282   8.455  0.8837  0.8270 -0.9530
  140SAPE  C31715342   6.813   2.408   8.336 -0.8610  0.1031 -0.7467
  140SAPE  H17X15343   6.871   2.498   8.364 -0.5693 -0.3874  0.2835
  140SAPE  H17Y15344   6.705   2.435   8.327 -1.7849 -3.3737 -1.7029
  140SAPE  C31815345   6.864   2.352   8.205  0.2894 -0.1688  0.2537
  140SAPE  H18X15346   6.799   2.270   8.168 -0.6309  1.3770 -1.7155
  140SAPE  H18Y15347   6.967   2.311   8.198  0.1500 -0.4231 -0.3913
  140SAPE  H18Z15348   6.857   2.439   8.137  1.9411  1.2037  1.7274
  141SAPE     N15349   1.798   5.952  10.778  0.1887  0.2312 -0.0330
  141SAPE   HN115350   1.725   5.966  10.852 -0.9392 -2.7884 -0.4433
  141SAPE   HN215351   1.893   5.973  10.815  0.2945  0.8156 -0.6107
  141SAPE   HN315352   1.788   6.025  10.704  0.5024 -0.9038 -1.2192
  141SAPE   C1215353   1.785   5.817  10.708  0.3817  0.2629  0.5112
  141SAPE  H12A15354   1.680   5.807  10.672  0.9903 -1.7455 -0.8456
  141SAPE  H12B15355   1.805   5.737  10.782  0.7521  0.2433  0.3899
  141SAPE   C1115356   1.872   5.803  10.589 -0.0612 -0.4588 -0.1212
  141SAPE  H11A15357   1.864   5.891  10.522  1.6809 -0.7184 -0.7313
  141SAPE  H11B15358   1.849   5.719  10.521  0.4586  1.5445 -2.9255
  141SAPE     P15359   2.088   5.664  10.649 -0.2783 -0.1792  0.0255
  141SAPE   O1315360   2.204   5.685  10.729  0.0826 -0.3837 -0.5090
  141SAPE   O1415361   1.986   5.574  10.704 -0.2953  0.4327  0.4019
  141SAPE   O1215362   2.010   5.795  10.637 -0.3887 -0.5675 -0.1574
  141SAPE   O1115363   2.126   5.637  10.496  0.0099 -0.4292 -0.1538
  141SAPE    C115364   2.221   5.721  10.426  0.5067 -0.0947 -0.2247
  141SAPE    HA15365   2.201   5.718  10.316 -0.9313  1.0711 -0.0373
  141SAPE    HB15366   2.219   5.829  10.449  0.7059 -0.3658  1.1153
  141SAPE    C215367   2.369   5.676  10.444  0.4130  0.5072 -0.9825
  141SAPE    HS15368   2.402   5.704  10.546 -0.8723  1.2695 -0.7622
  141SAPE   O2115369   2.456   5.724  10.340 -0.4255 -0.2479  0.8245
  141SAPE   C2115370   2.473   5.857  10.343  0.0110  1.7179  0.0987
  141SAPE   O2215371   2.446   5.914  10.447  0.2839  0.1092  0.0611
  141SAPE   C2215372   2.521   5.921  10.217 -0.3394  0.3387 -0.0849
  141SAPE   H2R15373   2.501   6.030  10.228 -0.2816  0.5614 -1.8403
  141SAPE   H2S15374   2.630   5.901  10.231 -0.4737  1.0253  2.5335
  141SAPE    C315375   2.372   5.519  10.430  0.5011  0.4326  0.2591
  141SAPE    HX15376   2.316   5.473  10.514  0.4011  0.1819  0.0563
  141SAPE    HY15377   2.478   5.489  10.446  0.4625 -1.2579 -2.1006
  141SAPE   O3115378   2.322   5.480  10.297 -0.0542 -0.2025 -0.0700
  141SAPE   C3115379   2.410   5.431  10.211 -0.2901 -0.1146 -0.2059
  141SAPE   O3215380   2.527   5.405  10.234  0.1988  0.2636  0.1779
  141SAPE   C3215381   2.341   5.390  10.084  0.2239  0.3334 -0.1919
  141SAPE   H2X15382   2.244   5.442  10.073 -0.5454 -0.9123  0.4530
  141SAPE   H2Y15383   2.323   5.281  10.075  1.2595  0.3052 -2.8072
  141SAPE   C2315384   2.476   5.857  10.083 -0.7217  0.8075 -0.1856
  141SAPE   H3R15385   2.507   5.751  10.091  0.2476  1.0222 -0.9330
  141SAPE   H3S15386   2.547   5.885  10.002  2.1467 -0.5936  1.6875
  141SAPE   C2415387   2.330   5.894  10.053  0.0495  0.6541  0.2436
  141SAPE   H4R15388   2.314   6.003  10.035 -0.0939  0.7914  1.1321
  141SAPE   H4S15389   2.276   5.890  10.150 -0.9537  0.2337 -0.3175
  141SAPE   C2515390   2.280   5.797   9.954  0.3255 -0.7448  0.6972
  141SAPE   H5R15391   2.300   5.690   9.973  0.0666 -1.3233 -1.8643
  141SAPE   C2615392   2.224   5.820   9.833  0.2825  0.5280 -0.5532
  141SAPE   H6R15393   2.156   5.737   9.806 -0.2006 -0.4115  3.0666
  141SAPE   C2715394   2.185   5.962   9.781 -0.4224 -0.8032  0.6518
  141SAPE   H7R15395   2.143   6.027   9.861  1.7570  0.9009  0.4823
  141SAPE   H7S15396   2.118   5.962   9.693  3.3361 -0.3625 -2.4674
  141SAPE   C2815397   2.306   6.036   9.728 -0.3670  0.4069  0.7028
  141SAPE   H8R15398   2.380   6.044   9.808 -1.2517  0.7133  1.5109
  141SAPE   C2915399   2.338   6.070   9.596  0.3000 -0.4054 -0.7982
  141SAPE   H9R15400   2.430   6.123   9.567 -1.7827  2.5916 -2.5761
  141SAPE  C21015401   2.256   6.049   9.476  0.1888 -0.4421 -0.0776
  141SAPE  H10R15402   2.151   6.080   9.498  0.8301  1.3200  0.6531
  141SAPE  H10S15403   2.254   5.940   9.455  1.4662 -1.0217  2.4201
  141SAPE  C21115404   2.313   6.133   9.359  0.0944  0.6239  0.0903
  141SAPE  H11R15405   2.363   6.075   9.280 -0.7192 -0.0585  0.0540
  141SAPE  C21215406   2.316   6.269   9.354  0.0416 -0.1891 -0.4778
  141SAPE  H12R15407   2.359   6.311   9.262 -0.2328  0.4384 -0.3285
  141SAPE  C21315408   2.260   6.377   9.448 -0.2865 -0.3847  0.0063
  141SAPE  H13R15409   2.334   6.428   9.513 -1.8967  0.9288  0.8824
  141SAPE  H13S15410   2.186   6.325   9.512  0.3609 -1.9874 -0.4853
  141SAPE  C21415411   2.187   6.488   9.375  0.2709 -0.2121 -0.3074
  141SAPE  H14R15412   2.181   6.485   9.265 -0.9221 -1.9675 -0.2439
  141SAPE  C21515413   2.123   6.588   9.437 -0.0935  0.0901  0.4225
  141SAPE  H15R15414   2.049   6.654   9.389  0.4388  0.7561  0.4892
  141SAPE  C21615415   2.130   6.604   9.584 -0.5040  0.5323  0.7005
  141SAPE  H16R15416   2.234   6.595   9.621 -0.0588 -0.5197 -0.7365
  141SAPE  H16S15417   2.073   6.519   9.630 -1.9443  0.3670 -1.2568
  141SAPE  C21715418   2.070   6.729   9.642  0.1279 -0.1145  0.7091
  141SAPE  H17R15419   1.973   6.751   9.590  0.3625  1.1179  0.7611
  141SAPE  H17S15420   2.134   6.815   9.612 -0.3810 -0.4498 -1.5944
  141SAPE  C21815421   2.064   6.712   9.792  1.2768 -0.1445  0.4611
  141SAPE  H18R15422   2.165   6.697   9.836  2.3097  1.4902 -1.1824
  141SAPE  H18S15423   2.014   6.615   9.810  1.7829 -0.4500  0.2620
  141SAPE  C21915424   1.995   6.833   9.853  0.3183 -0.0256  0.2308
  141SAPE  H19R15425   1.895   6.840   9.806 -0.0288  2.5344  1.2037
  141SAPE  H19S15426   2.049   6.928   9.836 -2.7731  2.0337  1.0974
  141SAPE  C22015427   1.986   6.832  10.007 -0.2350 -0.2295 -0.5206
  141SAPE  H20R15428   1.912   6.911  10.029 -1.0603 -0.8624 -0.9586
  141SAPE  H20S15429   2.081   6.837  10.064  0.0171 -0.6103 -0.8977
  141SAPE  H20T15430   1.927   6.745  10.041 -0.7448  0.3520  0.1047
  141SAPE   C3315431   2.433   5.433   9.967  1.0682  0.6038 -0.4908
  141SAPE   H3X15432   2.528   5.376   9.969  0.0270 -1.1843  0.2539
  141SAPE   H3Y15433   2.460   5.540   9.980 -1.4031  1.0593  1.8635
  141SAPE   C3415434   2.357   5.418   9.831  0.2406 -0.2696  0.0384
  141SAPE   H4X15435   2.253   5.456   9.843  0.1781 -0.3243 -0.3286
  141SAPE   H4Y15436   2.347   5.312   9.799 -2.2496 -0.3624  0.8422
  141SAPE   C3515437   2.434   5.494   9.721 -0.5027 -0.3220  0.2009
  141SAPE   H5X15438   2.537   5.453   9.721  0.1463  1.2405  0.5074
  141SAPE   H5Y15439   2.442   5.602   9.744  2.1806 -0.3073 -0.5540
  141SAPE   C3615440   2.363   5.484   9.585  0.8776 -0.8110  0.1766
  141SAPE   H6X15441   2.273   5.548   9.593 -0.2049 -2.2769  0.3303
  141SAPE   H6Y15442   2.340   5.378   9.562 -0.5110 -0.1988 -1.4052
  141SAPE   C3715443   2.441   5.531   9.465  0.2317  0.7616 -0.1793
  141SAPE   H7X15444   2.391   5.503   9.370  0.3804 -1.3175  0.2960
  141SAPE   H7Y15445   2.543   5.488   9.465 -0.0019  0.1236 -1.6869
  141SAPE   C3815446   2.441   5.686   9.458  0.1670  0.4528 -0.2796
  141SAPE   H8X15447   2.476   5.719   9.558  0.1030  0.9032 -0.4055
  141SAPE   H8Y15448   2.346   5.740   9.434  0.4415 -0.3674 -3.8131
  141SAPE   C3915449   2.530   5.729   9.340  0.1928  0.1034 -0.3666
  141SAPE   H9X15450   2.508   5.838   9.334  2.0881  0.5102 -0.3044
  141SAPE   H9Y15451   2.499   5.680   9.245  1.4218 -4.1056  1.1692
  141SAPE  C31015452   2.677   5.702   9.349 -0.3577 -0.7040  0.4686
  141SAPE  H10X15453   2.703   5.599   9.379  0.7365 -0.6263 -0.1769
  141SAPE  H10Y15454   2.707   5.768   9.434  2.5999 -0.6852 -0.5053
  141SAPE  C31115455   2.757   5.727   9.223  0.4033  0.4425 -0.3954
  141SAPE  H11X15456   2.727   5.820   9.170 -0.4128 -0.5317 -1.7244
  141SAPE  H11Y15457   2.735   5.639   9.159  0.3707 -0.8552  1.3426
  141SAPE  C31215458   2.912   5.716   9.250 -0.2041  0.1828  0.4076
  141SAPE  H12X15459   2.938   5.617   9.294  0.7681  0.6663  0.9348
  141SAPE  H12Y15460   2.942   5.791   9.326  1.3665 -0.8374  0.8317
  141SAPE  C31315461   2.984   5.747   9.118 -0.1213  0.7148  0.0715
  141SAPE  H13X15462   3.093   5.736   9.136  0.1571 -1.7010 -2.4116
  141SAPE  H13Y15463   2.966   5.853   9.092 -1.7833  0.5061  0.2169
  141SAPE  C31415464   2.930   5.652   8.999  0.3623  0.2482  0.0777
  141SAPE  H14X15465   2.824   5.658   8.968 -0.4528 -0.2302  2.5263
  141SAPE  H14Y15466   2.956   5.545   9.017 -1.1661 -0.1966 -0.2336
  141SAPE  C31515467   3.001   5.699   8.868 -0.6258  0.0479 -0.1884
  141SAPE  H15X15468   3.105   5.733   8.890 -0.4441 -1.1794  1.0073
  141SAPE  H15Y15469   2.939   5.787   8.840 -0.6783  0.3223  0.7324
  141SAPE  C31615470   2.994   5.585   8.764  0.6111  0.5349  0.3500
  141SAPE  H16X15471   2.894   5.543   8.741  1.7609 -0.2658 -4.2517
  141SAPE  H16Y15472   3.063   5.506   8.799  0.1921  0.7860  1.8354
  141SAPE  C31715473   3.054   5.628   8.630 -0.1305  0.0994  0.7719
  141SAPE  H17X15474   3.159   5.652   8.657  0.1076  0.8143 -0.7000
  141SAPE  H17Y15475   3.018   5.724   8.589  2.0707  0.1260 -1.2953
  141SAPE  C31815476   3.058   5.522   8.521 -0.4151  0.5080 -0.1854
  141SAPE  H18X15477   2.958   5.485   8.492 -0.8536 -0.0835  1.9011
  141SAPE  H18Y15478   3.104   5.428   8.559 -1.6139 -0.1713 -0.3713
  141SAPE  H18Z15479   3.126   5.556   8.440 -1.1772  0.3614 -0.8977
  142SAPE     N15480   5.136   5.017  10.992  0.3858 -0.0260  0.2977
  142SAPE   HN115481   5.236   5.045  10.984  0.1931  0.3444 -1.0137
  142SAPE   HN215482   5.086   5.105  11.017  1.5443  1.4082 -2.0576
  142SAPE   HN315483   5.115   4.937  11.055  1.3557 -1.0529 -0.6375
  142SAPE   C1215484   5.079   4.972  10.857 -0.2878  0.3162 -0.5985
  142SAPE  H12A15485   5.103   5.058  10.791 -0.6164  2.1158  1.5344
  142SAPE  H12B15486   4.971   4.957  10.875 -0.1078  1.0854  1.3796
  142SAPE   C1115487   5.159   4.849  10.801 -0.0660 -0.8310 -0.2343
  142SAPE  H11A15488   5.265   4.879  10.813 -0.8321  2.0465  0.0459
  142SAPE  H11B15489   5.136   4.840  10.693  1.7966  1.4603 -0.9050
  142SAPE     P15490   5.210   4.607  10.880 -0.1756  0.4490 -0.1981
  142SAPE   O1315491   5.320   4.621  10.977 -0.5392 -0.2167  1.1989
  142SAPE   O1415492   5.121   4.492  10.905  0.3148  0.1243 -0.4535
  142SAPE   O1215493   5.117   4.736  10.860  0.1135  0.3828  0.1882
  142SAPE   O1115494   5.288   4.591  10.742  0.1430 -0.3248 -0.4298
  142SAPE    C115495   5.213   4.565  10.626  0.2242  0.0812 -0.2728
  142SAPE    HA15496   5.166   4.465  10.641  2.3933 -0.8314  0.8074
  142SAPE    HB15497   5.136   4.641  10.600 -1.4166 -1.3941  0.0235
  142SAPE    C215498   5.313   4.555  10.510  0.2406  0.2343  0.9263
  142SAPE    HS15499   5.368   4.651  10.511 -0.6274  0.7753 -0.5615
  142SAPE   O2115500   5.250   4.518  10.388  0.3330  0.1518 -0.5368
  142SAPE   C2115501   5.241   4.616  10.303  0.0169 -0.6583 -0.5522
  142SAPE   O2215502   5.249   4.739  10.322  0.5403  0.1523 -0.1239
  142SAPE   C2215503   5.207   4.552  10.167  0.4924  0.6349 -0.6818
  142SAPE   H2R15504   5.254   4.452  10.159  0.7943  0.7961 -0.9832
  142SAPE   H2S15505   5.097   4.538  10.170  0.8097 -2.5305 -0.8600
  142SAPE    C315506   5.419   4.438  10.539 -0.5128 -0.0085 -0.2170
  142SAPE    HX15507   5.356   4.349  10.560 -0.1446  0.3976  3.1805
  142SAPE    HY15508   5.470   4.463  10.635 -0.8419 -0.3596  0.0557
  142SAPE   O3115509   5.515   4.410  10.436 -0.0173  0.0300  0.2755
  142SAPE   C3115510   5.611   4.513  10.421  0.1649  0.4089  0.2296
  142SAPE   O3215511   5.600   4.613  10.486 -0.3840 -0.1084  0.1307
  142SAPE   C3215512   5.719   4.468  10.317  0.5012 -0.0523  0.1858
  142SAPE   H2X15513   5.719   4.359  10.294 -1.1642  0.3642 -2.1816
  142SAPE   H2Y15514   5.809   4.484  10.379 -0.8054 -1.8910  2.7155
  142SAPE   C2315515   5.254   4.641  10.049 -0.0112 -0.8347  0.0999
  142SAPE   H3R15516   5.362   4.662  10.036 -0.4992  2.2483  0.2332
  142SAPE   H3S15517   5.207   4.740  10.069  2.0121 -0.0637  1.2894
  142SAPE   C2415518   5.204   4.593   9.913 -0.6732 -0.2685  0.2658
  142SAPE   H4R15519   5.227   4.674   9.841 -1.7263 -0.0738  0.1354
  142SAPE   H4S15520   5.095   4.571   9.919 -1.0732  1.1029 -1.2427
  142SAPE   C2515521   5.271   4.463   9.860  0.0530 -0.3241 -0.3764
  142SAPE   H5R15522   5.255   4.377   9.926  0.4838  0.2710  0.5193
  142SAPE   C2615523   5.360   4.450   9.759 -0.5528 -0.0450  0.8150
  142SAPE   H6R15524   5.394   4.351   9.725  0.0263  0.4311 -0.0303
  142SAPE   C2715525   5.406   4.566   9.672 -0.5657  0.8733 -0.1084
  142SAPE   H7R15526   5.393   4.656   9.736 -0.5438  1.2976 -0.6992
  142SAPE   H7S15527   5.335   4.568   9.587  0.1982  0.5646 -0.7621
  142SAPE   C2815528   5.551   4.565   9.632 -0.2162  0.2748  0.2546
  142SAPE   H8R15529   5.631   4.539   9.703  1.6904  1.5578 -1.2890
  142SAPE   C2915530   5.593   4.607   9.512  0.3777 -0.3460 -0.3309
  142SAPE   H9R15531   5.700   4.597   9.488  0.2847 -3.4685  0.0778
  142SAPE  C21015532   5.496   4.650   9.399 -0.3354  0.4938  0.4679
  142SAPE  H10R15533   5.556   4.737   9.363  0.4362 -0.7297 -1.3623
  142SAPE  H10S15534   5.401   4.689   9.443 -0.7874  1.1863 -1.0393
  142SAPE  C21115535   5.481   4.532   9.306  0.2289 -0.6131  0.5310
  142SAPE  H11R15536   5.460   4.436   9.354  1.0936 -1.1955 -0.2229
  142SAPE  C21215537   5.503   4.533   9.172  0.0029 -0.1153 -1.1096
  142SAPE  H12R15538   5.498   4.436   9.121  2.1888 -1.1611  0.4698
  142SAPE  C21315539   5.553   4.644   9.080  0.4880  0.1278  0.4300
  142SAPE  H13R15540   5.524   4.745   9.117  1.5870  1.2669 -1.6050
  142SAPE  H13S15541   5.504   4.634   8.980  1.5482 -2.2102  0.0742
  142SAPE  C21415542   5.707   4.649   9.066 -0.1620 -1.2435  0.1320
  142SAPE  H14R15543   5.764   4.621   9.156  1.3168  1.0712 -0.0020
  142SAPE  C21515544   5.780   4.697   8.964 -0.0771  0.3915  0.8635
  142SAPE  H15R15545   5.888   4.689   8.983 -0.1138 -0.4711  0.7562
  142SAPE  C21615546   5.714   4.753   8.840 -0.4265 -1.6663  0.3392
  142SAPE  H16R15547   5.774   4.842   8.810 -0.4615 -1.9951 -0.7592
  142SAPE  H16S15548   5.607   4.773   8.857 -0.6390 -0.5570 -1.8844
  142SAPE  C21715549   5.718   4.660   8.719 -0.2033 -0.3643  0.1670
  142SAPE  H17R15550   5.654   4.575   8.751 -0.5095  0.1733  1.0158
  142SAPE  H17S15551   5.825   4.642   8.697  0.0402  0.7065  0.4224
  142SAPE  C21815552   5.657   4.735   8.599 -0.2299  0.8379  0.2950
  142SAPE  H18R15553   5.664   4.844   8.618  1.6478  1.0155 -1.1061
  142SAPE  H18S15554   5.551   4.701   8.590  0.6697 -3.2632  2.4130
  142SAPE  C21915555   5.717   4.696   8.462 -0.5326 -0.1016  0.4433
  142SAPE  H19R15556   5.715   4.587   8.445  4.2333  0.0125 -2.8778
  142SAPE  H19S15557   5.823   4.730   8.458  0.3587 -2.5905  0.9647
  142SAPE  C22015558   5.646   4.763   8.339 -1.0477 -1.3417  0.0887
  142SAPE  H20R15559   5.674   4.870   8.341  2.6195 -2.1503  0.2527
  142SAPE  H20S15560   5.537   4.751   8.355 -1.0524 -0.0514  1.1817
  142SAPE  H20T15561   5.694   4.711   8.253 -0.2594  1.0580 -0.9858
  142SAPE   C3315562   5.726   4.551  10.193  0.4189  0.3985 -0.5367
  142SAPE   H3X15563   5.726   4.659  10.216 -0.9348  0.2689  0.1616
  142SAPE   H3Y15564   5.640   4.532  10.125 -0.1760  1.4532 -0.0871
  142SAPE   C3415565   5.838   4.504  10.096  0.0939 -0.2303 -0.1708
  142SAPE   H4X15566   5.831   4.393  10.095  2.0542 -0.3787  0.1738
  142SAPE   H4Y15567   5.939   4.518  10.139 -1.4609  1.1837  3.4239
  142SAPE   C3515568   5.837   4.561   9.958  0.6804  0.0689 -0.1923
  142SAPE   H5X15569   5.852   4.671   9.966 -0.9754  0.3447 -0.4771
  142SAPE   H5Y15570   5.742   4.546   9.903  0.2956  1.2255  0.1367
  142SAPE   C3615571   5.954   4.519   9.862  0.7344 -0.0204 -0.4884
  142SAPE   H6X15572   5.982   4.413   9.881  4.2515  0.4266 -2.3703
  142SAPE   H6Y15573   6.048   4.577   9.871  1.0574 -0.8670  3.3332
  142SAPE   C3715574   5.918   4.546   9.717  0.4233  0.0435 -0.0843
  142SAPE   H7X15575   5.944   4.648   9.684  2.0311 -0.5660 -0.8075
  142SAPE   H7Y15576   5.813   4.523   9.686 -0.9557  3.3293  1.6384
  142SAPE   C3815577   6.007   4.466   9.616 -0.0955  0.2617  0.4198
  142SAPE   H8X15578   5.961   4.366   9.624  0.5646  0.0895  2.7594
  142SAPE   H8Y15579   6.109   4.463   9.660 -0.5501 -0.1543  1.4760
  142SAPE   C3915580   6.007   4.524   9.468 -0.6616  0.1867  0.0147
  142SAPE   H9X15581   6.056   4.623   9.457  0.1195 -0.3965 -2.1693
  142SAPE   H9Y15582   5.905   4.541   9.428 -1.0520 -0.2608  0.8067
  142SAPE  C31015583   6.079   4.412   9.385  0.4748  0.1179 -0.3089
  142SAPE  H10X15584   6.023   4.320   9.411  1.0976  0.0423  0.7834
  142SAPE  H10Y15585   6.183   4.408   9.423  0.3934  0.1558 -0.0774
  142SAPE  C31115586   6.073   4.440   9.235  0.3151  0.5832  0.1979
  142SAPE  H11X15587   6.090   4.547   9.213  2.2392  0.0170 -1.4392
  142SAPE  H11Y15588   5.973   4.413   9.195  0.9863 -0.2404 -1.0150
  142SAPE  C31215589   6.182   4.355   9.158  0.0257  0.3808 -0.5693
  142SAPE  H12X15590   6.171   4.247   9.182  0.7408  0.5023  0.3708
  142SAPE  H12Y15591   6.287   4.366   9.191 -0.1381 -1.2138  0.6009
  142SAPE  C31315592   6.171   4.366   9.006 -0.1274 -0.8241  0.3299
  142SAPE  H13X15593   6.068   4.331   8.983 -0.6255  1.0447 -0.4514
  142SAPE  H13Y15594   6.248   4.295   8.968  0.0899 -0.0128 -0.7943
  142SAPE  C31415595   6.189   4.511   8.943  0.3073  0.1623 -0.2749
  142SAPE  H14X15596   6.257   4.581   8.996  0.6871  0.3456 -0.9807
  142SAPE  H14Y15597   6.097   4.573   8.954  0.1800 -0.2977  1.4181
  142SAPE  C31515598   6.237   4.505   8.794  0.3205 -0.4521 -0.2722
  142SAPE  H15X15599   6.339   4.463   8.778 -0.9168 -4.3854  0.9792
  142SAPE  H15Y15600   6.238   4.608   8.752  0.7676  0.0860  0.9932
  142SAPE  C31615601   6.137   4.424   8.704  0.3368 -0.5042 -0.0834
  142SAPE  H16X15602   6.032   4.458   8.714  0.3283 -0.4459 -0.3633
  142SAPE  H16Y15603   6.148   4.319   8.738  0.3175 -1.4860 -2.8497
  142SAPE  C31715604   6.159   4.435   8.555  0.0428 -0.4657  0.0961
  142SAPE  H17X15605   6.103   4.347   8.518 -0.1468 -0.7219  0.9808
  142SAPE  H17Y15606   6.266   4.422   8.525 -0.0239  1.9888 -1.5303
  142SAPE  C31815607   6.103   4.574   8.512 -0.3519 -0.1873  0.5469
  142SAPE  H18X15608   6.149   4.667   8.551  1.3099 -0.2985 -1.0119
  142SAPE  H18Y15609   5.996   4.585   8.540 -0.9130 -0.6764 -1.2678
  142SAPE  H18Z15610   6.114   4.593   8.403 -0.9941  0.0580  0.5219
  143SAPE     N15611   6.182   0.846  10.661 -0.7166 -0.7152 -0.2685
  143SAPE   HN115612   6.271   0.795  10.670 -0.2315  0.2983  1.1170
  143SAPE   HN215613   6.208   0.947  10.671  0.3836 -0.5504 -3.6316
  143SAPE   HN315614   6.111   0.819  10.732  0.5920  1.3817  1.9734
  143SAPE   C1215615   6.116   0.824  10.528 -0.0362 -0.8582 -0.0706
  143SAPE  H12A15616   6.091   0.717  10.516 -0.1514 -0.8004 -0.3699
  143SAPE  H12B15617   6.188   0.861  10.452 -3.1227  0.6634 -2.4814
  143SAPE   C1115618   5.985   0.899  10.519  0.1203  0.0517  0.2301
  143SAPE  H11A15619   5.952   0.881  10.414  0.9749  1.1180 -0.2425
  143SAPE  H11B15620   5.987   1.010  10.520 -1.0095  0.1002  2.1427
  143SAPE     P15621   5.732   0.857  10.603  0.0077 -0.3616 -0.3483
  143SAPE   O1315622   5.666   0.755  10.691  0.1195 -0.6893 -0.1228
  143SAPE   O1415623   5.687   0.996  10.617 -0.6564  0.1798 -0.0960
  143SAPE   O1215624   5.891   0.851  10.619  0.4227 -0.7519 -0.3172
  143SAPE   O1115625   5.706   0.813  10.457  0.3448 -0.3568 -0.2618
  143SAPE    C115626   5.667   0.680  10.428  0.2292  0.0613  0.0241
  143SAPE    HA15627   5.724   0.599  10.479 -1.9587 -2.0554 -0.6807
  143SAPE    HB15628   5.561   0.668  10.459  0.1705 -1.7933 -0.7419
  143SAPE    C215629   5.673   0.661  10.268 -0.0791  0.3279 -0.5809
  143SAPE    HS15630   5.590   0.596  10.235  0.8368 -1.0077 -0.3524
  143SAPE   O2115631   5.796   0.597  10.241  0.0324 -0.4731 -0.5387
  143SAPE   C2115632   5.795   0.461  10.265  0.7288 -0.2397 -0.8747
  143SAPE   O2215633   5.701   0.394  10.298  0.0597  0.3212 -0.7927
  143SAPE   C2215634   5.928   0.420  10.249  0.2541  0.4185  0.2936
  143SAPE   H2R15635   5.958   0.447  10.145  1.2799  0.4063  0.5816
  143SAPE   H2S15636   5.989   0.475  10.323 -1.1875 -0.0211  1.8863
  143SAPE    C315637   5.658   0.790  10.185 -0.3542  0.5971 -0.2823
  143SAPE    HX15638   5.753   0.846  10.194 -1.1495  1.8331  1.0386
  143SAPE    HY15639   5.583   0.850  10.242  0.4983  0.9538  0.4824
  143SAPE   O3115640   5.632   0.757  10.050  0.6535 -0.0665  0.4857
  143SAPE   C3115641   5.509   0.708  10.022 -0.1399  0.0705  0.0496
  143SAPE   O3215642   5.421   0.704  10.110  0.5636  0.0304  0.9746
  143SAPE   C3215643   5.492   0.664   9.877  0.4813  0.0949 -0.6807
  143SAPE   H2X15644   5.568   0.588   9.849 -0.2201 -0.7965 -0.2042
  143SAPE   H2Y15645   5.525   0.754   9.820 -0.5293  1.9530  1.4919
  143SAPE   C2315646   5.954   0.269  10.258 -0.9742 -0.5649  0.2857
  143SAPE   H3R15647   5.887   0.215  10.187 -0.1561 -2.0229  0.5890
  143SAPE   H3S15648   5.930   0.225  10.357 -1.4081 -0.9649  0.0106
  143SAPE   C2415649   6.096   0.237  10.220 -0.1354  0.0274  0.1147
  143SAPE   H4R15650   6.161   0.301  10.283  1.1146  1.8173 -2.8086
  143SAPE   H4S15651   6.115   0.259  10.113  1.7327 -0.2662  0.3424
  143SAPE   C2515652   6.129   0.088  10.253 -0.6204 -1.2179  0.0682
  143SAPE   H5R15653   6.079   0.053  10.345 -0.3196 -0.0768  0.6946
  143SAPE   C2615654   6.211   0.006  10.180 -0.1312 -0.7055  0.0405
  143SAPE   H6R15655   6.226  -0.100  10.207  0.4362 -0.4962  0.5622
  143SAPE   C2715656   6.274   0.043  10.047 -0.1855 -0.1434  0.1318
  143SAPE   H7R15657   6.265   0.151  10.020  0.2609 -0.0169  0.4674
  143SAPE   H7S15658   6.223  -0.011   9.965 -0.9918 -1.2121  1.3082
  143SAPE   C2815659   6.413  -0.006  10.033 -0.2822 -0.3181  0.3172
  143SAPE   H8R15660   6.466  -0.010  10.130 -2.6316 -0.8706  1.6761
  143SAPE   C2915661   6.477  -0.057   9.930  0.7565 -0.7590  0.3556
  143SAPE   H9R15662   6.580  -0.095   9.939  1.2575  0.0883 -1.3868
  143SAPE  C21015663   6.414  -0.087   9.795 -0.3277  0.2083  0.0268
  143SAPE  H10R15664   6.478  -0.058   9.710 -1.5553  0.4656 -0.8349
  143SAPE  H10S15665   6.327  -0.020   9.781  0.4946  1.4814  0.8197
  143SAPE  C21115666   6.373  -0.230   9.782 -0.6362 -0.2069 -0.9475
  143SAPE  H11R15667   6.324  -0.275   9.870  1.8876  0.6406  1.0217
  143SAPE  C21215668   6.393  -0.318   9.683  0.1575  0.9617  0.4325
  143SAPE  H12R15669   6.358  -0.422   9.682 -1.8143  1.5961  0.3657
  143SAPE  C21315670   6.472  -0.285   9.559  0.7403 -0.4690  0.3481
  143SAPE  H13R15671   6.561  -0.220   9.575 -1.1454  2.8414 -1.6956
  143SAPE  H13S15672   6.400  -0.226   9.499  0.6844 -1.7412 -0.9020
  143SAPE  C21415673   6.512  -0.409   9.487  0.5733  0.1614  0.1028
  143SAPE  H14R15674   6.500  -0.500   9.548 -0.7068  0.6688  0.6250
  143SAPE  C21515675   6.555  -0.431   9.360 -0.1793 -1.0595  0.1126
  143SAPE  H15R15676   6.575  -0.535   9.332 -0.8789 -0.6241 -2.2051
  143SAPE  C21615677   6.596  -0.316   9.264  0.1897 -0.1990  0.1524
  143SAPE  H16R15678   6.663  -0.351   9.183  0.3126  0.6852 -0.1465
  143SAPE  H16S15679   6.632  -0.224   9.315  1.7925 -0.5451 -0.3192
  143SAPE  C21715680   6.468  -0.295   9.178 -0.3413  0.1114 -0.4334
  143SAPE  H17R15681   6.396  -0.255   9.253  0.3679 -0.6145  0.6652
  143SAPE  H17S15682   6.434  -0.390   9.133  0.8900  0.5109 -2.3054
  143SAPE  C21815683   6.492  -0.188   9.069  0.1044 -0.2202  0.3411
  143SAPE  H18R15684   6.540  -0.093   9.104 -2.5864  0.8344  1.4843
  143SAPE  H18S15685   6.394  -0.152   9.031  1.7593  4.2558 -0.3600
  143SAPE  C21915686   6.551  -0.242   8.939  0.3732  0.5465  0.3774
  143SAPE  H19R15687   6.491  -0.335   8.930  0.7099  0.4708 -1.3296
  143SAPE  H19S15688   6.654  -0.280   8.959  0.7513 -0.2341 -2.6429
  143SAPE  C22015689   6.526  -0.150   8.822  0.0280 -0.1639  0.0698
  143SAPE  H20R15690   6.568  -0.048   8.834 -1.9640  0.6016  1.0460
  143SAPE  H20S15691   6.417  -0.142   8.799 -0.3039  0.9410  1.8114
  143SAPE  H20T15692   6.580  -0.201   8.740  1.1678 -1.2254  1.4321
  143SAPE   C3315693   5.356   0.613   9.827 -0.0877  0.3248  0.2368
  143SAPE   H3X15694   5.284   0.697   9.841 -0.0994  0.1808  1.1603
  143SAPE   H3Y15695   5.327   0.529   9.895 -3.8640  1.0452 -0.2704
  143SAPE   C3415696   5.359   0.562   9.687  0.0819  0.1870 -0.2057
  143SAPE   H4X15697   5.264   0.507   9.673  0.6806 -1.0924  0.5376
  143SAPE   H4Y15698   5.440   0.491   9.659  0.3435 -0.6429  2.3937
  143SAPE   C3515699   5.392   0.669   9.581 -0.2826  0.1764 -0.5698
  143SAPE   H5X15700   5.496   0.707   9.594 -0.5802  0.7326  0.2624
  143SAPE   H5Y15701   5.317   0.748   9.600 -0.9696 -0.9594  1.8968
  143SAPE   C3615702   5.388   0.625   9.434 -0.8894 -0.0224  0.0691
  143SAPE   H6X15703   5.475   0.558   9.419 -0.9011 -0.0015 -0.1021
  143SAPE   H6Y15704   5.408   0.717   9.376  0.6404 -0.0435  0.5109
  143SAPE   C3715705   5.267   0.540   9.401 -0.0253  0.9128 -0.5257
  143SAPE   H7X15706   5.178   0.587   9.447 -1.7882 -1.8177 -0.9429
  143SAPE   H7Y15707   5.270   0.438   9.445  1.6064 -0.3722 -3.3470
  143SAPE   C3815708   5.254   0.505   9.248 -1.3312  0.0788  0.3118
  143SAPE   H8X15709   5.172   0.433   9.231 -2.2892  1.4433 -1.1247
  143SAPE   H8Y15710   5.343   0.444   9.221 -0.4918  2.4295 -2.7515
  143SAPE   C3915711   5.225   0.628   9.154  0.1449  0.8809 -0.4237
  143SAPE   H9X15712   5.296   0.708   9.181 -1.7590  1.7590  2.5189
  143SAPE   H9Y15713   5.122   0.667   9.171  0.1128  0.0162  1.5801
  143SAPE  C31015714   5.236   0.598   9.006  0.4142 -0.3201  0.4782
  143SAPE  H10X15715   5.172   0.516   8.968  1.1026 -0.4017 -0.5353
  143SAPE  H10Y15716   5.334   0.567   8.965 -0.2607 -1.0437 -0.6324
  143SAPE  C31115717   5.198   0.726   8.923  0.2233 -1.2981  0.3907
  143SAPE  H11X15718   5.263   0.811   8.951  1.1304 -1.1824 -1.8250
  143SAPE  H11Y15719   5.093   0.746   8.952 -0.2351 -1.6515 -0.9662
  143SAPE  C31215720   5.222   0.706   8.773 -0.0417 -0.4656 -0.0744
  143SAPE  H12X15721   5.146   0.762   8.715  0.3555 -1.6954 -1.9111
  143SAPE  H12Y15722   5.221   0.601   8.737  1.7617 -0.7077  0.4751
  143SAPE  C31315723   5.368   0.749   8.726 -0.1833  0.7802 -0.1261
  143SAPE  H13X15724   5.440   0.696   8.791 -2.1876  1.4006  2.8182
  143SAPE  H13Y15725   5.374   0.860   8.737 -0.5069  0.7235  0.7010
  143SAPE  C31415726   5.411   0.714   8.583 -0.1476 -0.2145  0.3989
  143SAPE  H14X15727   5.337   0.761   8.515 -0.5559 -3.7071 -1.8240
  143SAPE  H14Y15728   5.416   0.604   8.568  1.7197 -0.4637  2.3241
  143SAPE  C31515729   5.548   0.777   8.536  0.0962  0.5780 -0.4537
  143SAPE  H15X15730   5.535   0.885   8.557  0.1982  0.5004  0.0278
  143SAPE  H15Y15731   5.561   0.753   8.428 -0.6258  0.1418 -0.4480
  143SAPE  C31615732   5.667   0.721   8.616  0.6606  0.5714 -0.7317
  143SAPE  H16X15733   5.663   0.611   8.633  0.5093  0.9119  1.8841
  143SAPE  H16Y15734   5.649   0.747   8.723  0.7708 -3.1944  0.3317
  143SAPE  C31715735   5.801   0.769   8.580 -0.6084  0.1337  0.4488
  143SAPE  H17X15736   5.865   0.754   8.669 -0.4093 -0.3989  0.2213
  143SAPE  H17Y15737   5.791   0.879   8.565  0.0587  0.0735 -0.5218
  143SAPE  C31815738   5.859   0.702   8.464  0.5178  0.5991 -0.0926
  143SAPE  H18X15739   5.858   0.591   8.471  1.4377  0.6505  1.2603
  143SAPE  H18Y15740   5.963   0.732   8.440 -0.0784  0.1550 -3.6942
  143SAPE  H18Z15741   5.796   0.721   8.375  1.0391 -0.0686 -0.6131
  144SAPE     N15742   0.709   2.940  10.792  0.1154  0.5009 -0.4102
  144SAPE   HN115743   0.801   2.944  10.840 -0.2794  0.5350  0.3521
  144SAPE   HN215744   0.707   2.860  10.726 -1.4999  1.6130 -1.8124
  144SAPE   HN315745   0.714   3.028  10.737 -1.6391  0.8058 -0.1334
  144SAPE   C1215746   0.586   2.929  10.881 -0.3913 -0.0571  0.4325
  144SAPE  H12A15747   0.593   2.828  10.928  0.3784 -0.1429  0.1519
  144SAPE  H12B15748   0.495   2.943  10.819 -1.4988 -0.7988  1.8254
  144SAPE   C1115749   0.581   3.035  10.995 -0.3959 -0.6058  0.2787
  144SAPE  H11A15750   0.680   3.031  11.044  1.3516  0.7573 -2.8902
  144SAPE  H11B15751   0.496   3.009  11.062 -0.3865 -1.9484 -0.2044
  144SAPE     P15752   0.435   3.256  10.931  0.5413 -0.0539  0.1312
  144SAPE   O1315753   0.392   3.279  11.069  0.1323 -0.3611 -0.1233
  144SAPE   O1415754   0.462   3.367  10.837  0.1689  0.9241 -0.0443
  144SAPE   O1215755   0.569   3.167  10.943  0.6162 -0.1996 -0.1036
  144SAPE   O1115756   0.333   3.163  10.865  0.5364 -0.2228 -0.3485
  144SAPE    C115757   0.339   3.144  10.723  0.8256 -0.1463  0.0492
  144SAPE    HA15758   0.323   3.242  10.674 -3.0956 -0.2574  0.7704
  144SAPE    HB15759   0.434   3.102  10.684  0.4521  0.4124 -1.5333
  144SAPE    C215760   0.217   3.063  10.671  0.3091  0.1382  0.3366
  144SAPE    HS15761   0.203   2.978  10.741  0.2984  0.0852  0.2697
  144SAPE   O2115762   0.246   3.001  10.546  0.1814  0.2792  0.0219
  144SAPE   C2115763   0.187   2.890  10.515  0.2632 -0.8026 -0.3754
  144SAPE   O2215764   0.098   2.838  10.580 -0.5157  0.1972 -0.1234
  144SAPE   C2215765   0.230   2.850  10.379  1.0719 -0.5084  0.4403
  144SAPE   H2R15766   0.293   2.927  10.330  0.5885 -1.4604 -1.7912
  144SAPE   H2S15767   0.300   2.767  10.402  2.5147  0.4249 -0.4105
  144SAPE    C315768   0.077   3.142  10.681  0.1988  0.1838 -0.0874
  144SAPE    HX15769   0.068   3.172  10.788  1.0426  0.5207 -0.1113
  144SAPE    HY15770  -0.008   3.074  10.654  1.6565 -1.3532 -1.0027
  144SAPE   O3115771   0.079   3.258  10.599 -0.1662 -0.3147 -0.1612
  144SAPE   C3115772   0.041   3.230  10.472  0.4391 -0.0895 -0.1681
  144SAPE   O3215773  -0.013   3.131  10.435  0.1416  0.8874 -0.2028
  144SAPE   C3215774   0.072   3.359  10.391  0.5234  1.2678 -0.2932
  144SAPE   H2X15775   0.182   3.372  10.392  0.5807  0.8214  0.4102
  144SAPE   H2Y15776   0.002   3.437  10.429 -1.4550 -0.8309  0.6234
  144SAPE   C2315777   0.117   2.813  10.287 -1.1234  0.2404  0.9544
  144SAPE   H3R15778   0.064   2.910  10.271 -0.6562  0.3134 -0.2400
  144SAPE   H3S15779   0.042   2.759  10.349 -2.8970  1.5013  0.0323
  144SAPE   C2415780   0.151   2.766  10.141 -0.1640 -0.5903  0.3217
  144SAPE   H4R15781   0.229   2.838  10.108  0.8035 -1.0084  1.6262
  144SAPE   H4S15782   0.060   2.781  10.079 -2.3106 -0.5691  3.2549
  144SAPE   C2515783   0.208   2.628  10.142  0.5701  0.2010  0.0244
  144SAPE   H5R15784   0.227   2.584  10.241 -0.0330 -1.4586 -0.5654
  144SAPE   C2615785   0.202   2.553  10.033 -0.1424 -1.3103 -0.0279
  144SAPE   H6R15786   0.234   2.447  10.035  0.0442 -1.2471  1.1637
  144SAPE   C2715787   0.150   2.589   9.894 -0.5756  0.0823  0.8189
  144SAPE   H7R15788   0.136   2.698   9.883 -4.6021 -0.3401  0.1073
  144SAPE   H7S15789   0.052   2.539   9.877 -0.5529  0.6048 -1.0932
  144SAPE   C2815790   0.243   2.549   9.780 -0.8047  0.4729 -0.0196
  144SAPE   H8R15791   0.349   2.538   9.807 -0.6163 -1.8468 -1.4185
  144SAPE   C2915792   0.213   2.553   9.651 -0.2004 -0.7445  0.3635
  144SAPE   H9R15793   0.286   2.522   9.575 -3.4445 -1.3909 -2.7701
  144SAPE  C21015794   0.083   2.590   9.589 -0.6024 -0.1916 -0.6952
  144SAPE  H10R15795   0.101   2.643   9.493  0.5126 -0.8076 -0.8482
  144SAPE  H10S15796   0.028   2.671   9.641  0.0081 -0.3606  0.2453
  144SAPE  C21115797  -0.003   2.468   9.588 -0.5617  0.3482  0.0801
  144SAPE  H11R15798  -0.021   2.411   9.681 -0.9928 -0.5901 -0.5599
  144SAPE  C21215799  -0.072   2.424   9.483  0.7092 -0.5268  0.1522
  144SAPE  H12R15800  -0.129   2.331   9.493  1.7462 -1.4546 -1.9293
  144SAPE  C21315801  -0.083   2.492   9.339 -0.1854 -0.6827  0.4137
  144SAPE  H13R15802  -0.101   2.418   9.257 -0.6828  1.0822 -1.1256
  144SAPE  H13S15803   0.014   2.544   9.325 -1.7304  2.4926  0.6664
  144SAPE  C21415804  -0.191   2.593   9.330  0.0361 -0.0493 -0.3968
  144SAPE  H14R15805  -0.156   2.693   9.361  1.8800 -0.9999  0.8358
  144SAPE  C21515806  -0.319   2.578   9.288  0.1889  0.3539 -0.0953
  144SAPE  H15R15807  -0.383   2.666   9.301  1.3099  1.2195 -0.2883
  144SAPE  C21615808  -0.387   2.452   9.240  0.0767  0.1432  0.5237
  144SAPE  H16R15809  -0.334   2.366   9.286  2.8303  0.5351 -1.6602
  144SAPE  H16S15810  -0.371   2.450   9.130  1.3317 -0.4798  0.6963
  144SAPE  C21715811  -0.540   2.453   9.262 -0.0589  0.0102  1.0512
  144SAPE  H17R15812  -0.586   2.365   9.213 -3.8253  1.4344  1.6772
  144SAPE  H17S15813  -0.573   2.544   9.208  0.6185 -0.9788 -1.1588
  144SAPE  C21815814  -0.588   2.447   9.405 -1.0481 -0.8944  0.3363
  144SAPE  H18R15815  -0.579   2.547   9.452 -1.0337 -0.1504 -1.1909
  144SAPE  H18S15816  -0.518   2.385   9.466 -1.1433 -1.7828 -0.4345
  144SAPE  C21915817  -0.723   2.392   9.418 -0.1263  0.1027  0.7005
  144SAPE  H19R15818  -0.723   2.295   9.362  0.7141  0.5486 -0.1203
  144SAPE  H19S15819  -0.784   2.469   9.367 -1.6436 -1.8092 -0.5240
  144SAPE  C22015820  -0.767   2.365   9.557 -0.5043  0.9263 -0.0672
  144SAPE  H20R15821  -0.711   2.280   9.600 -0.7085 -0.6584 -2.7006
  144SAPE  H20S15822  -0.875   2.341   9.563 -0.0283 -2.0971 -1.6660
  144SAPE  H20T15823  -0.752   2.461   9.610 -2.2524  1.3197 -0.2241
  144SAPE   C3315824   0.041   3.329  10.247  0.3996 -0.1234  0.3508
  144SAPE   H3X15825  -0.065   3.295  10.245  0.2426  0.4135 -0.8623
  144SAPE   H3Y15826   0.094   3.247  10.194  0.5101  1.4677 -2.1863
  144SAPE   C3415827   0.034   3.457  10.159 -0.8383 -0.6278  0.5728
  144SAPE   H4X15828   0.127   3.516  10.177 -1.8567  0.7643  1.4612
  144SAPE   H4Y15829  -0.047   3.524  10.194 -0.6902 -1.2031  2.1038
  144SAPE   C3515830   0.043   3.419  10.007  0.5039 -0.3049  0.7674
  144SAPE   H5X15831  -0.038   3.348   9.980 -0.0789  1.1515 -1.5777
  144SAPE   H5Y15832   0.143   3.369   9.998  0.2059 -0.7068 -0.5058
  144SAPE   C3615833   0.034   3.548   9.919 -0.0372 -0.1192  0.5735
  144SAPE   H6X15834   0.097   3.629   9.961  2.0525 -0.7622 -1.1076
  144SAPE   H6Y15835  -0.073   3.578   9.915 -0.1150 -0.4295 -2.8067
  144SAPE   C3715836   0.081   3.525   9.770 -0.8031 -0.2248 -0.1949
  144SAPE   H7X15837   0.050   3.423   9.740  0.9061 -0.5546 -0.9238
  144SAPE   H7Y15838   0.192   3.521   9.774 -0.8385 -2.3470 -0.1038
  144SAPE   C3815839   0.030   3.636   9.669 -0.2818  0.3287  0.1365
  144SAPE   H8X15840   0.048   3.738   9.710  0.4453 -0.7370  2.6878
  144SAPE   H8Y15841  -0.079   3.621   9.660 -0.2178 -0.2888  0.3512
  144SAPE   C3915842   0.101   3.619   9.536 -0.8394 -0.1050 -0.3539
  144SAPE   H9X15843   0.075   3.523   9.487 -1.0204 -1.0906  1.5781
  144SAPE   H9Y15844   0.211   3.625   9.553 -1.1729 -0.4570  2.3806
  144SAPE  C31015845   0.072   3.734   9.438  0.4527 -0.7518  1.1751
  144SAPE  H10X15846   0.132   3.823   9.468 -0.4638  0.0294  0.7462
  144SAPE  H10Y15847  -0.036   3.758   9.452  0.1222 -0.9558 -0.7437
  144SAPE  C31115848   0.108   3.715   9.287  0.0289 -0.3558 -0.0983
  144SAPE  H11X15849   0.029   3.662   9.230 -1.7971  0.6723  1.3634
  144SAPE  H11Y15850   0.210   3.674   9.271 -0.0464 -0.1328 -1.2874
  144SAPE  C31215851   0.111   3.845   9.210 -0.1846  0.2511  0.9808
  144SAPE  H12X15852   0.184   3.909   9.263  0.3325 -1.1895  2.0742
  144SAPE  H12Y15853   0.016   3.895   9.241 -0.1818  0.3363  0.8533
  144SAPE  C31315854   0.139   3.836   9.057  0.3318 -0.2066 -0.1446
  144SAPE  H13X15855   0.051   3.778   9.022 -0.6817 -1.2971  3.7867
  144SAPE  H13Y15856   0.231   3.776   9.039  0.8315  0.7504 -0.9162
  144SAPE  C31415857   0.166   3.974   8.997  0.1613  0.5444  0.5289
  144SAPE  H14X15858   0.097   4.052   9.035  0.4693  1.5962 -1.0071
  144SAPE  H14Y15859   0.152   3.965   8.887  2.2281  0.9714  0.1775
  144SAPE  C31515860   0.309   4.023   9.015 -0.1899  0.5876  0.6296
  144SAPE  H15X15861   0.358   4.000   8.918 -0.6633 -3.3421  1.1607
  144SAPE  H15Y15862   0.358   3.963   9.094  0.0253 -0.9992 -0.6575
  144SAPE  C31615863   0.317   4.173   9.059  0.1389  0.1572  0.0372
  144SAPE  H16X15864   0.299   4.179   9.169  1.7864 -0.1312  0.3374
  144SAPE  H16Y15865   0.232   4.228   9.013 -2.0026 -1.0162  2.3127
  144SAPE  C31715866   0.438   4.255   9.024  0.4398  0.7817  0.2576
  144SAPE  H17X15867   0.473   4.254   8.919  0.6533  1.1730  0.3257
  144SAPE  H17Y15868   0.521   4.207   9.081  2.8942  3.4550 -0.8755
  144SAPE  C31815869   0.447   4.392   9.076  0.0642 -0.3308  0.2841
  144SAPE  H18X15870   0.354   4.448   9.056  0.5551  0.8347  1.1603
  144SAPE  H18Y15871   0.530   4.443   9.022  0.3537 -1.7302 -0.6719
  144SAPE  H18Z15872   0.474   4.392   9.184  1.4461 -1.3826 -0.0231
  145SAPE     N15873   1.742   3.527  10.788  0.2636  0.0296 -0.0539
  145SAPE   HN115874   1.788   3.619  10.773 -0.6217  0.7878  1.5481
  145SAPE   HN215875   1.797   3.475  10.860 -1.0970  0.7952  1.6156
  145SAPE   HN315876   1.735   3.468  10.703  2.2951 -4.0310  2.3323
  145SAPE   C1215877   1.605   3.546  10.848 -0.5335 -0.3857  0.5240
  145SAPE  H12A15878   1.534   3.555  10.763 -0.4827  1.3513  0.6349
  145SAPE  H12B15879   1.607   3.645  10.899 -1.2201 -0.7107  1.2012
  145SAPE   C1115880   1.575   3.434  10.957 -0.0296  0.6456 -0.3942
  145SAPE  H11A15881   1.560   3.340  10.900 -0.2101 -1.1005  2.3337
  145SAPE  H11B15882   1.483   3.457  11.014  1.0900 -0.0316  1.8185
  145SAPE     P15883   1.778   3.313  11.065 -0.1636  0.2842  0.4216
  145SAPE   O1315884   1.864   3.328  11.189 -0.1496  0.2052  0.6084
  145SAPE   O1415885   1.710   3.185  11.043 -0.0512 -0.2979  0.0110
  145SAPE   O1215886   1.674   3.435  11.062 -0.7097  0.1540 -0.0549
  145SAPE   O1115887   1.865   3.329  10.943 -0.3865 -0.5905  0.1581
  145SAPE    C115888   2.006   3.311  10.938 -0.2085 -1.1093  0.0995
  145SAPE    HA15889   2.045   3.412  10.963 -2.1321 -0.5943  1.2351
  145SAPE    HB15890   2.042   3.240  11.016  1.5842 -0.9435 -0.5456
  145SAPE    C215891   2.043   3.260  10.796  0.2338 -0.5300  0.4686
  145SAPE    HS15892   2.152   3.243  10.806 -0.0235 -2.2095  0.8378
  145SAPE   O2115893   2.006   3.353  10.699  0.2547 -0.3320 -0.0641
  145SAPE   C2115894   2.078   3.361  10.591 -0.4985 -0.2448  0.4851
  145SAPE   O2215895   2.194   3.319  10.576  0.1847  0.2583  0.6291
  145SAPE   C2215896   1.992   3.425  10.485 -0.0074 -0.8085 -0.3042
  145SAPE   H2R15897   1.935   3.338  10.447 -0.0154 -0.9238 -0.0313
  145SAPE   H2S15898   1.923   3.496  10.534  1.5309 -0.5849  1.6879
  145SAPE    C315899   1.970   3.126  10.772 -0.2437 -0.0574 -0.2792
  145SAPE    HX15900   1.862   3.147  10.762 -0.4932 -1.1916 -0.0830
  145SAPE    HY15901   1.969   3.062  10.863 -2.0651 -0.1958 -0.3618
  145SAPE   O3115902   2.027   3.059  10.660 -0.2641  0.9385 -0.4363
  145SAPE   C3115903   1.957   3.047  10.547 -0.0704  0.0760 -0.1469
  145SAPE   O3215904   1.849   3.101  10.529  0.1597  0.2415  0.8621
  145SAPE   C3215905   2.039   2.973  10.437 -0.4466 -0.5903 -0.3396
  145SAPE   H2X15906   1.973   2.888  10.409  0.8171 -1.4394 -0.8620
  145SAPE   H2Y15907   2.132   2.934  10.484  0.4342  1.4493 -0.2734
  145SAPE   C2315908   2.070   3.482  10.368 -0.6561  0.0251 -0.9959
  145SAPE   H3R15909   2.113   3.400  10.307 -1.4307 -0.8588 -0.3815
  145SAPE   H3S15910   2.153   3.546  10.405 -1.1283 -0.9351  1.9250
  145SAPE   C2415911   1.992   3.563  10.253 -1.4252 -0.6198 -0.6491
  145SAPE   H4R15912   2.073   3.606  10.191 -1.8367  1.8285  0.4136
  145SAPE   H4S15913   1.945   3.653  10.298  0.4093 -1.4626  3.3693
  145SAPE   C2515914   1.896   3.466  10.178  0.1031 -0.1968  0.4149
  145SAPE   H5R15915   1.808   3.440  10.238  0.0540  1.8064  1.2753
  145SAPE   C2615916   1.917   3.410  10.054 -0.3762 -0.0636 -1.0413
  145SAPE   H6R15917   1.835   3.351  10.009 -0.2299 -0.1897 -1.1462
  145SAPE   C2715918   2.036   3.418   9.960  0.3725 -0.5333  0.4455
  145SAPE   H7R15919   2.123   3.458  10.018  1.4608 -0.8599 -0.9134
  145SAPE   H7S15920   2.004   3.503   9.896  0.0630 -0.3658  0.8166
  145SAPE   C2815921   2.082   3.292   9.891  0.6653  0.2339 -0.0289
  145SAPE   H8R15922   2.087   3.204   9.957 -1.7834  1.0927  1.4299
  145SAPE   C2915923   2.089   3.269   9.752  0.4166 -0.5387 -1.1344
  145SAPE   H9R15924   2.116   3.168   9.718  4.8106  0.2054 -0.5287
  145SAPE  C21015925   2.073   3.362   9.639 -0.1677  0.2400  0.1864
  145SAPE  H10R15926   2.122   3.457   9.669  0.5507  0.4094 -1.4338
  145SAPE  H10S15927   1.965   3.385   9.632  0.0627  1.6678  0.9358
  145SAPE  C21115928   2.137   3.320   9.512  0.2816 -0.4866  0.2193
  145SAPE  H11R15929   2.228   3.257   9.519  1.6329  0.9672 -2.5173
  145SAPE  C21215930   2.087   3.348   9.387 -0.5417 -0.1034 -0.5357
  145SAPE  H12R15931   2.150   3.331   9.299 -0.4938 -0.5631 -0.4157
  145SAPE  C21315932   1.963   3.429   9.358  0.7259 -0.3241  0.6898
  145SAPE  H13R15933   1.903   3.444   9.450 -0.3762  0.5016 -0.1418
  145SAPE  H13S15934   1.906   3.377   9.278 -0.3160  1.0638  0.4880
  145SAPE  C21415935   2.000   3.575   9.312  0.0088 -0.0378  0.4435
  145SAPE  H14R15936   2.033   3.648   9.387 -0.5538 -0.3127  0.9693
  145SAPE  C21515937   1.992   3.617   9.182  0.6563  0.4690 -0.2760
  145SAPE  H15R15938   2.039   3.716   9.166  1.4386 -0.1665 -2.1718
  145SAPE  C21615939   1.955   3.542   9.064 -0.6437 -0.2015  0.2408
  145SAPE  H16R15940   1.962   3.432   9.076 -3.9408 -0.6948 -1.2028
  145SAPE  H16S15941   2.024   3.567   8.980 -2.1803  1.4275 -0.6150
  145SAPE  C21715942   1.813   3.580   9.026  0.8424 -0.0031  0.8823
  145SAPE  H17R15943   1.806   3.690   9.015  1.5700 -0.0322  0.0537
  145SAPE  H17S15944   1.744   3.556   9.110 -0.3740  0.8208  0.1504
  145SAPE  C21815945   1.755   3.504   8.891 -0.5665 -0.0118 -0.4906
  145SAPE  H18R15946   1.773   3.395   8.900  2.2728  0.2614 -1.9109
  145SAPE  H18S15947   1.817   3.556   8.816 -0.1569 -0.3183 -0.3697
  145SAPE  C21915948   1.606   3.519   8.862 -0.0220  0.2819  0.3486
  145SAPE  H19R15949   1.565   3.476   8.768  2.4043  2.5223 -1.8981
  145SAPE  H19S15950   1.585   3.627   8.849 -0.5044  0.0822 -0.6589
  145SAPE  C22015951   1.522   3.453   8.966  0.2626  0.2262 -0.5367
  145SAPE  H20R15952   1.415   3.464   8.936  0.0959 -0.1681 -0.0967
  145SAPE  H20S15953   1.526   3.507   9.063 -2.1935  1.8152 -1.2274
  145SAPE  H20T15954   1.540   3.344   8.977  0.4073 -0.1399 -3.4711
  145SAPE   C3315955   2.070   3.067  10.319  0.5731  0.0275 -0.1881
  145SAPE   H3X15956   2.142   3.141  10.361 -1.5138  1.4773  0.9881
  145SAPE   H3Y15957   1.983   3.126  10.285  0.1868 -0.2436  0.3126
  145SAPE   C3415958   2.133   2.993  10.202  0.3994 -0.1211  0.2420
  145SAPE   H4X15959   2.088   3.042  10.114 -0.7594 -0.8546  0.3954
  145SAPE   H4Y15960   2.089   2.891  10.206 -1.4779  0.6151 -0.8578
  145SAPE   C3515961   2.290   2.986  10.196  0.6030 -0.0260  0.7905
  145SAPE   H5X15962   2.321   2.932  10.288  2.0903 -1.2790 -0.4100
  145SAPE   H5Y15963   2.336   3.087  10.201 -1.8571  1.1312  1.7690
  145SAPE   C3615964   2.333   2.898  10.072  0.3494  0.1759  0.4712
  145SAPE   H6X15965   2.264   2.811  10.065  0.7402 -0.0933 -0.0922
  145SAPE   H6Y15966   2.434   2.854  10.084 -0.5976 -2.2503  0.1301
  145SAPE   C3715967   2.336   2.981   9.944 -0.1305  0.3889  0.1135
  145SAPE   H7X15968   2.408   3.064   9.963  0.2839 -0.1011  0.7069
  145SAPE   H7Y15969   2.237   3.022   9.914  0.0894  1.1657  0.4102
  145SAPE   C3815970   2.386   2.903   9.819  0.7345  0.0821 -0.2576
  145SAPE   H8X15971   2.314   2.819   9.816  1.3425 -0.5782  1.9846
  145SAPE   H8Y15972   2.485   2.853   9.826  0.7268  0.0149 -0.6447
  145SAPE   C3915973   2.380   2.990   9.694 -0.2380 -0.2678 -0.1817
  145SAPE   H9X15974   2.445   3.081   9.697 -1.3133  0.4974  2.1743
  145SAPE   H9Y15975   2.275   3.028   9.696 -0.8701 -1.8332 -1.5279
  145SAPE  C31015976   2.392   2.915   9.569  0.9089  0.0450  0.3824
  145SAPE  H10X15977   2.295   2.866   9.547  0.6342  0.2557  1.0922
  145SAPE  H10Y15978   2.457   2.828   9.590 -0.4918 -1.4228 -1.0542
  145SAPE  C31115979   2.452   2.989   9.454  0.2883  0.3886 -0.0235
  145SAPE  H11X15980   2.561   2.969   9.447  0.3687  1.3728 -2.5946
  145SAPE  H11Y15981   2.450   3.099   9.471  1.8608  0.4609 -0.1777
  145SAPE  C31215982   2.375   2.970   9.326  0.6008  1.2624  0.0421
  145SAPE  H12X15983   2.271   3.002   9.350  0.5216  1.4982 -0.5942
  145SAPE  H12Y15984   2.391   2.864   9.298 -0.4485  1.0407  0.2685
  145SAPE  C31315985   2.426   3.052   9.209 -0.4277  0.0730 -0.2838
  145SAPE  H13X15986   2.534   3.033   9.192 -0.1825  0.0162  1.2297
  145SAPE  H13Y15987   2.408   3.160   9.228 -1.4570  0.1013 -1.3084
  145SAPE  C31415988   2.369   3.016   9.071  0.0176 -0.2351  0.4012
  145SAPE  H14X15989   2.260   3.033   9.064  0.0935  1.2768  1.9899
  145SAPE  H14Y15990   2.386   2.908   9.054  0.1087 -0.2014  0.2700
  145SAPE  C31515991   2.443   3.096   8.961 -0.9834  0.2753  0.2852
  145SAPE  H15X15992   2.553   3.083   8.967 -0.9032  0.9099  0.2867
  145SAPE  H15Y15993   2.412   3.201   8.981  1.2082  1.2199 -0.9004
  145SAPE  C31615994   2.397   3.062   8.819  0.3087 -0.2629 -0.2250
  145SAPE  H16X15995   2.433   3.142   8.752  1.6529 -1.4057 -0.9194
  145SAPE  H16Y15996   2.287   3.076   8.824  0.1493 -1.7740  2.5777
  145SAPE  C31715997   2.419   2.921   8.761 -0.3680  0.1734  0.4857
  145SAPE  H17X15998   2.344   2.927   8.680  0.7740  1.6691 -0.4985
  145SAPE  H17Y15999   2.385   2.845   8.835 -1.0816 -1.1178 -1.0903
  145SAPE  C31816000   2.569   2.899   8.706  0.6980  0.4783 -0.5248
  145SAPE  H18X16001   2.644   2.902   8.788 -0.3254  1.3039  0.4095
  145SAPE  H18Y16002   2.601   2.977   8.634  1.9907 -1.0512 -1.7037
  145SAPE  H18Z16003   2.569   2.803   8.650  2.3019  0.9546 -1.4035
  146SAPE     N16004   1.100   4.304  11.020 -0.4376  0.3561  0.0753
  146SAPE   HN116005   1.093   4.367  11.102  0.1406  1.6607 -0.8464
  146SAPE   HN216006   1.195   4.316  10.979 -0.1577  0.8407  0.8446
  146SAPE   HN316007   1.019   4.332  10.961  0.0326  0.7699 -0.3768
  146SAPE   C1216008   1.091   4.158  11.047  0.4469 -0.5901  0.0948
  146SAPE  H12A16009   0.990   4.137  11.088  0.1880  1.0150  0.3533
  146SAPE  H12B16010   1.167   4.137  11.124  2.4136  3.6933 -0.4009
  146SAPE   C1116011   1.121   4.064  10.929  0.0142  0.0337 -0.2387
  146SAPE  H11A16012   1.115   3.960  10.966  0.3487 -0.6028 -1.8803
  146SAPE  H11B16013   1.228   4.073  10.902  0.9432  1.5432  3.3458
  146SAPE     P16014   0.936   3.977  10.752 -0.1707  0.1996 -0.1677
  146SAPE   O1316015   0.826   3.944  10.843  0.6121 -0.1603  0.1960
  146SAPE   O1416016   0.889   4.030  10.624  0.0266  0.7433 -0.0290
  146SAPE   O1216017   1.029   4.087  10.824 -0.7008 -0.0298 -0.0681
  146SAPE   O1116018   1.020   3.848  10.740  0.1584 -0.1646 -0.2069
  146SAPE    C116019   1.148   3.853  10.669  0.5077  0.5333  0.0820
  146SAPE    HA16020   1.191   3.956  10.673  0.9051  0.3926 -0.5364
  146SAPE    HB16021   1.213   3.781  10.723  0.5416  0.9101  0.5526
  146SAPE    C216022   1.140   3.782  10.526 -0.5676 -0.7125 -0.7126
  146SAPE    HS16023   1.244   3.750  10.502  0.0085  1.4160 -1.2776
  146SAPE   O2116024   1.081   3.866  10.429 -0.6406  0.1528  0.2236
  146SAPE   C2116025   1.163   3.892  10.323 -0.6521 -0.0132 -0.6010
  146SAPE   O2216026   1.281   3.850  10.319 -0.0330 -0.4960 -0.7607
  146SAPE   C2216027   1.095   3.968  10.215  0.3220  0.0300  0.3171
  146SAPE   H2R16028   0.987   3.961  10.237  0.4157  0.1197  0.8226
  146SAPE   H2S16029   1.125   4.075  10.220 -2.9407  1.0967 -0.4175
  146SAPE    C316030   1.055   3.657  10.549  0.1357  1.4006  0.1104
  146SAPE    HX16031   0.950   3.692  10.556  0.3303  2.0690 -0.2419
  146SAPE    HY16032   1.097   3.626  10.647  2.0998  3.6756  0.0552
  146SAPE   O3116033   1.053   3.558  10.443  0.0424  0.2081  0.2147
  146SAPE   C3116034   0.974   3.575  10.340 -0.8772  0.8270 -0.1810
  146SAPE   O3216035   0.921   3.679  10.303 -0.6085  0.1589 -0.8949
  146SAPE   C3216036   0.942   3.435  10.281  0.0550  0.0034 -0.5877
  146SAPE   H2X16037   0.841   3.409  10.319  0.0081  0.0256 -0.6979
  146SAPE   H2Y16038   1.025   3.364  10.305  1.2236  1.6861  0.5507
  146SAPE   C2316039   1.128   3.915  10.069  0.3859 -0.3850  0.1262
  146SAPE   H3R16040   1.101   3.809  10.048 -2.3817  0.7865 -3.2320
  146SAPE   H3S16041   1.231   3.946  10.044 -0.0279 -0.2154 -1.5028
  146SAPE   C2416042   1.052   3.993   9.953 -0.6380  0.5041  1.0876
  146SAPE   H4R16043   1.097   3.948   9.862 -1.4924  0.2059  0.7981
  146SAPE   H4S16044   1.083   4.099   9.957  3.0191 -0.3425 -0.6951
  146SAPE   C2516045   0.899   3.979   9.959  0.5594  0.3132 -0.6899
  146SAPE   H5R16046   0.855   4.028  10.047  0.3585 -0.9184 -0.0801
  146SAPE   C2616047   0.818   3.904   9.881  0.4025 -0.3790 -0.2589
  146SAPE   H6R16048   0.712   3.892   9.906  0.0632  0.4078 -1.2334
  146SAPE   C2716049   0.865   3.824   9.761 -0.1890 -0.2158  0.2961
  146SAPE   H7R16050   0.970   3.845   9.733 -0.5574  1.1206 -0.1862
  146SAPE   H7S16051   0.819   3.865   9.668 -1.3889 -2.3564 -0.1187
  146SAPE   C2816052   0.824   3.678   9.755  0.8050 -0.3540  0.0487
  146SAPE   H8R16053   0.827   3.624   9.851 -1.8528 -2.7856 -1.0924
  146SAPE   C2916054   0.773   3.608   9.651 -0.1223  0.2157  0.3771
  146SAPE   H9R16055   0.739   3.503   9.655  1.3094 -0.2270  1.7753
  146SAPE  C21016056   0.741   3.658   9.514 -0.6799 -0.3649 -0.4390
  146SAPE  H10R16057   0.813   3.613   9.443 -0.0370 -0.6581  0.3932
  146SAPE  H10S16058   0.744   3.768   9.497 -1.4848  0.2937  2.9365
  146SAPE  C21116059   0.608   3.608   9.463  0.0026 -0.8033 -0.2551
  146SAPE  H11R16060   0.564   3.522   9.515  0.2241 -0.8806 -0.1951
  146SAPE  C21216061   0.546   3.647   9.355  0.5351 -0.5816  0.7541
  146SAPE  H12R16062   0.444   3.610   9.339  0.2564  0.2342  0.6034
  146SAPE  C21316063   0.591   3.747   9.245 -0.1528 -0.2504 -0.4895
  146SAPE  H13R16064   0.579   3.839   9.306  1.1034 -0.2605 -0.2061
  146SAPE  H13S16065   0.506   3.746   9.173 -0.4744 -2.8530 -0.1807
  146SAPE  C21416066   0.722   3.740   9.167 -0.0691 -0.3151  1.2244
  146SAPE  H14R16067   0.771   3.642   9.176 -1.4273 -0.8831  3.4934
  146SAPE  C21516068   0.780   3.844   9.097  0.1478 -0.2681  0.0426
  146SAPE  H15R16069   0.862   3.818   9.029  0.1243 -2.6899  0.8104
  146SAPE  C21616070   0.721   3.980   9.077 -0.2224  0.2024  0.1264
  146SAPE  H16R16071   0.766   4.043   9.156 -1.0975 -1.6351  2.2001
  146SAPE  H16S16072   0.614   3.984   9.108  0.3749  3.1367  2.1623
  146SAPE  C21716073   0.753   4.041   8.934  0.4638  0.4663 -0.6530
  146SAPE  H17R16074   0.679   4.123   8.919 -0.3869  0.5372  3.0109
  146SAPE  H17S16075   0.729   3.963   8.859  1.7342 -0.8617  0.2804
  146SAPE  C21816076   0.899   4.095   8.930  0.2424 -0.1511 -0.0180
  146SAPE  H18R16077   0.972   4.012   8.938 -0.4937 -0.9366 -1.2255
  146SAPE  H18S16078   0.925   4.152   9.022 -0.2588 -1.5858  1.0539
  146SAPE  C21916079   0.940   4.168   8.802 -0.5508  0.1462  0.4121
  146SAPE  H19R16080   0.867   4.249   8.781  0.0266  0.3070 -1.1020
  146SAPE  H19S16081   0.937   4.095   8.718 -0.6065  2.0968 -1.3528
  146SAPE  C22016082   1.073   4.245   8.806 -0.1644 -1.2537  0.6791
  146SAPE  H20R16083   1.065   4.323   8.727  0.5335 -1.5889  0.2701
  146SAPE  H20S16084   1.160   4.178   8.796 -0.6376 -1.6946 -0.8639
  146SAPE  H20T16085   1.097   4.302   8.898  1.7166 -2.5196  1.0215
  146SAPE   C3316086   0.936   3.438  10.135 -0.2999 -0.0450  0.0871
  146SAPE   H3X16087   1.032   3.481  10.102  0.4194  0.0081  2.1290
  146SAPE   H3Y16088   0.855   3.503  10.095 -0.1558 -0.2889 -0.6183
  146SAPE   C3416089   0.904   3.296  10.077 -0.9004 -0.3348  0.0127
  146SAPE   H4X16090   0.805   3.258  10.110 -2.2021  1.3183 -1.7050
  146SAPE   H4Y16091   0.980   3.223  10.111  0.1845 -0.0343 -1.6482
  146SAPE   C3516092   0.895   3.299   9.925  0.7054 -0.3886 -0.7683
  146SAPE   H5X16093   0.984   3.343   9.876  1.4253  0.2606  1.0366
  146SAPE   H5Y16094   0.811   3.370   9.909  0.5213 -0.5501 -0.5497
  146SAPE   C3616095   0.872   3.160   9.853 -0.0678 -0.3517 -0.6194
  146SAPE   H6X16096   0.802   3.104   9.918 -2.0232  2.0767 -0.4917
  146SAPE   H6Y16097   0.974   3.117   9.849 -0.9851 -2.5949 -1.3076
  146SAPE   C3716098   0.825   3.174   9.702 -0.0713 -0.0185  0.0919
  146SAPE   H7X16099   0.806   3.282   9.683  0.2168 -0.0388 -0.3151
  146SAPE   H7Y16100   0.728   3.124   9.682  0.1782 -0.1852 -0.7274
  146SAPE   C3816101   0.934   3.122   9.614 -1.0459  0.1753  0.2865
  146SAPE   H8X16102   0.964   3.021   9.650  0.7388  0.9003  0.9308
  146SAPE   H8Y16103   1.029   3.179   9.612 -1.4474  0.8324 -0.8681
  146SAPE   C3916104   0.880   3.100   9.468  0.8769  0.2577 -0.1198
  146SAPE   H9X16105   0.790   3.035   9.466  1.0119  0.0693 -0.0420
  146SAPE   H9Y16106   0.967   3.066   9.409 -0.3095 -0.5781 -1.4349
  146SAPE  C31016107   0.818   3.226   9.404  0.3340 -0.2821  0.0112
  146SAPE  H10X16108   0.885   3.315   9.401 -1.0609  0.8021 -0.0086
  146SAPE  H10Y16109   0.731   3.261   9.465  1.4152  1.9500  0.3953
  146SAPE  C31116110   0.763   3.209   9.256  0.5102 -0.1064 -0.2169
  146SAPE  H11X16111   0.730   3.311   9.228  1.0174 -0.6112 -2.9335
  146SAPE  H11Y16112   0.685   3.133   9.232  0.2721  0.3845 -1.0229
  146SAPE  C31216113   0.879   3.176   9.164 -0.3826  0.1412 -0.4329
  146SAPE  H12X16114   0.896   3.066   9.157 -2.9339 -0.3832  0.2060
  146SAPE  H12Y16115   0.975   3.216   9.201 -0.1836 -0.2848 -0.4812
  146SAPE  C31316116   0.851   3.215   9.013  0.1247 -0.3795  0.7272
  146SAPE  H13X16117   0.874   3.324   9.016 -0.3189 -0.1840 -1.3403
  146SAPE  H13Y16118   0.745   3.197   8.983  0.5486 -0.9667 -0.4503
  146SAPE  C31416119   0.945   3.137   8.921  0.0169  0.1927  0.1565
  146SAPE  H14X16120   0.937   3.027   8.934 -2.6478  0.5356  2.4463
  146SAPE  H14Y16121   1.052   3.164   8.935 -0.1101  0.2057  1.2254
  146SAPE  C31516122   0.927   3.171   8.766 -0.3727 -0.1544 -0.3314
  146SAPE  H15X16123   0.923   3.282   8.764  0.3913 -0.1223 -2.9319
  146SAPE  H15Y16124   0.827   3.137   8.733 -0.5939 -0.0629  0.2262
  146SAPE  C31616125   1.048   3.114   8.686  0.2672  0.3879 -0.1399
  146SAPE  H16X16126   1.041   3.003   8.679 -2.3610  0.3632  1.4554
  146SAPE  H16Y16127   1.142   3.128   8.744  0.1985 -0.9515  0.3370
  146SAPE  C31716128   1.075   3.163   8.541 -0.0120 -0.7085  0.3603
  146SAPE  H17X16129   1.140   3.087   8.493 -0.7336 -2.3398  1.8125
  146SAPE  H17Y16130   1.128   3.260   8.535  0.2164 -0.9253 -2.6483
  146SAPE  C31816131   0.949   3.177   8.447  0.2358  0.1025  0.3405
  146SAPE  H18X16132   0.968   3.248   8.364  2.4370 -0.1991  0.5320
  146SAPE  H18Y16133   0.859   3.219   8.498  0.6073  0.9223  0.3273
  146SAPE  H18Z16134   0.920   3.075   8.414 -1.4989  0.3898  0.8617
  147SAPE     N16135   1.977   2.026   6.196  0.5707  0.0745  0.0430
  147SAPE   HN116136   1.896   1.981   6.243 -0.7480  2.6817  0.5000
  147SAPE   HN216137   2.025   2.063   6.280  0.3854  0.8221 -0.1648
  147SAPE   HN316138   1.948   2.108   6.138 -2.0936  0.2534  1.4654
  147SAPE   C1216139   2.065   1.933   6.119 -0.3488  0.2551 -1.2326
  147SAPE  H12A16140   2.149   1.922   6.190 -0.1718  1.2349 -1.2751
  147SAPE  H12B16141   2.100   1.987   6.028  0.9831 -1.0888 -1.5561
  147SAPE   C1116142   2.005   1.800   6.085 -0.2839  0.7538 -0.4845
  147SAPE  H11A16143   2.078   1.738   6.028  0.4397  2.1854 -1.1701
  147SAPE  H11B16144   1.915   1.809   6.021  0.3538 -0.0006 -1.5387
  147SAPE     P16145   2.048   1.617   6.270  0.1742 -0.0643 -0.3867
  147SAPE   O1316146   2.023   1.503   6.182  0.1162  0.2350  0.1094
  147SAPE   O1416147   2.186   1.657   6.301 -0.2321 -0.0609  0.5287
  147SAPE   O1216148   1.965   1.738   6.209 -0.7183  0.2296 -0.4881
  147SAPE   O1116149   1.976   1.594   6.404 -0.2456 -0.1568  0.3929
  147SAPE    C116150   1.834   1.587   6.403 -0.2752 -0.5235  0.1678
  147SAPE    HA16151   1.782   1.545   6.314 -2.0649  2.2906 -0.2495
  147SAPE    HB16152   1.808   1.512   6.481  1.0086 -0.5815  0.5534
  147SAPE    C216153   1.759   1.724   6.437 -0.1128  0.8772 -0.6386
  147SAPE    HS16154   1.766   1.794   6.351 -0.6184  2.4392  0.5322
  147SAPE   O2116155   1.812   1.781   6.558 -0.0041  0.2566 -0.1960
  147SAPE   C2116156   1.847   1.907   6.547 -0.7968 -0.0034  0.0029
  147SAPE   O2216157   1.830   1.983   6.453 -0.5910  0.0452 -0.2008
  147SAPE   C2216158   1.911   1.948   6.676 -0.2480  0.1838 -0.1633
  147SAPE   H2R16159   2.002   1.886   6.685 -0.4704 -0.5109 -2.1656
  147SAPE   H2S16160   1.959   2.047   6.658 -2.3340  1.1074 -1.0416
  147SAPE    C316161   1.605   1.709   6.455 -0.7328 -0.4494 -0.0943
  147SAPE    HX16162   1.566   1.690   6.352  1.1976 -0.1703 -0.9246
  147SAPE    HY16163   1.558   1.801   6.494  1.2429 -0.1540  1.7926
  147SAPE   O3116164   1.576   1.592   6.532  0.5109  0.2046  0.3737
  147SAPE   C3116165   1.557   1.619   6.663 -0.1829 -0.1599  0.8013
  147SAPE   O3216166   1.562   1.730   6.711 -0.1931  0.4350  0.1258
  147SAPE   C3216167   1.516   1.484   6.727 -0.4826 -0.1254 -0.3073
  147SAPE   H2X16168   1.589   1.412   6.685 -1.4267 -1.6584  0.6254
  147SAPE   H2Y16169   1.412   1.465   6.695 -0.0241 -1.9186 -0.8151
  147SAPE   C2316170   1.823   1.936   6.800 -0.3725 -0.1982 -0.5817
  147SAPE   H3R16171   1.793   1.829   6.807 -0.8285 -0.2128 -2.3406
  147SAPE   H3S16172   1.730   1.993   6.780  0.2348  1.1743  0.3283
  147SAPE   C2416173   1.868   1.972   6.939 -0.5106 -0.0309 -0.4292
  147SAPE   H4R16174   1.958   1.915   6.972 -1.0971 -0.2453  0.8763
  147SAPE   H4S16175   1.791   1.946   7.014 -1.5637 -0.7965 -1.7410
  147SAPE   C2516176   1.893   2.120   6.955  0.7051 -0.7664 -0.6585
  147SAPE   H5R16177   1.949   2.160   6.869 -0.0922 -1.1291 -1.3606
  147SAPE   C2616178   1.863   2.205   7.053 -0.6738 -0.0793  0.5151
  147SAPE   H6R16179   1.893   2.308   7.031 -0.4402  0.1189  1.7030
  147SAPE   C2716180   1.793   2.169   7.187 -0.2941 -0.3330  0.7463
  147SAPE   H7R16181   1.702   2.114   7.156 -1.6562  2.6109 -0.8492
  147SAPE   H7S16182   1.746   2.261   7.227 -0.2883 -0.1710  0.3904
  147SAPE   C2816183   1.880   2.093   7.279 -0.0353 -0.3468  0.2480
  147SAPE   H8R16184   1.909   1.999   7.229  0.7558 -0.0162  0.0661
  147SAPE   C2916185   1.936   2.130   7.396 -0.2981  0.0577 -0.6761
  147SAPE   H9R16186   1.998   2.053   7.445 -1.6121 -0.7639 -0.2419
  147SAPE  C21016187   1.907   2.266   7.460 -0.0556 -1.0477 -1.0889
  147SAPE  H10R16188   1.819   2.327   7.428 -0.6385 -0.6705  1.0962
  147SAPE  H10S16189   1.991   2.330   7.426  0.6194 -1.5372 -0.3701
  147SAPE  C21116190   1.897   2.259   7.612 -0.2491  0.0175 -0.8777
  147SAPE  H11R16191   1.840   2.174   7.653 -0.6010  0.5390 -0.2673
  147SAPE  C21216192   1.956   2.329   7.707 -0.3674  0.2860 -1.2736
  147SAPE  H12R16193   1.930   2.307   7.812 -0.6328 -0.1950 -1.4405
  147SAPE  C21316194   2.055   2.447   7.691  0.3684  0.0356 -0.4254
  147SAPE  H13R16195   2.057   2.488   7.588  0.0595 -0.6080 -0.6923
  147SAPE  H13S16196   2.155   2.403   7.710  0.0491  0.5430  3.0928
  147SAPE  C21416197   2.014   2.543   7.803 -0.5142 -0.1447 -0.5869
  147SAPE  H14R16198   1.911   2.579   7.785  0.1998  1.5293 -1.6457
  147SAPE  C21516199   2.097   2.601   7.891 -0.7329 -0.9905 -1.0069
  147SAPE  H15R16200   2.047   2.654   7.973  0.4542 -1.3556 -0.0207
  147SAPE  C21616201   2.246   2.582   7.911 -0.1285  0.2612 -0.3055
  147SAPE  H16R16202   2.287   2.681   7.942 -1.5008  0.8360 -0.2551
  147SAPE  H16S16203   2.298   2.547   7.819  0.2761 -4.1172  1.3384
  147SAPE  C21716204   2.291   2.501   8.037  0.3361  0.1005  0.6741
  147SAPE  H17R16205   2.388   2.450   8.024 -0.1201 -0.6222  0.0196
  147SAPE  H17S16206   2.223   2.416   8.059  0.9226  0.0474  2.3732
  147SAPE  C21816207   2.300   2.584   8.158 -0.5707  0.1016 -0.3931
  147SAPE  H18R16208   2.196   2.622   8.170  0.1931  2.9725 -1.9315
  147SAPE  H18S16209   2.375   2.664   8.140  1.0463 -1.4379 -0.7420
  147SAPE  C21916210   2.339   2.517   8.287 -0.1022  0.0136 -0.1618
  147SAPE  H19R16211   2.442   2.478   8.275 -1.0714 -2.4338 -1.0259
  147SAPE  H19S16212   2.277   2.425   8.286 -0.7593  0.4377 -1.8938
  147SAPE  C22016213   2.341   2.606   8.409  0.2629  0.2698 -0.6035
  147SAPE  H20R16214   2.388   2.705   8.389  2.1913 -0.7972 -1.6435
  147SAPE  H20S16215   2.388   2.559   8.499 -1.6032  1.5885  1.1527
  147SAPE  H20T16216   2.234   2.621   8.435  0.4190  1.4336 -0.5742
  147SAPE   C3316217   1.527   1.500   6.884 -0.2711  0.5330  0.7190
  147SAPE   H3X16218   1.439   1.558   6.920  0.3836  0.9167  1.7099
  147SAPE   H3Y16219   1.621   1.552   6.909  0.3968  1.5060 -3.1059
  147SAPE   C3416220   1.521   1.365   6.962  0.4782 -0.3426 -0.7974
  147SAPE   H4X16221   1.595   1.291   6.924 -0.7453 -1.3710 -1.2623
  147SAPE   H4Y16222   1.418   1.323   6.948  0.5492 -0.8008 -0.0107
  147SAPE   C3516223   1.539   1.387   7.114 -0.5512  0.0671  0.3624
  147SAPE   H5X16224   1.619   1.460   7.141 -0.4470  0.1152 -0.0616
  147SAPE   H5Y16225   1.562   1.289   7.161 -3.0289 -0.1198  1.2922
  147SAPE   C3616226   1.420   1.447   7.182 -0.2140  0.7729 -0.1974
  147SAPE   H6X16227   1.331   1.383   7.160  0.7707 -0.9814  0.7195
  147SAPE   H6Y16228   1.402   1.552   7.150 -0.4613  0.4541 -1.1254
  147SAPE   C3716229   1.443   1.465   7.336  0.1261 -0.0875 -0.1869
  147SAPE   H7X16230   1.528   1.534   7.355 -0.1863  0.1161  0.5193
  147SAPE   H7Y16231   1.475   1.362   7.362 -1.3524 -0.8176 -1.1456
  147SAPE   C3816232   1.321   1.510   7.420 -0.0209 -0.1163 -0.2360
  147SAPE   H8X16233   1.234   1.451   7.385  0.5025 -1.3691  0.5344
  147SAPE   H8Y16234   1.306   1.616   7.387  3.2112 -0.1817 -2.3672
  147SAPE   C3916235   1.328   1.514   7.575  0.5236  0.3805 -0.5495
  147SAPE   H9X16236   1.244   1.568   7.623  1.8593  1.2039  0.9451
  147SAPE   H9Y16237   1.430   1.549   7.603  0.4106 -1.6046  2.8726
  147SAPE  C31016238   1.331   1.370   7.642 -0.4652 -0.4253  0.3911
  147SAPE  H10X16239   1.391   1.302   7.577 -2.2062 -0.2258 -1.5191
  147SAPE  H10Y16240   1.224   1.341   7.643 -0.2748 -1.2344 -0.6599
  147SAPE  C31116241   1.371   1.363   7.790  0.5978 -0.1110 -0.0975
  147SAPE  H11X16242   1.482   1.363   7.796  0.6915  0.1673 -1.4618
  147SAPE  H11Y16243   1.327   1.270   7.831  1.5804  0.1898  1.7416
  147SAPE  C31216244   1.336   1.489   7.872 -0.4374 -0.2858  0.4650
  147SAPE  H12X16245   1.230   1.515   7.849 -1.3761 -2.0992  2.4615
  147SAPE  H12Y16246   1.408   1.567   7.837  0.4308 -1.2378  0.0942
  147SAPE  C31316247   1.349   1.458   8.016  0.0270 -0.2480 -0.1635
  147SAPE  H13X16248   1.455   1.434   8.038  0.7257  0.3473 -2.5644
  147SAPE  H13Y16249   1.292   1.368   8.047  0.8223 -0.3558  1.0850
  147SAPE  C31416250   1.310   1.581   8.105 -0.4231  0.3565 -0.3754
  147SAPE  H14X16251   1.201   1.596   8.088 -0.2408  2.1525 -0.2228
  147SAPE  H14Y16252   1.362   1.668   8.060 -0.7995  0.5862 -0.3757
  147SAPE  C31516253   1.343   1.553   8.249 -0.5773  0.1236 -0.6318
  147SAPE  H15X16254   1.442   1.514   8.279 -0.7863  0.4612  0.5700
  147SAPE  H15Y16255   1.267   1.488   8.297  1.2260 -0.7195  1.2147
  147SAPE  C31616256   1.337   1.685   8.333 -0.4711  0.1732  0.3707
  147SAPE  H16X16257   1.340   1.664   8.442  1.9888  0.6855  0.4600
  147SAPE  H16Y16258   1.243   1.740   8.310  0.2655  1.5949  0.5962
  147SAPE  C31716259   1.466   1.767   8.311 -0.0539 -0.4361  0.3009
  147SAPE  H17X16260   1.510   1.737   8.214 -2.4095  2.0869 -1.7424
  147SAPE  H17Y16261   1.550   1.735   8.377  0.0394 -0.5464  0.1288
  147SAPE  C31816262   1.465   1.921   8.324 -0.8232  0.7854  0.5684
  147SAPE  H18X16263   1.426   1.943   8.426 -1.2580 -0.5011  0.6998
  147SAPE  H18Y16264   1.400   1.954   8.240 -1.3152 -2.2685 -0.3845
  147SAPE  H18Z16265   1.564   1.970   8.321 -0.8857  0.9970  1.6138
  148SAPE     N16266   5.968   3.227   6.461 -0.7504  0.0109  0.2020
  148SAPE   HN116267   6.042   3.234   6.534 -0.8460 -1.0785  0.4182
  148SAPE   HN216268   5.878   3.263   6.499 -0.2894  0.0093  1.3208
  148SAPE   HN316269   5.940   3.129   6.444 -2.2549  0.5257 -0.4832
  148SAPE   C1216270   6.017   3.306   6.348 -0.6037 -0.5392  0.0828
  148SAPE  H12A16271   5.995   3.411   6.376  2.9296  1.0358 -2.2721
  148SAPE  H12B16272   5.960   3.274   6.259 -0.8630 -1.8645  0.6970
  148SAPE   C1116273   6.166   3.283   6.339 -0.5034 -0.2466 -0.3377
  148SAPE  H11A16274   6.214   3.304   6.437  1.7080  0.0665 -1.4416
  148SAPE  H11B16275   6.202   3.361   6.269 -0.1246  1.7176  1.9284
  148SAPE     P16276   6.346   3.120   6.228  0.4331 -0.2547 -0.3367
  148SAPE   O1316277   6.338   2.989   6.151  0.5438 -0.2028 -0.1794
  148SAPE   O1416278   6.391   3.241   6.148  0.0867 -0.3665 -0.0739
  148SAPE   O1216279   6.203   3.154   6.287 -0.1003 -0.0878 -0.0373
  148SAPE   O1116280   6.439   3.111   6.355 -0.3887 -0.4175  0.0880
  148SAPE    C116281   6.392   3.054   6.473 -0.0816 -0.2515 -0.0773
  148SAPE    HA16282   6.335   3.133   6.528 -0.1993 -1.0781  1.0327
  148SAPE    HB16283   6.326   2.965   6.464 -0.1536 -0.3626  1.2448
  148SAPE    C216284   6.507   3.031   6.571 -0.2945 -0.5650 -0.0222
  148SAPE    HS16285   6.607   3.038   6.521  0.2556 -0.8293  1.0204
  148SAPE   O2116286   6.499   2.897   6.625  0.1052 -0.2468 -0.2997
  148SAPE   C2116287   6.498   2.792   6.548  0.5885 -1.1873  0.5406
  148SAPE   O2216288   6.526   2.780   6.426  0.1921 -0.4111 -0.0711
  148SAPE   C2216289   6.455   2.674   6.632  0.6837  0.5069  0.7539
  148SAPE   H2R16290   6.541   2.657   6.701  1.7085  0.6551 -0.4352
  148SAPE   H2S16291   6.364   2.700   6.689  1.5330 -0.9455  2.9151
  148SAPE    C316292   6.521   3.127   6.690 -0.3103 -0.2585 -0.0271
  148SAPE    HX16293   6.429   3.114   6.751 -1.0671 -0.9962 -1.2892
  148SAPE    HY16294   6.535   3.229   6.650  0.2714 -0.3164  0.0231
  148SAPE   O3116295   6.639   3.096   6.762  0.0908 -0.4184 -0.4475
  148SAPE   C3116296   6.637   3.125   6.889 -0.3126 -0.3151 -0.2439
  148SAPE   O3216297   6.540   3.160   6.952  0.1058 -0.3154 -0.0920
  148SAPE   C3216298   6.777   3.107   6.949  0.2242 -0.1817  1.3412
  148SAPE   H2X16299   6.842   3.166   6.881  0.5073 -0.5448  1.2954
  148SAPE   H2Y16300   6.814   3.003   6.933  1.8236  0.3462  1.3963
  148SAPE   C2316301   6.422   2.548   6.546  0.1292 -1.6089  0.5363
  148SAPE   H3R16302   6.514   2.517   6.492  1.8070  0.0023  2.3170
  148SAPE   H3S16303   6.339   2.562   6.473 -0.1962 -0.8192  1.0437
  148SAPE   C2416304   6.374   2.439   6.631  0.1675  0.1463 -0.3534
  148SAPE   H4R16305   6.303   2.481   6.706  0.0720 -0.7880  0.0862
  148SAPE   H4S16306   6.462   2.407   6.690 -0.8337  0.2058  1.2337
  148SAPE   C2516307   6.312   2.319   6.564 -0.9209 -0.0840  0.1382
  148SAPE   H5R16308   6.356   2.288   6.468  0.3980  1.0957  0.3279
  148SAPE   C2616309   6.198   2.252   6.608 -0.2348 -0.1184 -0.0392
  148SAPE   H6R16310   6.161   2.165   6.552 -1.9792  1.2918 -1.1916
  148SAPE   C2716311   6.131   2.290   6.731 -0.0338  0.1335  0.4116
  148SAPE   H7R16312   6.055   2.368   6.711  0.9443  0.8792 -0.4981
  148SAPE   H7S16313   6.202   2.332   6.805 -1.2391 -0.2258  1.8283
  148SAPE   C2816314   6.066   2.171   6.796  0.3720  0.1460 -0.2749
  148SAPE   H8R16315   6.002   2.119   6.723  1.7092 -0.0280 -1.3609
  148SAPE   C2916316   6.084   2.135   6.923  0.1661 -0.1904 -0.6782
  148SAPE   H9R16317   6.022   2.052   6.961 -0.7507  1.2489  1.0961
  148SAPE  C21016318   6.169   2.205   7.026 -0.1731  0.2616  0.0641
  148SAPE  H10R16319   6.253   2.260   6.978 -1.3278 -0.4226 -2.9547
  148SAPE  H10S16320   6.227   2.136   7.091  0.4910  1.6174  0.9548
  148SAPE  C21116321   6.090   2.299   7.100  0.4370 -0.8270  0.2813
  148SAPE  H11R16322   6.027   2.359   7.033  2.4569  1.3474  0.2127
  148SAPE  C21216323   6.113   2.333   7.229 -0.2268 -0.0282 -0.0721
  148SAPE  H12R16324   6.052   2.416   7.267 -2.0327 -1.7578  1.0263
  148SAPE  C21316325   6.213   2.278   7.323  0.0883  0.1991  0.0572
  148SAPE  H13R16326   6.289   2.219   7.268 -1.0011 -0.1123 -1.1570
  148SAPE  H13S16327   6.158   2.202   7.383  0.1272  1.3420  1.6142
  148SAPE  C21416328   6.277   2.374   7.420 -0.6694  0.2506 -0.3204
  148SAPE  H14R16329   6.378   2.406   7.390 -0.7275  0.3594 -0.3992
  148SAPE  C21516330   6.216   2.416   7.532 -0.1516 -0.0847 -1.0201
  148SAPE  H15R16331   6.269   2.484   7.599  1.1042  0.3368 -2.3799
  148SAPE  C21616332   6.078   2.390   7.587  0.3118  1.0136 -0.3442
  148SAPE  H16R16333   6.021   2.347   7.502  2.1424 -2.2793 -0.0621
  148SAPE  H16S16334   6.020   2.480   7.620 -0.1915 -0.3254  2.8612
  148SAPE  C21716335   6.055   2.296   7.709  0.0002  0.6655 -0.0626
  148SAPE  H17R16336   6.093   2.192   7.697 -1.0279  0.1416  1.0514
  148SAPE  H17S16337   5.944   2.285   7.716 -0.0399  0.8288 -0.4239
  148SAPE  C21816338   6.101   2.352   7.850 -0.4339 -0.3328 -0.5655
  148SAPE  H18R16339   6.194   2.407   7.823 -2.1070  3.3287  0.4405
  148SAPE  H18S16340   6.118   2.278   7.931 -1.4686  0.2139  0.1844
  148SAPE  C21916341   6.025   2.471   7.903 -0.3096  0.0457  0.1172
  148SAPE  H19R16342   5.920   2.436   7.912 -0.1766 -0.4486 -0.2438
  148SAPE  H19S16343   6.034   2.555   7.831  2.8068  0.5103  0.8925
  148SAPE  C22016344   6.090   2.527   8.031  0.0206  0.3222 -0.2084
  148SAPE  H20R16345   6.199   2.550   8.030  0.0827  0.1147  0.7207
  148SAPE  H20S16346   6.081   2.450   8.111  1.0036  0.4121 -0.0004
  148SAPE  H20T16347   6.033   2.610   8.076 -0.7463 -1.4893  2.3786
  148SAPE   C3316348   6.790   3.162   7.086  0.7015  0.0627 -0.3176
  148SAPE   H3X16349   6.736   3.258   7.077 -0.4597 -0.4782  0.5835
  148SAPE   H3Y16350   6.894   3.183   7.120  0.2769 -0.6356  1.5509
  148SAPE   C3416351   6.725   3.077   7.195 -0.0151  0.2227  0.3805
  148SAPE   H4X16352   6.762   2.973   7.198 -0.7290 -0.1633 -2.0263
  148SAPE   H4Y16353   6.614   3.081   7.198 -0.0516 -0.2176 -0.0916
  148SAPE   C3516354   6.764   3.139   7.331 -0.4146  0.0035 -0.5744
  148SAPE   H5X16355   6.732   3.245   7.332 -1.7857 -0.3207 -2.6008
  148SAPE   H5Y16356   6.873   3.146   7.352 -0.7538  2.2221  0.7738
  148SAPE   C3616357   6.704   3.055   7.448  0.3404 -0.1800  0.4362
  148SAPE   H6X16358   6.738   2.950   7.438 -0.3907 -0.4174  0.4171
  148SAPE   H6Y16359   6.593   3.048   7.456  0.4061 -3.3124 -0.0423
  148SAPE   C3716360   6.757   3.116   7.579  0.0097  0.3615  0.0961
  148SAPE   H7X16361   6.719   3.220   7.591 -2.4763 -0.3154 -1.2599
  148SAPE   H7Y16362   6.868   3.119   7.588 -0.1461  1.6346  2.5255
  148SAPE   C3816363   6.700   3.033   7.697  0.3495  0.1668  0.1626
  148SAPE   H8X16364   6.767   2.945   7.707 -0.2406 -0.5328 -1.5849
  148SAPE   H8Y16365   6.593   3.004   7.686  0.7037 -1.9524  1.7026
  148SAPE   C3916366   6.714   3.119   7.825  0.7504 -1.2489  0.9173
  148SAPE   H9X16367   6.667   3.218   7.806  0.0554 -1.7465 -0.0319
  148SAPE   H9Y16368   6.821   3.148   7.836  0.0382  1.4100  1.4651
  148SAPE  C31016369   6.653   3.076   7.955 -0.4632  0.8366  0.7389
  148SAPE  H10X16370   6.716   2.991   7.988  1.9707  1.6730 -1.4389
  148SAPE  H10Y16371   6.546   3.049   7.943 -0.4219  0.5272  1.0575
  148SAPE  C31116372   6.666   3.174   8.071 -0.0234  0.7006 -0.0061
  148SAPE  H11X16373   6.620   3.271   8.045  1.2388  0.8007 -2.1793
  148SAPE  H11Y16374   6.776   3.186   8.077  0.3505 -1.3499 -1.4515
  148SAPE  C31216375   6.617   3.115   8.202 -0.9297 -0.6140 -0.1495
  148SAPE  H12X16376   6.639   3.009   8.226 -3.7983 -1.1765  0.4448
  148SAPE  H12Y16377   6.506   3.123   8.198 -0.8607  0.1785 -0.6847
  148SAPE  C31316378   6.669   3.203   8.328 -0.2749 -0.3902 -0.0028
  148SAPE  H13X16379   6.679   3.309   8.299  0.7006 -0.6009 -0.4518
  148SAPE  H13Y16380   6.767   3.167   8.366  0.4777  1.2391 -0.3125
  148SAPE  C31416381   6.553   3.196   8.427  0.0423 -0.2577 -0.1878
  148SAPE  H14X16382   6.523   3.090   8.439  0.5789 -0.4431 -0.4707
  148SAPE  H14Y16383   6.460   3.249   8.395 -0.9020  0.2197  3.0309
  148SAPE  C31516384   6.587   3.246   8.570 -0.3358  1.0410 -0.0275
  148SAPE  H15X16385   6.605   3.356   8.574  0.4708  0.8944  0.6535
  148SAPE  H15Y16386   6.679   3.198   8.609  2.1887  4.9425 -0.6386
  148SAPE  C31616387   6.483   3.200   8.682 -0.7520 -0.0440 -0.2947
  148SAPE  H16X16388   6.537   3.222   8.777  2.0004 -1.0241 -1.5226
  148SAPE  H16Y16389   6.467   3.090   8.682  1.1000 -0.3533  0.4711
  148SAPE  C31716390   6.356   3.270   8.670  0.1637  0.1628  0.1620
  148SAPE  H17X16391   6.321   3.244   8.568  3.9567  0.0819 -1.3150
  148SAPE  H17Y16392   6.373   3.380   8.666  0.4393  0.1554  0.9065
  148SAPE  C31816393   6.254   3.240   8.778  0.7629 -0.4372  0.2992
  148SAPE  H18X16394   6.298   3.275   8.874 -0.3223 -1.1336  1.0711
  148SAPE  H18Y16395   6.235   3.133   8.799  0.2170 -0.2130  0.9863
  148SAPE  H18Z16396   6.160   3.294   8.752  0.5248 -0.8665  0.2528
  149SAPE     N16397   6.744   6.431   6.383  0.5312  0.1240 -0.2495
  149SAPE   HN116398   6.783   6.335   6.374  0.8254  0.3428 -1.4765
  149SAPE   HN216399   6.644   6.428   6.409  0.9691 -1.0054  1.4769
  149SAPE   HN316400   6.759   6.488   6.298  2.0932 -0.0098 -0.1049
  149SAPE   C1216401   6.824   6.486   6.502 -0.3112 -0.4916  0.5717
  149SAPE  H12A16402   6.915   6.531   6.456 -1.7254  1.9786  0.0227
  149SAPE  H12B16403   6.850   6.397   6.564  0.8145 -1.3428 -1.0188
  149SAPE   C1116404   6.759   6.601   6.573  0.5623 -0.3306 -0.1666
  149SAPE  H11A16405   6.803   6.611   6.674  0.5373 -1.2739 -0.0556
  149SAPE  H11B16406   6.652   6.572   6.569  0.0849  1.4485 -1.5688
  149SAPE     P16407   6.872   6.797   6.426  0.3682  0.4493 -0.3741
  149SAPE   O1316408   6.998   6.742   6.474  0.3842 -0.2201  0.3734
  149SAPE   O1416409   6.832   6.791   6.286  0.3251  0.5808 -0.7112
  149SAPE   O1216410   6.763   6.729   6.513  0.5253  0.6305  0.0129
  149SAPE   O1116411   6.865   6.940   6.484 -0.0758  0.7328 -0.4469
  149SAPE    C116412   6.883   6.985   6.616 -0.5535  0.0073  0.2262
  149SAPE    HA16413   6.916   6.907   6.687 -0.1563 -1.4744 -1.5212
  149SAPE    HB16414   6.963   7.062   6.613  1.3224 -1.8098  1.2278
  149SAPE    C216415   6.765   7.063   6.674 -0.6519  0.1868 -0.3723
  149SAPE    HS16416   6.798   7.110   6.769 -2.3014 -0.5049  0.5752
  149SAPE   O2116417   6.659   6.976   6.705 -1.0457  0.5080  0.2458
  149SAPE   C2116418   6.667   6.889   6.805 -0.1059  0.1239 -0.1649
  149SAPE   O2216419   6.764   6.873   6.881 -0.7346  0.0673  0.2226
  149SAPE   C2216420   6.531   6.814   6.820  0.4596  0.0992  0.4561
  149SAPE   H2R16421   6.456   6.894   6.840 -1.2566 -0.7270 -2.1486
  149SAPE   H2S16422   6.503   6.775   6.720  0.5670  1.3054 -0.0689
  149SAPE    C316423   6.721   7.183   6.590  0.3535  0.5416 -0.4131
  149SAPE    HX16424   6.701   7.144   6.488  0.9716 -0.4858 -0.1619
  149SAPE    HY16425   6.809   7.249   6.586  1.1108 -0.2929  1.3212
  149SAPE   O3116426   6.615   7.258   6.650  0.3434  0.4506  0.4136
  149SAPE   C3116427   6.493   7.233   6.606  0.1343 -0.0417 -0.3080
  149SAPE   O3216428   6.460   7.167   6.506  0.0725  0.1072 -0.1089
  149SAPE   C3216429   6.390   7.285   6.708  0.4012 -0.2206 -0.1101
  149SAPE   H2X16430   6.295   7.290   6.651 -0.8227  1.0415  1.9320
  149SAPE   H2Y16431   6.416   7.392   6.722 -2.5657  0.2193  3.2584
  149SAPE   C2316432   6.525   6.729   6.951  0.3889 -0.0980 -0.0979
  149SAPE   H3R16433   6.529   6.797   7.039  0.3857 -0.1219 -0.0792
  149SAPE   H3S16434   6.614   6.662   6.957  0.5102  0.1149  0.6127
  149SAPE   C2416435   6.410   6.634   6.971  0.8395  0.5311  0.5926
  149SAPE   H4R16436   6.426   6.565   7.057 -3.3393  0.6114  1.6579
  149SAPE   H4S16437   6.402   6.566   6.884 -1.6121  1.1992  0.2005
  149SAPE   C2516438   6.288   6.720   6.977  0.4835  0.1698 -0.0624
  149SAPE   H5R16439   6.220   6.708   6.892 -1.0959  1.9816  0.8531
  149SAPE   C2616440   6.241   6.792   7.086  0.4515  0.6174  0.6436
  149SAPE   H6R16441   6.152   6.855   7.078 -0.9110 -1.4488 -2.0486
  149SAPE   C2716442   6.325   6.807   7.214  0.1620 -0.3723 -0.9113
  149SAPE   H7R16443   6.373   6.907   7.222  0.5697 -0.4973 -1.6916
  149SAPE   H7S16444   6.407   6.732   7.223 -1.5306 -2.1449  0.8908
  149SAPE   C2816445   6.242   6.805   7.338 -0.2773  0.4380 -0.3056
  149SAPE   H8R16446   6.211   6.905   7.373  2.0068  0.2891  2.5293
  149SAPE   C2916447   6.217   6.698   7.422 -0.1715 -0.0243 -0.8317
  149SAPE   H9R16448   6.153   6.706   7.512 -0.1430  1.7993 -0.9476
  149SAPE  C21016449   6.272   6.563   7.409 -0.1052 -0.0726 -0.1198
  149SAPE  H10R16450   6.299   6.534   7.305  1.0150  0.8161 -0.0985
  149SAPE  H10S16451   6.200   6.483   7.437 -2.3037  0.5236 -3.5048
  149SAPE  C21116452   6.392   6.546   7.503 -0.0240 -0.9803 -0.1812
  149SAPE  H11R16453   6.486   6.543   7.446 -0.0730  0.4081 -0.3666
  149SAPE  C21216454   6.392   6.510   7.637  0.1272  1.3007 -0.2564
  149SAPE  H12R16455   6.488   6.505   7.690  0.8194 -2.0066 -1.5549
  149SAPE  C21316456   6.272   6.488   7.726 -0.0176  0.4987  0.9868
  149SAPE  H13R16457   6.271   6.377   7.728  2.4430  0.4259  2.1329
  149SAPE  H13S16458   6.178   6.515   7.674 -0.1222 -1.7415 -0.1190
  149SAPE  C21416459   6.285   6.527   7.868  0.5105  0.5833  0.1215
  149SAPE  H14R16460   6.368   6.486   7.927  0.1590  0.5817  0.6149
  149SAPE  C21516461   6.209   6.619   7.929 -0.0848  1.0312  0.5309
  149SAPE  H15R16462   6.223   6.626   8.038 -0.7474 -0.9609  0.7969
  149SAPE  C21616463   6.096   6.705   7.873  0.1265 -0.1077 -0.3447
  149SAPE  H16R16464   5.996   6.657   7.864 -0.2746  1.0115 -2.2064
  149SAPE  H16S16465   6.131   6.740   7.774 -1.1293 -0.0590 -0.7993
  149SAPE  C21716466   6.088   6.845   7.941  0.4303 -0.3893  0.4193
  149SAPE  H17R16467   6.186   6.896   7.929  0.7019 -0.3727  2.4866
  149SAPE  H17S16468   6.070   6.830   8.049  0.9910  0.3321  0.6210
  149SAPE  C21816469   5.989   6.940   7.874 -0.9193  1.0897 -0.5320
  149SAPE  H18R16470   6.025   6.953   7.770 -2.8734  1.0801 -1.2531
  149SAPE  H18S16471   5.995   7.031   7.939  0.3148  1.2848 -0.9090
  149SAPE  C21916472   5.845   6.886   7.871 -0.1212  0.0607 -0.3962
  149SAPE  H19R16473   5.818   6.870   7.977  0.5545  0.7639 -0.1101
  149SAPE  H19S16474   5.838   6.787   7.819  0.8463 -1.7370  2.6328
  149SAPE  C22016475   5.736   6.975   7.797  0.4068 -0.1265  0.6623
  149SAPE  H20R16476   5.766   7.007   7.695  1.5711  1.4226  1.4523
  149SAPE  H20S16477   5.718   7.067   7.856  1.0500  1.7979 -1.9623
  149SAPE  H20T16478   5.639   6.920   7.790 -0.4696  1.4626 -0.2820
  149SAPE   C3316479   6.387   7.210   6.840 -0.2474 -0.2038  0.1284
  149SAPE   H3X16480   6.485   7.229   6.889 -0.7587 -0.0566  1.1262
  149SAPE   H3Y16481   6.370   7.100   6.831 -1.9384 -0.0891  1.5619
  149SAPE   C3416482   6.273   7.263   6.934 -0.6022 -0.1031  0.2823
  149SAPE   H4X16483   6.243   7.366   6.903 -1.1064 -0.4131 -0.3017
  149SAPE   H4Y16484   6.318   7.270   7.035 -3.5441  0.0212  1.6843
  149SAPE   C3516485   6.154   7.164   6.948  0.3434  0.5825  0.4076
  149SAPE   H5X16486   6.197   7.063   6.966 -1.4056  0.2135  3.1463
  149SAPE   H5Y16487   6.106   7.158   6.848  0.0913 -0.5286  0.5840
  149SAPE   C3616488   6.050   7.207   7.050 -1.1166  0.6025 -0.2297
  149SAPE   H6X16489   5.954   7.153   7.033 -0.0230 -1.4388 -0.2749
  149SAPE   H6Y16490   6.033   7.315   7.032 -0.0485  0.6992 -0.7395
  149SAPE   C3716491   6.111   7.177   7.190 -0.0511 -0.5012 -0.0706
  149SAPE   H7X16492   6.202   7.240   7.207 -0.1696 -0.5591  0.8292
  149SAPE   H7Y16493   6.151   7.074   7.195  0.9531 -0.0865  1.0939
  149SAPE   C3816494   6.002   7.208   7.305 -0.3167 -0.0501  0.1188
  149SAPE   H8X16495   5.904   7.170   7.268  0.4515  1.3777 -3.8178
  149SAPE   H8Y16496   5.992   7.318   7.313  0.5573  0.0031  0.6360
  149SAPE   C3916497   6.036   7.135   7.435 -0.5868  0.2197 -0.0709
  149SAPE   H9X16498   6.144   7.151   7.453 -0.8024 -0.3465  2.0163
  149SAPE   H9Y16499   6.031   7.024   7.423 -1.1787  0.3588 -1.1989
  149SAPE  C31016500   5.975   7.187   7.565  0.1391  0.0081 -0.1044
  149SAPE  H10X16501   6.011   7.103   7.627  0.7804 -0.9675 -1.7124
  149SAPE  H10Y16502   5.864   7.194   7.574  0.2720  1.7771  0.4992
  149SAPE  C31116503   6.035   7.311   7.629  0.2066 -0.1476 -0.5142
  149SAPE  H11X16504   6.009   7.404   7.575  0.7026  1.0219  1.1759
  149SAPE  H11Y16505   6.143   7.291   7.608 -0.4171 -1.9368 -2.3276
  149SAPE  C31216506   6.014   7.315   7.781 -0.0998  0.0546 -0.1407
  149SAPE  H12X16507   6.099   7.376   7.818  0.9147 -1.2760 -0.1988
  149SAPE  H12Y16508   6.024   7.211   7.820 -2.4040 -0.5089 -0.8734
  149SAPE  C31316509   5.884   7.381   7.815 -0.4788  0.4070  0.0087
  149SAPE  H13X16510   5.815   7.356   7.731  2.6749 -2.7517 -1.9281
  149SAPE  H13Y16511   5.893   7.491   7.830  1.0679  0.3237 -0.1490
  149SAPE  C31416512   5.845   7.329   7.954 -0.0996 -0.0181  0.2905
  149SAPE  H14X16513   5.936   7.344   8.016 -0.6727  2.1724  0.6647
  149SAPE  H14Y16514   5.829   7.219   7.946 -0.5497  0.2040 -3.3166
  149SAPE  C31516515   5.717   7.390   8.026  0.1528  0.6445  0.4410
  149SAPE  H15X16516   5.633   7.378   7.954  1.2698 -0.4469 -0.7358
  149SAPE  H15Y16517   5.750   7.495   8.034  1.3465  0.3946 -0.8146
  149SAPE  C31616518   5.684   7.338   8.160  0.2854 -0.5059 -0.4675
  149SAPE  H16X16519   5.607   7.403   8.208  1.0371  2.1408 -2.5664
  149SAPE  H16Y16520   5.772   7.334   8.228  0.1644 -3.0277 -0.3780
  149SAPE  C31716521   5.641   7.195   8.154 -0.0125  0.2593 -1.1135
  149SAPE  H17X16522   5.689   7.134   8.074  0.2388 -4.5388  2.2912
  149SAPE  H17Y16523   5.536   7.193   8.119  0.1022  2.4671 -1.7550
  149SAPE  C31816524   5.647   7.101   8.277  0.2294 -0.0030 -0.3964
  149SAPE  H18X16525   5.589   7.008   8.258 -1.4298  1.0869 -0.8617
  149SAPE  H18Y16526   5.584   7.149   8.355 -3.9066 -1.7167 -2.3473
  149SAPE  H18Z16527   5.753   7.089   8.307 -0.2248 -0.4103  1.0944
  150SAPE     N16528   1.083   2.534   6.261  0.4731  0.4402  0.4793
  150SAPE   HN116529   1.168   2.474   6.252  1.4743  1.7903  0.5726
  150SAPE   HN216530   1.078   2.574   6.357 -0.1465  2.2124 -0.2499
  150SAPE   HN316531   0.992   2.488   6.240  1.4859 -1.1785 -0.6095
  150SAPE   C1216532   1.125   2.639   6.167  0.3203  0.1317 -0.3145
  150SAPE  H12A16533   1.041   2.710   6.155  1.1498  1.2446  0.3322
  150SAPE  H12B16534   1.152   2.586   6.073  0.0407 -1.1312  0.2984
  150SAPE   C1116535   1.247   2.711   6.221 -0.1331  0.2117  0.7008
  150SAPE  H11A16536   1.225   2.746   6.325 -0.3486 -0.7024  0.9690
  150SAPE  H11B16537   1.266   2.800   6.157  1.6458  1.0020  2.2272
  150SAPE     P16538   1.498   2.670   6.238 -0.2857 -0.2894  0.3052
  150SAPE   O1316539   1.589   2.582   6.153 -0.2991 -0.4310  0.3811
  150SAPE   O1416540   1.509   2.811   6.207  0.5767  0.0656  0.1875
  150SAPE   O1216541   1.353   2.623   6.210 -0.4775 -0.3117  0.0337
  150SAPE   O1116542   1.526   2.634   6.391 -0.8853 -0.9988 -0.0880
  150SAPE    C116543   1.443   2.545   6.469 -0.1870 -0.2353 -0.3570
  150SAPE    HA16544   1.336   2.567   6.450 -0.4175  0.6358  1.6903
  150SAPE    HB16545   1.465   2.439   6.446 -1.9971 -0.5968 -0.5043
  150SAPE    C216546   1.462   2.555   6.629  0.0643  0.1096  0.2000
  150SAPE    HS16547   1.363   2.533   6.675 -0.7230 -0.2402 -1.5767
  150SAPE   O2116548   1.502   2.685   6.656  1.0828  0.1554 -0.5832
  150SAPE   C2116549   1.410   2.770   6.671 -0.4258 -0.0358 -0.7313
  150SAPE   O2216550   1.293   2.749   6.657  0.0594  0.4609 -0.2359
  150SAPE   C2216551   1.469   2.896   6.718 -0.6440  0.0449  0.4275
  150SAPE   H2R16552   1.573   2.899   6.680 -1.0183  2.2749 -0.5709
  150SAPE   H2S16553   1.413   2.983   6.677  0.1009 -0.2586 -1.2962
  150SAPE    C316554   1.555   2.456   6.703 -0.2768 -0.1453 -0.0514
  150SAPE    HX16555   1.661   2.475   6.674 -0.4904  0.1104 -0.6755
  150SAPE    HY16556   1.525   2.357   6.663 -0.6751  0.2514 -0.7613
  150SAPE   O3116557   1.526   2.455   6.845 -0.1397 -0.4193 -0.7058
  150SAPE   C3116558   1.623   2.482   6.931  0.4829 -0.7082  0.0497
  150SAPE   O3216559   1.734   2.510   6.904 -0.1093 -0.0591  0.2576
  150SAPE   C3216560   1.567   2.463   7.072 -0.0407  0.2113  0.2549
  150SAPE   H2X16561   1.580   2.353   7.088 -0.4089  0.2500  0.8220
  150SAPE   H2Y16562   1.457   2.474   7.074 -0.2677 -1.6801  0.7083
  150SAPE   C2316563   1.475   2.913   6.878  0.2972  0.8287  0.1583
  150SAPE   H3R16564   1.512   3.015   6.902 -0.4347  1.2506 -0.4667
  150SAPE   H3S16565   1.542   2.838   6.925 -1.4856 -1.3288 -0.6146
  150SAPE   C2416566   1.335   2.906   6.944  0.0351 -0.8277 -0.2163
  150SAPE   H4R16567   1.331   2.915   7.055  3.6203 -1.5228  0.1056
  150SAPE   H4S16568   1.299   2.803   6.925  1.8792 -1.7275  0.8143
  150SAPE   C2516569   1.253   3.013   6.875  0.2648  0.1543 -0.2214
  150SAPE   H5R16570   1.218   2.981   6.776 -0.9298 -1.7511  0.7673
  150SAPE   C2616571   1.225   3.138   6.922 -0.2673 -0.0652  0.7230
  150SAPE   H6R16572   1.182   3.210   6.851  0.9121  0.3098  0.3629
  150SAPE   C2716573   1.262   3.187   7.061  0.4000  0.5968 -0.2476
  150SAPE   H7R16574   1.363   3.231   7.050  0.4395  1.5635  2.8635
  150SAPE   H7S16575   1.262   3.107   7.139 -0.1479  0.6230 -0.2179
  150SAPE   C2816576   1.168   3.294   7.103 -0.6235  0.5133  0.3762
  150SAPE   H8R16577   1.064   3.258   7.112  0.4170 -2.1042  4.1844
  150SAPE   C2916578   1.207   3.418   7.152 -0.0892  0.4399 -0.0075
  150SAPE   H9R16579   1.122   3.480   7.185 -0.5097 -0.4971  0.7411
  150SAPE  C21016580   1.349   3.465   7.167 -0.4569 -0.7075  0.3769
  150SAPE  H10R16581   1.407   3.385   7.217 -1.3958 -0.3680  2.0864
  150SAPE  H10S16582   1.354   3.544   7.245 -1.2426 -0.8129  0.5470
  150SAPE  C21116583   1.413   3.531   7.045  1.0046  0.5014 -0.1018
  150SAPE  H11R16584   1.365   3.514   6.947 -1.2231  2.5321  0.5158
  150SAPE  C21216585   1.516   3.610   7.050 -0.3408 -0.3156 -0.2978
  150SAPE  H12R16586   1.543   3.673   6.964  0.4286 -0.3463 -0.0825
  150SAPE  C21316587   1.595   3.651   7.173  0.0031 -0.1906  0.3209
  150SAPE  H13R16588   1.668   3.570   7.195 -0.2734 -0.3050  0.8327
  150SAPE  H13S16589   1.529   3.641   7.262 -0.9433  0.4493 -0.2920
  150SAPE  C21416590   1.668   3.780   7.156  0.4929 -0.1802 -0.2331
  150SAPE  H14R16591   1.764   3.787   7.104  0.1553 -1.0911 -1.0024
  150SAPE  C21516592   1.623   3.900   7.197 -0.2213  0.3730  0.1207
  150SAPE  H15R16593   1.689   3.989   7.191 -0.8171  0.7724 -0.6232
  150SAPE  C21616594   1.486   3.929   7.262 -0.3540 -0.1526 -0.7196
  150SAPE  H16R16595   1.422   3.839   7.254 -0.5703 -0.1359  0.6941
  150SAPE  H16S16596   1.429   4.013   7.217  0.9791  1.5951  0.7059
  150SAPE  C21716597   1.505   3.958   7.414  0.6992 -0.2743  0.3505
  150SAPE  H17R16598   1.558   4.054   7.432  0.9311 -0.5986  1.4872
  150SAPE  H17S16599   1.564   3.876   7.461  0.8347 -1.1538 -1.2641
  150SAPE  C21816600   1.372   3.951   7.488 -0.1014 -0.5257 -0.4633
  150SAPE  H18R16601   1.322   3.854   7.468 -2.6982  0.6284  0.1311
  150SAPE  H18S16602   1.298   4.021   7.443  1.8308  0.7002 -1.9201
  150SAPE  C21916603   1.387   3.970   7.643  0.0149 -0.6110 -0.5346
  150SAPE  H19R16604   1.445   3.886   7.686  0.5005  0.3107  0.6637
  150SAPE  H19S16605   1.286   3.948   7.684  0.5176 -0.9771  0.5561
  150SAPE  C22016606   1.457   4.102   7.694 -0.1797  0.1747  0.4583
  150SAPE  H20R16607   1.387   4.189   7.699  0.7452  0.8908  1.5602
  150SAPE  H20S16608   1.548   4.119   7.634  0.9737 -0.1816  2.0411
  150SAPE  H20T16609   1.500   4.091   7.796  1.8581  1.6547 -0.1807
  150SAPE   C3316610   1.633   2.537   7.183 -0.2094 -0.1921 -0.0105
  150SAPE   H3X16611   1.625   2.648   7.175 -0.2753 -0.2402 -0.6966
  150SAPE   H3Y16612   1.742   2.514   7.191 -0.3326 -1.1885 -0.9759
  150SAPE   C3416613   1.578   2.508   7.327  0.4694 -0.1167 -0.7511
  150SAPE   H4X16614   1.575   2.398   7.341 -0.6265  0.1171  1.1679
  150SAPE   H4Y16615   1.474   2.547   7.328 -0.2179 -1.8617  0.9242
  150SAPE   C3516616   1.653   2.578   7.438  1.0060 -0.3936  0.3439
  150SAPE   H5X16617   1.644   2.688   7.422 -3.0209 -0.3755  1.6322
  150SAPE   H5Y16618   1.761   2.551   7.428  1.1802  0.6812 -1.1003
  150SAPE   C3616619   1.609   2.551   7.582  0.4720  0.2147 -0.0617
  150SAPE   H6X16620   1.654   2.452   7.602  2.4579  1.0633 -0.0895
  150SAPE   H6Y16621   1.498   2.540   7.583  0.5264 -0.9054  2.8241
  150SAPE   C3716622   1.648   2.665   7.673  0.2469  0.2612 -0.7592
  150SAPE   H7X16623   1.621   2.764   7.630 -0.5430  0.7990  0.8787
  150SAPE   H7Y16624   1.758   2.663   7.686  0.0302 -0.0584  1.5760
  150SAPE   C3816625   1.600   2.654   7.820 -0.3764 -0.4436  0.4613
  150SAPE   H8X16626   1.611   2.546   7.843  1.1234 -0.1240  1.3270
  150SAPE   H8Y16627   1.495   2.690   7.823 -0.9809 -1.6127 -2.4035
  150SAPE   C3916628   1.675   2.742   7.911  0.2464  0.2516 -0.5040
  150SAPE   H9X16629   1.685   2.844   7.867  0.1829  0.0575 -0.9756
  150SAPE   H9Y16630   1.781   2.711   7.923 -1.0734 -3.9640  2.4178
  150SAPE  C31016631   1.608   2.729   8.049  0.7217 -0.0521 -0.4220
  150SAPE  H10X16632   1.621   2.625   8.085  0.9441  0.0480 -0.2123
  150SAPE  H10Y16633   1.499   2.751   8.044  0.6730 -0.6152 -2.7503
  150SAPE  C31116634   1.656   2.826   8.155  0.5534  0.2895 -0.4074
  150SAPE  H11X16635   1.659   2.932   8.122 -0.0246  0.8673  1.2650
  150SAPE  H11Y16636   1.761   2.791   8.163  0.8733  0.9705 -1.4026
  150SAPE  C31216637   1.573   2.807   8.277 -0.4418 -0.5282  0.0061
  150SAPE  H12X16638   1.548   2.700   8.289  0.9215 -0.8716 -0.0969
  150SAPE  H12Y16639   1.485   2.872   8.255  1.1514  1.7619  0.0099
  150SAPE  C31316640   1.642   2.865   8.401  0.1888  0.6038 -0.2543
  150SAPE  H13X16641   1.657   2.974   8.385 -3.0731  1.3581  0.9889
  150SAPE  H13Y16642   1.739   2.813   8.416  0.2844  0.3336 -1.6502
  150SAPE  C31416643   1.565   2.856   8.533  0.2340 -0.4204  0.0104
  150SAPE  H14X16644   1.633   2.887   8.615  0.4644 -1.2840  0.1543
  150SAPE  H14Y16645   1.521   2.756   8.555 -0.6462 -1.0422 -3.8155
  150SAPE  C31516646   1.449   2.948   8.537 -0.3559 -0.4389  0.5041
  150SAPE  H15X16647   1.380   2.904   8.462  2.7283 -1.5824 -1.8720
  150SAPE  H15Y16648   1.462   3.057   8.524 -0.5798 -0.6888 -2.3658
  150SAPE  C31616649   1.383   2.937   8.674 -0.2250  0.9167  0.2386
  150SAPE  H16X16650   1.382   2.831   8.706 -1.0494  0.3234 -1.6308
  150SAPE  H16Y16651   1.275   2.961   8.672 -1.2210 -2.6747  2.2182
  150SAPE  C31716652   1.439   3.033   8.782  0.3650  0.3449 -0.1519
  150SAPE  H17X16653   1.425   3.136   8.742  1.0129  0.0289 -1.2399
  150SAPE  H17Y16654   1.550   3.025   8.785  0.3003 -0.3838  1.8928
  150SAPE  C31816655   1.371   3.007   8.920 -0.5905  0.3924  0.2499
  150SAPE  H18X16656   1.262   2.990   8.904 -0.4759  0.2515 -0.3968
  150SAPE  H18Y16657   1.394   3.084   8.997  0.5851  0.0535  0.2577
  150SAPE  H18Z16658   1.405   2.919   8.978  2.8992  0.0454 -2.0283
  151SAPE     N16659   0.847   6.226   6.498  0.2299  0.1961 -0.1742
  151SAPE   HN116660   0.920   6.300   6.502 -1.5675  1.9862  1.6626
  151SAPE   HN216661   0.842   6.183   6.593  0.9114 -1.9372 -1.0307
  151SAPE   HN316662   0.882   6.148   6.438 -1.1617 -1.5798  1.2211
  151SAPE   C1216663   0.717   6.278   6.427 -0.7127 -0.3532  0.2468
  151SAPE  H12A16664   0.639   6.266   6.505 -0.9555  0.0589  0.0706
  151SAPE  H12B16665   0.698   6.221   6.333  0.1251 -1.2235  0.5826
  151SAPE   C1116666   0.731   6.422   6.387 -0.0346 -1.2535 -0.2362
  151SAPE  H11A16667   0.735   6.492   6.473 -0.7891 -1.9325  0.3655
  151SAPE  H11B16668   0.633   6.441   6.339 -1.0338 -0.3324  2.0481
  151SAPE     P16669   0.965   6.505   6.316  0.2584  0.0390  0.3608
  151SAPE   O1316670   1.069   6.428   6.248  0.0249 -0.2235  0.3223
  151SAPE   O1416671   0.945   6.643   6.273  0.3105  0.0179 -0.6322
  151SAPE   O1216672   0.836   6.426   6.287 -0.1078  0.4554 -0.0469
  151SAPE   O1116673   0.984   6.482   6.474 -0.4133  0.5981 -0.1231
  151SAPE    C116674   1.097   6.558   6.526 -0.9405 -0.1656 -1.0215
  151SAPE    HA16675   1.193   6.503   6.518 -0.0035  1.5204 -2.1078
  151SAPE    HB16676   1.107   6.658   6.478 -1.1422  0.0161 -0.6857
  151SAPE    C216677   1.073   6.589   6.677  0.3612  0.2919 -0.1668
  151SAPE    HS16678   1.168   6.626   6.720 -0.2951 -0.5545  2.1737
  151SAPE   O2116679   1.032   6.473   6.756 -0.2482  0.2138 -1.1688
  151SAPE   C2116680   1.136   6.387   6.785 -0.2147 -0.4677  0.5745
  151SAPE   O2216681   1.249   6.417   6.753 -0.4281  0.5223 -0.2952
  151SAPE   C2216682   1.097   6.275   6.887 -0.0082  0.3184  0.2174
  151SAPE   H2R16683   1.003   6.308   6.934  0.1798  0.0071  0.8208
  151SAPE   H2S16684   1.066   6.193   6.819  1.9451 -1.5945  1.5065
  151SAPE    C316685   0.960   6.699   6.679  0.5996  0.3547  0.6519
  151SAPE    HX16686   0.884   6.677   6.601  1.2941  0.6473 -0.1230
  151SAPE    HY16687   1.007   6.793   6.642  2.3112 -0.1283  1.5371
  151SAPE   O3116688   0.889   6.722   6.802  1.1207 -0.5182  0.3478
  151SAPE   C3116689   0.961   6.799   6.888 -0.4848  0.2590 -0.0023
  151SAPE   O3216690   1.071   6.846   6.865 -0.6873 -0.6103  0.5953
  151SAPE   C3216691   0.898   6.808   7.021  0.5487  0.4782 -0.0781
  151SAPE   H2X16692   0.789   6.809   6.998  0.3486 -1.4657  0.5964
  151SAPE   H2Y16693   0.918   6.903   7.075 -0.2287  0.6454 -0.0640
  151SAPE   C2316694   1.217   6.235   6.989 -0.3982 -0.2423  0.8585
  151SAPE   H3R16695   1.319   6.243   6.946 -0.1345  1.4040  1.7074
  151SAPE   H3S16696   1.206   6.126   7.008  1.4833 -0.4605  0.8666
  151SAPE   C2416697   1.219   6.306   7.126 -0.2218  0.7505  0.1496
  151SAPE   H4R16698   1.279   6.242   7.194  0.4091 -0.8841 -1.8672
  151SAPE   H4S16699   1.113   6.300   7.157 -0.1844 -0.2437  0.1259
  151SAPE   C2516700   1.264   6.445   7.119 -0.3009  0.3429 -0.3901
  151SAPE   H5R16701   1.314   6.465   7.023  1.9014 -1.6881  0.2449
  151SAPE   C2616702   1.267   6.532   7.221 -0.1564 -0.0179  0.2239
  151SAPE   H6R16703   1.313   6.626   7.189  1.0886 -0.3444  1.0095
  151SAPE   C2716704   1.225   6.516   7.368  0.2938 -0.3965  0.4538
  151SAPE   H7R16705   1.222   6.410   7.402  0.1796 -0.3651  0.5452
  151SAPE   H7S16706   1.126   6.566   7.375  1.3629  1.9766 -0.1938
  151SAPE   C2816707   1.306   6.586   7.465 -0.1805  0.0198 -0.0999
  151SAPE   H8R16708   1.382   6.653   7.422 -0.3277 -0.9275 -1.9326
  151SAPE   C2916709   1.309   6.559   7.595 -0.9626  0.2447 -0.6508
  151SAPE   H9R16710   1.378   6.614   7.661 -2.6134 -0.9470  2.2377
  151SAPE  C21016711   1.228   6.451   7.675 -0.3675 -0.4521  0.4292
  151SAPE  H10R16712   1.139   6.415   7.619 -0.8824  0.2439  0.7846
  151SAPE  H10S16713   1.186   6.508   7.761 -0.9545 -0.3413  0.0748
  151SAPE  C21116714   1.319   6.334   7.708  0.3798  0.5618  0.3174
  151SAPE  H11R16715   1.402   6.311   7.639 -1.0214 -1.5460 -0.7865
  151SAPE  C21216716   1.295   6.261   7.820 -0.5617 -0.0229 -0.4055
  151SAPE  H12R16717   1.346   6.165   7.836 -0.5169  0.3243  1.9930
  151SAPE  C21316718   1.182   6.294   7.920  0.1807 -0.4302 -0.2915
  151SAPE  H13R16719   1.090   6.340   7.878 -0.9089 -1.0640  1.2965
  151SAPE  H13S16720   1.216   6.370   7.994 -1.4187 -0.2305  0.2674
  151SAPE  C21416721   1.132   6.170   7.996 -0.6479  0.0180  1.0500
  151SAPE  H14R16722   1.164   6.071   7.958  2.6740  1.4116 -0.2398
  151SAPE  C21516723   1.065   6.167   8.109  0.6559  0.3330  0.8418
  151SAPE  H15R16724   1.020   6.073   8.145 -0.4729  0.6329  0.2854
  151SAPE  C21616725   1.036   6.294   8.183 -0.3606  0.0141 -0.1275
  151SAPE  H16R16726   0.991   6.364   8.108  0.2508 -1.6510 -2.1459
  151SAPE  H16S16727   1.127   6.348   8.218 -0.3783 -0.4427  0.6333
  151SAPE  C21716728   0.931   6.272   8.296  0.9782 -0.2313  0.1120
  151SAPE  H17R16729   0.978   6.216   8.379 -0.3103  1.5193  2.1359
  151SAPE  H17S16730   0.849   6.206   8.259  1.7372 -1.5753  0.7545
  151SAPE  C21816731   0.871   6.401   8.343 -0.4200 -1.4536  0.4232
  151SAPE  H18R16732   0.793   6.444   8.276 -1.0576 -1.6760  1.0015
  151SAPE  H18S16733   0.961   6.466   8.342  0.7682 -3.0415 -0.4328
  151SAPE  C21916734   0.811   6.407   8.474 -0.2903  0.1294 -0.3080
  151SAPE  H19R16735   0.787   6.507   8.517 -0.4694  0.1729 -0.5071
  151SAPE  H19S16736   0.883   6.358   8.542  0.1283  1.8574  0.5564
  151SAPE  C22016737   0.678   6.329   8.478  0.4771 -0.4698  0.1482
  151SAPE  H20R16738   0.675   6.220   8.458 -2.0503 -0.1053 -2.0475
  151SAPE  H20S16739   0.634   6.330   8.580  0.7862  1.3323  0.2901
  151SAPE  H20T16740   0.612   6.371   8.399  0.8901 -0.6407 -0.2970
  151SAPE   C3316741   0.921   6.673   7.106 -0.0321 -0.8867  0.3841
  151SAPE   H3X16742   1.020   6.687   7.156 -0.4141 -0.2161  0.9858
  151SAPE   H3Y16743   0.925   6.588   7.036  0.8715  0.6451 -1.5142
  151SAPE   C3416744   0.819   6.665   7.213  0.1835  0.4615 -0.3830
  151SAPE   H4X16745   0.829   6.565   7.260  4.0134 -0.0181 -1.8575
  151SAPE   H4Y16746   0.715   6.670   7.174 -0.7080  0.9549  1.8375
  151SAPE   C3516747   0.846   6.768   7.326 -0.0581  0.0875  0.1001
  151SAPE   H5X16748   0.829   6.869   7.282 -0.6215 -0.6201 -1.3701
  151SAPE   H5Y16749   0.951   6.761   7.360  0.2351  0.9571 -0.5824
  151SAPE   C3616750   0.762   6.752   7.455 -0.6366 -0.1389 -0.3438
  151SAPE   H6X16751   0.668   6.698   7.431 -0.6721  0.4074 -1.4880
  151SAPE   H6Y16752   0.734   6.858   7.478 -0.2872  0.4046 -2.2585
  151SAPE   C3716753   0.848   6.688   7.566 -0.4617  0.6979 -0.6198
  151SAPE   H7X16754   0.941   6.746   7.582 -0.9419  1.3548 -0.1888
  151SAPE   H7Y16755   0.885   6.588   7.534  0.8440  0.1097  2.3992
  151SAPE   C3816756   0.766   6.676   7.693 -0.1034 -0.4837 -0.9379
  151SAPE   H8X16757   0.705   6.583   7.698  0.5282 -0.8696 -0.1531
  151SAPE   H8Y16758   0.700   6.765   7.699 -0.3426 -0.3598 -3.8014
  151SAPE   C3916759   0.856   6.680   7.818  0.0688  0.0536 -0.4350
  151SAPE   H9X16760   0.944   6.747   7.806  0.5782 -0.6542 -0.7831
  151SAPE   H9Y16761   0.916   6.586   7.818 -3.2431 -2.2461 -0.2511
  151SAPE  C31016762   0.783   6.706   7.953 -0.2852  0.2984 -0.0317
  151SAPE  H10X16763   0.746   6.607   7.987  0.5380 -0.0102 -0.0215
  151SAPE  H10Y16764   0.697   6.770   7.924 -1.5139 -1.1907  0.2146
  151SAPE  C31116765   0.874   6.776   8.058 -0.1283  0.2821 -0.0952
  151SAPE  H11X16766   0.945   6.845   8.007 -0.3854  1.8305  1.5331
  151SAPE  H11Y16767   0.925   6.694   8.113  1.8944  2.2730  1.1850
  151SAPE  C31216768   0.787   6.855   8.153  0.0466 -0.2089  0.3696
  151SAPE  H12X16769   0.721   6.782   8.205  1.0784  0.4544  2.7209
  151SAPE  H12Y16770   0.726   6.930   8.098 -0.7697 -2.0703 -1.4015
  151SAPE  C31316771   0.862   6.906   8.275  0.8672 -0.7721  0.1409
  151SAPE  H13X16772   0.904   6.820   8.331  0.7493 -1.4038 -0.7140
  151SAPE  H13Y16773   0.794   6.960   8.345 -2.2949 -0.9842 -2.5054
  151SAPE  C31416774   0.966   7.011   8.240 -0.9901  0.1268  0.6577
  151SAPE  H14X16775   0.928   7.103   8.192 -0.1050  0.1659 -0.0007
  151SAPE  H14Y16776   1.039   6.973   8.165  1.0501  1.3752  1.9035
  151SAPE  C31516777   1.065   7.045   8.363 -0.1130 -0.6784 -0.4081
  151SAPE  H15X16778   1.069   6.944   8.411  0.0508  0.0323  1.1473
  151SAPE  H15Y16779   1.018   7.117   8.434  3.2266 -0.7137  2.0730
  151SAPE  C31616780   1.207   7.089   8.309  0.0459 -0.2316 -0.5828
  151SAPE  H16X16781   1.192   7.166   8.230 -2.6123  0.9715  0.9489
  151SAPE  H16Y16782   1.264   7.012   8.253  1.6343 -0.6724  1.5173
  151SAPE  C31716783   1.313   7.137   8.413 -0.0344 -0.1182  0.2844
  151SAPE  H17X16784   1.394   7.189   8.359 -1.2947  2.3787  0.6800
  151SAPE  H17Y16785   1.363   7.055   8.469  1.3191 -1.4359 -2.6273
  151SAPE  C31816786   1.262   7.241   8.517 -0.3635 -1.1280  0.0383
  151SAPE  H18X16787   1.190   7.181   8.577  0.3574 -1.2550  0.7957
  151SAPE  H18Y16788   1.214   7.332   8.474  0.0358 -0.7116  0.4545
  151SAPE  H18Z16789   1.345   7.268   8.586 -0.9656  0.7901  0.0965
  152SAPE     N16790   1.975   4.403   6.057  0.2837 -0.1784  0.1248
  152SAPE   HN116791   2.068   4.431   6.094  0.0440  0.4543  0.2454
  152SAPE   HN216792   1.982   4.303   6.026  0.9816  0.2703 -1.2304
  152SAPE   HN316793   1.951   4.462   5.975 -1.6940  2.1233  2.2357
  152SAPE   C1216794   1.861   4.434   6.151  0.0119  0.0570 -0.3129
  152SAPE  H12A16795   1.768   4.391   6.107 -0.6131  1.0284  0.0260
  152SAPE  H12B16796   1.845   4.544   6.146  0.1454  0.0484 -1.0990
  152SAPE   C1116797   1.886   4.361   6.282 -0.1256 -0.2140 -0.7520
  152SAPE  H11A16798   1.804   4.380   6.355  0.2058  0.5509 -0.5570
  152SAPE  H11B16799   1.974   4.412   6.328  0.3906 -0.3431 -1.5844
  152SAPE     P16800   1.835   4.107   6.344 -0.1099  0.0939  0.1332
  152SAPE   O1316801   1.689   4.133   6.324 -0.2938  0.2913  0.3647
  152SAPE   O1416802   1.888   3.977   6.300  0.1985  0.2580  0.2987
  152SAPE   O1216803   1.910   4.216   6.269  0.1433 -0.2853 -0.4621
  152SAPE   O1116804   1.870   4.134   6.494 -0.4128 -0.0111 -0.1722
  152SAPE    C116805   1.773   4.105   6.594 -0.6457 -0.3001  0.0120
  152SAPE    HA16806   1.682   4.169   6.594 -1.3090 -1.2215  0.7603
  152SAPE    HB16807   1.740   4.000   6.581  0.5552 -0.6327 -0.5089
  152SAPE    C216808   1.847   4.128   6.736  0.2730 -0.0524  0.4866
  152SAPE    HS16809   1.878   4.235   6.740  1.5642 -0.3240 -1.2870
  152SAPE   O2116810   1.972   4.055   6.739 -0.4090  0.3293  1.5266
  152SAPE   C2116811   2.060   4.103   6.821  0.1261  0.3778 -0.2896
  152SAPE   O2216812   2.062   4.217   6.868  0.0397  0.9256 -0.4274
  152SAPE   C2216813   2.170   4.002   6.859  0.5337  0.1200  0.5035
  152SAPE   H2R16814   2.148   3.908   6.803 -0.2898  1.5594 -1.7160
  152SAPE   H2S16815   2.267   4.037   6.819  0.8085 -1.8456 -0.7070
  152SAPE    C316816   1.747   4.089   6.848  0.0507 -0.0687 -0.4221
  152SAPE    HX16817   1.718   3.982   6.839 -0.1406  0.0172 -0.8768
  152SAPE    HY16818   1.651   4.145   6.839 -0.4496 -0.4041  2.1174
  152SAPE   O3116819   1.799   4.119   6.977 -0.5425  0.1573  0.0209
  152SAPE   C3116820   1.796   4.244   7.012 -0.9331 -0.6880 -0.3482
  152SAPE   O3216821   1.764   4.332   6.931  0.1226 -0.4159  0.0298
  152SAPE   C3216822   1.846   4.267   7.158  0.1882  0.6925  0.1486
  152SAPE   H2X16823   1.949   4.306   7.147  0.1986  0.8576  0.8044
  152SAPE   H2Y16824   1.852   4.166   7.204 -0.7771 -0.3810 -1.9330
  152SAPE   C2316825   2.185   3.961   7.008  0.3333  0.2337  0.5463
  152SAPE   H3R16826   2.205   4.046   7.077  0.0108  2.4219 -1.8916
  152SAPE   H3S16827   2.270   3.890   7.017  1.2494  1.5445  3.4145
  152SAPE   C2416828   2.060   3.882   7.068 -0.0290 -0.0149  0.2966
  152SAPE   H4R16829   2.026   3.815   6.986 -2.0337 -1.0768  1.8955
  152SAPE   H4S16830   1.976   3.951   7.085 -0.7074 -0.6286 -0.4945
  152SAPE   C2516831   2.074   3.797   7.190  0.0063  0.5517 -0.5985
  152SAPE   H5R16832   2.113   3.698   7.163  1.4109  1.0707 -0.5484
  152SAPE   C2616833   2.050   3.822   7.320  0.1378 -0.2925 -0.3163
  152SAPE   H6R16834   2.060   3.738   7.390  2.3081  0.1578 -0.0206
  152SAPE   C2716835   2.013   3.954   7.382  0.2403  0.6445  0.4990
  152SAPE   H7R16836   1.992   4.031   7.305 -1.0475  2.2862  2.4017
  152SAPE   H7S16837   2.091   4.011   7.437  0.3789  0.9431 -0.0012
  152SAPE   C2816838   1.892   3.931   7.469 -0.0661 -0.3874 -0.1153
  152SAPE   H8R16839   1.796   3.900   7.426 -0.3994  0.1791  0.2023
  152SAPE   C2916840   1.889   3.957   7.600 -0.5252  0.4928 -0.4097
  152SAPE   H9R16841   1.803   3.926   7.660  1.1706  0.7747  2.3639
  152SAPE  C21016842   1.998   3.996   7.696 -0.0149 -0.1648 -0.1794
  152SAPE  H10R16843   1.963   4.051   7.786 -1.2213 -1.5858  0.2480
  152SAPE  H10S16844   2.070   4.059   7.639  1.3137 -1.1161  0.3892
  152SAPE  C21116845   2.084   3.888   7.745 -0.3777 -0.6692 -0.6801
  152SAPE  H11R16846   2.079   3.783   7.715 -1.3499 -1.2581  1.4054
  152SAPE  C21216847   2.178   3.918   7.838  0.1690  0.1753 -0.0174
  152SAPE  H12R16848   2.240   3.838   7.881  1.1433  1.7956  1.7564
  152SAPE  C21316849   2.217   4.048   7.909  0.3165 -0.0762 -0.0341
  152SAPE  H13R16850   2.143   4.126   7.880 -1.5477 -1.6067  0.3621
  152SAPE  H13S16851   2.313   4.089   7.872 -2.0300  4.6622 -1.7487
  152SAPE  C21416852   2.227   4.047   8.060  0.3874 -0.4223 -0.7002
  152SAPE  H14R16853   2.326   4.043   8.108  0.8750 -0.0015 -1.6277
  152SAPE  C21516854   2.116   4.035   8.144 -0.0051 -0.6061  0.2632
  152SAPE  H15R16855   2.142   4.017   8.249 -2.5200  1.1275  1.2711
  152SAPE  C21616856   1.976   4.010   8.114  0.0219  0.5772  0.0881
  152SAPE  H16R16857   1.935   3.928   8.176 -1.2218 -0.5040 -2.0560
  152SAPE  H16S16858   1.960   3.974   8.011 -0.4999  0.0478  0.3503
  152SAPE  C21716859   1.885   4.132   8.125 -0.4391  0.1883 -0.0561
  152SAPE  H17R16860   1.781   4.113   8.091  0.6593 -1.5427 -2.8309
  152SAPE  H17S16861   1.922   4.210   8.056 -1.5844  1.7013  0.9742
  152SAPE  C21816862   1.887   4.202   8.268  0.2128 -0.3826 -0.1320
  152SAPE  H18R16863   1.852   4.307   8.261 -0.7226 -0.5206  1.7558
  152SAPE  H18S16864   1.992   4.206   8.303  0.5306  0.9907 -1.1817
  152SAPE  C21916865   1.798   4.124   8.368  0.2169 -0.2289  0.1532
  152SAPE  H19R16866   1.814   4.016   8.344 -1.5479 -0.3367 -0.6877
  152SAPE  H19S16867   1.693   4.154   8.350  0.6176  1.2087  0.1021
  152SAPE  C22016868   1.822   4.149   8.512  0.1744 -0.1261 -0.1439
  152SAPE  H20R16869   1.922   4.120   8.549  0.6425 -0.3530 -1.5555
  152SAPE  H20S16870   1.743   4.089   8.563 -1.4268 -2.4693 -4.8321
  152SAPE  H20T16871   1.802   4.257   8.531  0.2072 -0.3929  1.6617
  152SAPE   C3316872   1.739   4.340   7.251 -0.2724  0.5671  0.5130
  152SAPE   H3X16873   1.639   4.293   7.240  0.5796 -1.3933  0.6175
  152SAPE   H3Y16874   1.729   4.443   7.210  1.6305  0.8551  0.6821
  152SAPE   C3416875   1.800   4.343   7.392 -0.1646 -0.3601  1.1084
  152SAPE   H4X16876   1.880   4.420   7.389  0.1030 -0.6403 -1.6443
  152SAPE   H4Y16877   1.838   4.245   7.427  0.2689 -1.1689 -1.3788
  152SAPE   C3516878   1.715   4.406   7.491  0.1347 -0.1348 -0.1858
  152SAPE   H5X16879   1.621   4.351   7.513  0.2310 -0.0127  0.5571
  152SAPE   H5Y16880   1.693   4.506   7.449  2.1553 -0.6289 -2.6086
  152SAPE   C3616881   1.782   4.421   7.620 -0.5459 -0.5209  0.4058
  152SAPE   H6X16882   1.859   4.500   7.607 -0.7701 -0.3370  0.1823
  152SAPE   H6Y16883   1.834   4.328   7.652 -1.4722 -1.8881 -1.7398
  152SAPE   C3716884   1.695   4.476   7.729 -0.0892 -0.1790  0.2113
  152SAPE   H7X16885   1.608   4.409   7.746 -1.6874  1.5892 -0.6112
  152SAPE   H7Y16886   1.657   4.578   7.706  0.0544  0.2802  1.8748
  152SAPE   C3816887   1.767   4.489   7.862  0.2853 -0.3884  0.0967
  152SAPE   H8X16888   1.854   4.559   7.867  0.8716 -1.1602  2.8175
  152SAPE   H8Y16889   1.820   4.393   7.883 -2.6165 -1.6252  2.4645
  152SAPE   C3916890   1.665   4.508   7.974 -0.3098 -0.3231  0.1217
  152SAPE   H9X16891   1.596   4.423   7.992  0.9761 -1.1629  1.2585
  152SAPE   H9Y16892   1.601   4.598   7.964  1.5536  0.9365 -1.1301
  152SAPE  C31016893   1.744   4.534   8.102  0.6713 -0.5273 -0.1471
  152SAPE  H10X16894   1.803   4.627   8.087  2.2782 -1.3242  0.9015
  152SAPE  H10Y16895   1.815   4.450   8.118 -1.2890 -2.5303 -1.3869
  152SAPE  C31116896   1.663   4.534   8.235  0.0357 -0.2827 -0.0351
  152SAPE  H11X16897   1.734   4.553   8.318 -0.6744  1.5373  0.2153
  152SAPE  H11Y16898   1.621   4.433   8.252  0.7279 -0.4896  0.4750
  152SAPE  C31216899   1.552   4.634   8.242  0.1587  0.5287  0.4226
  152SAPE  H12X16900   1.480   4.582   8.175  0.6120  1.0183 -0.4789
  152SAPE  H12Y16901   1.568   4.727   8.183  0.3526  0.5901  0.5735
  152SAPE  C31316902   1.486   4.650   8.372  0.4481  0.2965 -0.3227
  152SAPE  H13X16903   1.391   4.701   8.347 -0.0264 -0.9816 -1.2563
  152SAPE  H13Y16904   1.541   4.710   8.448 -2.4365  0.5146  1.7501
  152SAPE  C31416905   1.447   4.523   8.451  0.4869 -0.5241 -0.5423
  152SAPE  H14X16906   1.542   4.473   8.481  1.4388  1.5166  0.0730
  152SAPE  H14Y16907   1.394   4.462   8.375 -1.6778 -3.1278  2.7994
  152SAPE  C31516908   1.359   4.547   8.575  0.4367 -0.9035 -0.2298
  152SAPE  H15X16909   1.339   4.449   8.624  0.6316 -1.1725 -0.6891
  152SAPE  H15Y16910   1.259   4.577   8.537  0.9109 -0.6114 -1.2805
  152SAPE  C31616911   1.418   4.641   8.684 -0.1910  0.4023 -0.3217
  152SAPE  H16X16912   1.463   4.733   8.641  0.6837 -0.3281 -1.0088
  152SAPE  H16Y16913   1.510   4.587   8.717 -0.6226 -0.2491 -0.1689
  152SAPE  C31716914   1.334   4.664   8.810 -0.4273 -0.1646  0.2304
  152SAPE  H17X16915   1.322   4.566   8.860 -0.6458 -0.5348 -0.5344
  152SAPE  H17Y16916   1.232   4.703   8.788 -0.1100  0.7146  0.2800
  152SAPE  C31816917   1.402   4.764   8.905  0.0611 -0.8022  0.3203
  152SAPE  H18X16918   1.505   4.727   8.926  0.0267 -0.7905  0.5133
  152SAPE  H18Y16919   1.346   4.767   9.001  2.9289  1.5489  2.0648
  152SAPE  H18Z16920   1.407   4.866   8.863  1.3800 -1.0142 -0.0765
  153SAPE     N16921   3.501   6.539   6.169  0.2032 -0.5892  0.0062
  153SAPE   HN116922   3.478   6.438   6.162  1.5698 -0.8573 -1.1374
  153SAPE   HN216923   3.421   6.587   6.124 -0.7418 -0.3937  1.8173
  153SAPE   HN316924   3.586   6.546   6.110  1.4331  0.7580  1.8458
  153SAPE   C1216925   3.522   6.593   6.309  0.6826  0.4746  0.4717
  153SAPE  H12A16926   3.607   6.531   6.343  0.2894 -0.7315 -0.6388
  153SAPE  H12B16927   3.432   6.573   6.372  0.5181  3.7604  1.4648
  153SAPE   C1116928   3.553   6.745   6.319  0.0079 -0.3899  0.2448
  153SAPE  H11A16929   3.558   6.778   6.425  0.6825 -1.6889  0.6414
  153SAPE  H11B16930   3.468   6.804   6.278  0.8078  1.8076  1.5513
  153SAPE     P16931   3.821   6.754   6.315  0.1232 -0.0964  0.5168
  153SAPE   O1316932   3.881   6.642   6.242  0.0481  0.3584  1.1460
  153SAPE   O1416933   3.896   6.882   6.319  0.2365 -0.3399  0.1823
  153SAPE   O1216934   3.677   6.780   6.246 -0.3533  0.5583  0.3041
  153SAPE   O1116935   3.789   6.706   6.462  0.7841 -0.1283 -0.3516
  153SAPE    C116936   3.894   6.657   6.550 -0.6387  0.3877  0.7039
  153SAPE    HA16937   3.988   6.640   6.492 -1.4154 -0.3934 -0.3786
  153SAPE    HB16938   3.919   6.719   6.638 -1.5687 -1.1313  2.0965
  153SAPE    C216939   3.879   6.505   6.599  0.4182  0.0038 -0.0908
  153SAPE    HS16940   3.858   6.444   6.509  0.1512 -0.4112  0.2475
  153SAPE   O2116941   3.775   6.503   6.693  0.9420 -0.0861 -0.3063
  153SAPE   C2116942   3.660   6.460   6.650  0.3021  0.2884  0.2635
  153SAPE   O2216943   3.632   6.428   6.533  0.3666 -0.1251  0.0783
  153SAPE   C2216944   3.560   6.451   6.763 -0.0029  0.5134  0.0908
  153SAPE   H2R16945   3.591   6.505   6.855 -0.0741 -0.6506  0.8170
  153SAPE   H2S16946   3.466   6.493   6.721  0.4617 -0.1598 -1.7066
  153SAPE    C316947   4.011   6.465   6.672  0.2985  0.3019 -0.0527
  153SAPE    HX16948   4.084   6.448   6.590 -0.0807  0.2979 -0.3869
  153SAPE    HY16949   3.996   6.375   6.735 -2.1029 -0.1889 -1.2295
  153SAPE   O3116950   4.049   6.571   6.762 -0.0187  0.0887 -0.0581
  153SAPE   C3116951   4.167   6.537   6.822 -0.1858  0.8954 -0.2254
  153SAPE   O3216952   4.244   6.453   6.785 -0.0613 -0.1580 -0.0384
  153SAPE   C3216953   4.188   6.633   6.941  0.5621  0.2440  0.5026
  153SAPE   H2X16954   4.162   6.738   6.918 -0.8890  0.2119  1.8051
  153SAPE   H2Y16955   4.296   6.629   6.965  1.4838  0.7761 -3.0000
  153SAPE   C2316956   3.535   6.303   6.796 -0.8269 -0.4401 -0.1399
  153SAPE   H3R16957   3.611   6.242   6.849 -1.9674 -1.8879 -0.1151
  153SAPE   H3S16958   3.525   6.244   6.702 -0.7358  1.3007 -1.3064
  153SAPE   C2416959   3.394   6.287   6.870 -0.2457 -0.0494 -0.5780
  153SAPE   H4R16960   3.376   6.178   6.873 -3.2724  0.3685 -0.1675
  153SAPE   H4S16961   3.325   6.344   6.804 -1.9439 -0.3069  0.9034
  153SAPE   C2516962   3.368   6.345   7.008 -0.9040 -0.2423  0.3121
  153SAPE   H5R16963   3.386   6.454   7.017 -1.0629 -0.2249  0.4273
  153SAPE   C2616964   3.339   6.286   7.124 -0.1420 -0.0313  0.4645
  153SAPE   H6R16965   3.321   6.352   7.210 -1.1726 -1.1313  1.1226
  153SAPE   C2716966   3.333   6.142   7.159  0.0439  0.2307  0.2079
  153SAPE   H7R16967   3.350   6.133   7.268 -2.3877  0.5910  0.6700
  153SAPE   H7S16968   3.423   6.091   7.118  1.3854  0.5576  2.5675
  153SAPE   C2816969   3.206   6.087   7.111 -0.2649  0.9899 -0.2119
  153SAPE   H8R16970   3.172   6.131   7.016 -1.8846 -2.4057 -1.3870
  153SAPE   C2916971   3.122   6.004   7.174 -0.2496 -0.2120 -1.3655
  153SAPE   H9R16972   3.033   5.980   7.115 -0.8693  3.7983 -2.3672
  153SAPE  C21016973   3.133   5.942   7.312 -0.0853  0.4740  0.0483
  153SAPE  H10R16974   3.085   6.010   7.386  1.7990  2.4229 -0.4302
  153SAPE  H10S16975   3.240   5.941   7.343 -0.2940 -1.0563  0.7993
  153SAPE  C21116976   3.085   5.802   7.317 -0.1595  0.1039 -1.1847
  153SAPE  H11R16977   3.157   5.737   7.266  0.9042  0.1256  0.2416
  153SAPE  C21216978   2.983   5.756   7.392 -0.2852  0.8011  0.2345
  153SAPE  H12R16979   2.972   5.647   7.378  2.3323  0.6696 -1.4656
  153SAPE  C21316980   2.884   5.834   7.476 -0.3309  0.1931 -0.4204
  153SAPE  H13R16981   2.886   5.944   7.457 -0.8021  0.2905  0.0575
  153SAPE  H13S16982   2.899   5.816   7.584 -2.2481  0.7994  0.0027
  153SAPE  C21416983   2.744   5.784   7.435 -0.6329 -0.7205  0.7497
  153SAPE  H14R16984   2.735   5.685   7.388  1.1552 -0.8852  0.7065
  153SAPE  C21516985   2.627   5.841   7.476  0.2363  0.3348 -0.3690
  153SAPE  H15R16986   2.533   5.803   7.433 -0.2603  0.9024  0.2028
  153SAPE  C21616987   2.601   5.961   7.560 -0.6880  0.0740 -0.0252
  153SAPE  H16R16988   2.492   5.969   7.580 -0.7367 -0.1947 -0.1759
  153SAPE  H16S16989   2.625   6.057   7.510 -1.6221  0.6076  0.5180
  153SAPE  C21716990   2.673   5.969   7.704  0.3659 -0.6858 -0.0478
  153SAPE  H17R16991   2.784   5.961   7.697  0.2918 -1.0525 -0.9385
  153SAPE  H17S16992   2.630   5.890   7.768 -0.4098  1.2725  1.9915
  153SAPE  C21816993   2.639   6.099   7.773  0.2800 -0.3910  0.2198
  153SAPE  H18R16994   2.529   6.101   7.790 -0.5323  2.3040 -3.9009
  153SAPE  H18S16995   2.671   6.181   7.706  2.0055 -1.1962  0.0022
  153SAPE  C21916996   2.700   6.112   7.912 -0.2604  0.6233 -0.1099
  153SAPE  H19R16997   2.703   6.216   7.950  0.8835  0.7854 -0.6165
  153SAPE  H19S16998   2.803   6.073   7.897 -0.4277 -0.0538  0.4240
  153SAPE  C22016999   2.630   6.020   8.016  0.2328 -0.1488  0.4098
  153SAPE  H20R17000   2.651   5.914   7.989 -1.8891 -1.0122  1.8503
  153SAPE  H20S17001   2.520   6.036   8.009 -0.0620 -0.2600  3.4858
  153SAPE  H20T17002   2.663   6.052   8.117 -0.5577  0.7534  0.3887
  153SAPE   C3317003   4.110   6.593   7.074 -0.7277 -0.8417  0.0923
  153SAPE   H3X17004   4.129   6.488   7.104 -0.0273 -0.9061 -0.5608
  153SAPE   H3Y17005   4.002   6.610   7.053 -0.3704  1.4320 -0.1239
  153SAPE   C3417006   4.150   6.686   7.192  0.2133  0.2714 -0.5554
  153SAPE   H4X17007   4.130   6.788   7.153 -2.0754 -0.3469 -1.1555
  153SAPE   H4Y17008   4.259   6.673   7.206  0.2897  1.0121 -0.4165
  153SAPE   C3517009   4.073   6.664   7.323 -0.7761 -0.3267  0.2175
  153SAPE   H5X17010   4.084   6.556   7.346 -0.1403 -0.1132  0.9901
  153SAPE   H5Y17011   3.965   6.685   7.306 -0.5905  0.1263 -0.4368
  153SAPE   C3617012   4.129   6.747   7.437 -0.2524  0.2047  0.7028
  153SAPE   H6X17013   4.119   6.855   7.411 -0.4981  0.2071  0.8057
  153SAPE   H6Y17014   4.240   6.735   7.438 -0.2058  0.5624  0.3439
  153SAPE   C3717015   4.078   6.717   7.576  0.1458  0.3475 -0.4926
  153SAPE   H7X17016   4.118   6.620   7.612 -2.4537 -0.0398  1.6512
  153SAPE   H7Y17017   3.969   6.708   7.561  0.3032 -1.1565 -0.8780
  153SAPE   C3817018   4.101   6.814   7.685  0.4043  0.1180 -0.2843
  153SAPE   H8X17019   4.046   6.910   7.681 -0.8984 -0.6321 -0.8682
  153SAPE   H8Y17020   4.212   6.818   7.699  0.2490  1.8069  0.6803
  153SAPE   C3917021   4.042   6.754   7.817 -0.3041 -0.3466  0.9178
  153SAPE   H9X17022   4.072   6.647   7.817  0.4471 -0.1584 -0.2641
  153SAPE   H9Y17023   3.931   6.759   7.811 -0.4512  1.4834  3.3545
  153SAPE  C31017024   4.091   6.834   7.941 -0.0136  0.5368  0.7385
  153SAPE  H10X17025   4.064   6.940   7.919  1.4753  1.3200  2.5109
  153SAPE  H10Y17026   4.200   6.828   7.956 -0.0617 -1.2733  0.5250
  153SAPE  C31117027   4.017   6.795   8.062 -0.4957 -0.0343  0.2908
  153SAPE  H11X17028   4.043   6.689   8.082 -1.0551 -0.0138  1.1369
  153SAPE  H11Y17029   3.910   6.795   8.034 -0.3828  0.0987 -0.1584
  153SAPE  C31217030   4.044   6.875   8.190 -0.7561  0.1425 -0.7690
  153SAPE  H12X17031   4.000   6.977   8.180  0.1228  0.7389  0.9897
  153SAPE  H12Y17032   4.147   6.916   8.198 -1.7315  2.6094  0.0610
  153SAPE  C31317033   3.988   6.810   8.317  0.4101 -0.0522 -0.4994
  153SAPE  H13X17034   4.011   6.887   8.395 -0.1468  1.1518 -1.4830
  153SAPE  H13Y17035   4.045   6.718   8.338 -1.8351 -1.1333  1.3457
  153SAPE  C31417036   3.837   6.781   8.313  0.2248 -0.0483 -0.0573
  153SAPE  H14X17037   3.813   6.697   8.244  0.0258 -0.0612  0.0294
  153SAPE  H14Y17038   3.782   6.869   8.274  0.8880 -0.3599 -1.8004
  153SAPE  C31517039   3.769   6.763   8.445  0.1294  0.2402  0.4947
  153SAPE  H15X17040   3.804   6.841   8.516 -0.5656  1.6246 -0.6473
  153SAPE  H15Y17041   3.799   6.664   8.485  0.0670 -0.8412 -1.9663
  153SAPE  C31617042   3.618   6.781   8.431  0.0568 -0.4070  0.5600
  153SAPE  H16X17043   3.573   6.709   8.359  1.7798 -1.7989  0.8088
  153SAPE  H16Y17044   3.595   6.881   8.389 -0.9770 -1.2413 -0.9787
  153SAPE  C31717045   3.537   6.747   8.555 -0.0602  0.4086 -0.6412
  153SAPE  H17X17046   3.586   6.777   8.649  1.4337 -2.9352 -0.2033
  153SAPE  H17Y17047   3.536   6.636   8.562  0.2719  0.2925 -2.0167
  153SAPE  C31817048   3.393   6.793   8.549  0.0855 -0.6040 -0.3514
  153SAPE  H18X17049   3.353   6.782   8.446 -1.5530  2.0151 -0.0816
  153SAPE  H18Y17050   3.393   6.901   8.576 -3.2255 -0.3792 -0.8697
  153SAPE  H18Z17051   3.323   6.736   8.614 -0.5448 -0.0665 -0.5537
  154SAPE     N17052   0.459   2.679   6.054  0.2232  0.5845 -0.0337
  154SAPE   HN117053   0.559   2.706   6.047  0.6703 -1.3854 -2.4149
  154SAPE   HN217054   0.409   2.702   5.966  1.2486 -3.1436 -1.7611
  154SAPE   HN317055   0.411   2.718   6.138  0.3961  1.9761 -0.5543
  154SAPE   C1217056   0.455   2.534   6.053  0.1980  0.2010 -0.0787
  154SAPE  H12A17057   0.352   2.496   6.036 -0.4215  0.0249  3.2941
  154SAPE  H12B17058   0.479   2.500   6.156  0.1491 -0.0940 -0.1633
  154SAPE   C1117059   0.564   2.465   5.963 -0.1325  0.3887  0.2473
  154SAPE  H11A17060   0.555   2.493   5.856 -0.5517  0.3987  0.2855
  154SAPE  H11B17061   0.542   2.356   5.966  1.3928  0.0227 -0.6313
  154SAPE     P17062   0.830   2.447   5.984  0.3428 -0.3768 -0.1117
  154SAPE   O1317063   0.818   2.331   5.898 -0.4941 -0.3295 -0.0789
  154SAPE   O1417064   0.912   2.555   5.928  0.3381 -0.1096 -0.5931
  154SAPE   O1217065   0.691   2.513   6.019  0.1669 -0.2335  0.0071
  154SAPE   O1117066   0.888   2.402   6.118 -0.0149  0.0400  0.5724
  154SAPE    C117067   0.835   2.302   6.210 -0.2321 -0.1333 -0.6783
  154SAPE    HA17068   0.834   2.204   6.157 -0.1524 -0.1256 -0.6951
  154SAPE    HB17069   0.912   2.286   6.288 -0.0793  0.5734 -0.6850
  154SAPE    C217070   0.707   2.347   6.295 -0.0702 -0.4331  0.3395
  154SAPE    HS17071   0.634   2.387   6.222 -1.0769  1.1737  2.1338
  154SAPE   O2117072   0.750   2.445   6.388  0.2835 -0.7001  0.2831
  154SAPE   C2117073   0.669   2.545   6.416 -0.5370 -0.0446  0.0433
  154SAPE   O2217074   0.571   2.580   6.352 -0.5373  0.0642  0.4598
  154SAPE   C2217075   0.729   2.623   6.536 -0.0706 -0.0652 -0.0172
  154SAPE   H2R17076   0.823   2.577   6.572  1.0500  1.9283 -0.2243
  154SAPE   H2S17077   0.763   2.722   6.499 -0.4226 -0.2392 -0.8263
  154SAPE    C317078   0.640   2.235   6.374 -0.1496 -0.5545 -0.1817
  154SAPE    HX17079   0.718   2.198   6.444  1.3992  2.0409 -0.3869
  154SAPE    HY17080   0.620   2.146   6.310  0.1796 -0.8325  0.0944
  154SAPE   O3117081   0.525   2.281   6.458 -0.8041 -0.1092  0.5888
  154SAPE   C3117082   0.413   2.300   6.401  0.0261 -0.5078 -0.2249
  154SAPE   O3217083   0.373   2.289   6.287 -0.9049  0.7602 -0.0688
  154SAPE   C3217084   0.312   2.351   6.510  0.5470  0.2429  0.3153
  154SAPE   H2X17085   0.333   2.458   6.528 -1.7656  0.4061  2.6820
  154SAPE   H2Y17086   0.333   2.287   6.599 -0.0468 -1.1953 -0.5355
  154SAPE   C2317087   0.623   2.631   6.652 -0.2572  0.0561 -0.9185
  154SAPE   H3R17088   0.522   2.659   6.615 -0.2015  0.9722 -0.4066
  154SAPE   H3S17089   0.652   2.716   6.717  0.1044 -1.8485  1.5418
  154SAPE   C2417090   0.632   2.498   6.743  0.0105 -0.2160  0.5533
  154SAPE   H4R17091   0.728   2.513   6.797 -0.0067 -1.5948  0.9959
  154SAPE   H4S17092   0.643   2.407   6.680  1.1974 -1.7984  2.8692
  154SAPE   C2517093   0.518   2.496   6.836  0.4403 -0.2975  0.9653
  154SAPE   H5R17094   0.430   2.547   6.792  0.2309 -1.4753 -0.0717
  154SAPE   C2617095   0.498   2.457   6.960  0.5470  0.0253  0.6942
  154SAPE   H6R17096   0.395   2.458   7.000 -0.8399  2.9407 -2.4523
  154SAPE   C2717097   0.605   2.386   7.037 -1.1149 -0.7322 -0.1802
  154SAPE   H7R17098   0.669   2.336   6.961  1.9343  3.9613 -1.1445
  154SAPE   H7S17099   0.556   2.310   7.102  0.0041 -0.4977  0.9820
  154SAPE   C2817100   0.705   2.482   7.113  0.4446  0.3245  0.2015
  154SAPE   H8R17101   0.766   2.550   7.051 -2.9148  1.6243 -1.9298
  154SAPE   C2917102   0.721   2.476   7.247 -0.0361 -0.0680 -0.4580
  154SAPE   H9R17103   0.785   2.546   7.301 -0.4485  1.1334 -1.4616
  154SAPE  C21017104   0.632   2.389   7.336 -0.2783  0.9436 -0.1240
  154SAPE  H10R17105   0.693   2.378   7.428  1.9946 -1.2094 -1.7663
  154SAPE  H10S17106   0.628   2.287   7.294  0.3216  0.5302  0.7986
  154SAPE  C21117107   0.491   2.440   7.357 -0.3881  0.0926 -0.4318
  154SAPE  H11R17108   0.425   2.403   7.277 -0.6378  0.2766 -0.3129
  154SAPE  C21217109   0.435   2.514   7.457  0.3986  0.3803  0.4810
  154SAPE  H12R17110   0.325   2.523   7.460  0.3977  0.3389  0.5631
  154SAPE  C21317111   0.516   2.554   7.586  0.7670 -0.1563 -0.3288
  154SAPE  H13R17112   0.624   2.551   7.562  0.3817 -2.2618 -2.0870
  154SAPE  H13S17113   0.499   2.484   7.670 -2.7669 -2.4763 -2.6811
  154SAPE  C21417114   0.495   2.694   7.633 -0.1215 -0.1919  0.1655
  154SAPE  H14R17115   0.441   2.755   7.559 -0.5017 -0.5276  0.1665
  154SAPE  C21517116   0.554   2.745   7.746 -0.2525  0.3402  0.5940
  154SAPE  H15R17117   0.520   2.842   7.784 -3.2024 -0.8107  1.1942
  154SAPE  C21617118   0.656   2.674   7.831  0.5389 -0.3415  0.2480
  154SAPE  H16R17119   0.748   2.735   7.843  0.7857 -0.9062  1.2864
  154SAPE  H16S17120   0.695   2.587   7.774  0.7037  1.0026 -1.8326
  154SAPE  C21717121   0.610   2.650   7.980  0.2345  0.2368  1.4048
  154SAPE  H17R17122   0.603   2.747   8.034  1.0428 -0.0890  2.1243
  154SAPE  H17S17123   0.689   2.595   8.036  0.9002  0.6886  0.9173
  154SAPE  C21817124   0.486   2.567   7.988  0.4518 -0.5859 -0.7624
  154SAPE  H18R17125   0.399   2.613   7.936 -1.0932 -0.1448  2.0031
  154SAPE  H18S17126   0.448   2.567   8.093  2.2573  4.1647  0.1632
  154SAPE  C21917127   0.503   2.422   7.949 -0.3435 -0.0189 -0.9065
  154SAPE  H19R17128   0.589   2.388   8.010  0.0169 -0.0008 -1.4018
  154SAPE  H19S17129   0.539   2.422   7.845  0.3254  1.3473 -0.6893
  154SAPE  C22017130   0.380   2.336   7.963  0.4226 -0.3566 -0.1663
  154SAPE  H20R17131   0.351   2.344   8.070  1.2285  1.4429 -0.0474
  154SAPE  H20S17132   0.402   2.228   7.944 -0.5804 -0.6138  0.0299
  154SAPE  H20T17133   0.296   2.370   7.898  0.0716 -1.0519 -0.0940
  154SAPE   C3317134   0.161   2.337   6.466  0.2662  0.0278 -0.1373
  154SAPE   H3X17135   0.135   2.230   6.450 -0.6816  0.4514 -1.6251
  154SAPE   H3Y17136   0.159   2.387   6.367  0.0586 -3.2340 -1.9235
  154SAPE   C3417137   0.065   2.393   6.573  0.3760  0.5737  0.0854
  154SAPE   H4X17138  -0.039   2.397   6.535 -1.5970 -0.4333  4.7338
  154SAPE   H4Y17139   0.091   2.499   6.596 -0.8462  1.2753 -1.5545
  154SAPE   C3517140   0.064   2.315   6.698 -0.2019 -0.2140 -0.4790
  154SAPE   H5X17141   0.126   2.362   6.777 -1.6060  1.0288 -0.0556
  154SAPE   H5Y17142   0.104   2.213   6.681 -1.8145 -1.0863  0.6527
  154SAPE   C3617143  -0.084   2.326   6.755  0.2319 -0.6834  0.0608
  154SAPE   H6X17144  -0.156   2.292   6.677 -0.3780 -0.1404  0.3785
  154SAPE   H6Y17145  -0.117   2.432   6.759  0.1947 -0.6112 -1.4198
  154SAPE   C3717146  -0.114   2.245   6.885 -0.2779 -0.6058 -0.5050
  154SAPE   H7X17147  -0.065   2.299   6.969  0.8139  0.7385 -1.9434
  154SAPE   H7Y17148  -0.063   2.147   6.888  1.8611  0.4564  1.9812
  154SAPE   C3817149  -0.267   2.240   6.923  0.0662  0.3084 -0.5627
  154SAPE   H8X17150  -0.315   2.186   6.839 -0.1013 -0.7802  0.2103
  154SAPE   H8Y17151  -0.302   2.346   6.922 -0.0134  0.3010  0.3886
  154SAPE   C3917152  -0.286   2.161   7.049 -0.0947 -0.1225 -0.2578
  154SAPE   H9X17153  -0.214   2.076   7.049  0.5569  0.3635 -2.5987
  154SAPE   H9Y17154  -0.390   2.121   7.054 -0.7095  1.3835 -0.7062
  154SAPE  C31017155  -0.259   2.244   7.174  0.0545 -0.4568  0.3223
  154SAPE  H10X17156  -0.328   2.328   7.195 -0.4751 -0.1635 -2.2954
  154SAPE  H10Y17157  -0.163   2.300   7.169 -0.5860  0.5735 -1.0351
  154SAPE  C31117158  -0.260   2.159   7.297  0.2390 -0.2142 -0.4565
  154SAPE  H11X17159  -0.192   2.073   7.282  0.7312  0.1761 -0.4794
  154SAPE  H11Y17160  -0.366   2.130   7.315  0.6945 -1.1902  0.8312
  154SAPE  C31217161  -0.211   2.234   7.426  0.3762  0.2849 -0.6245
  154SAPE  H12X17162  -0.242   2.341   7.423  2.2645  0.8692 -4.2219
  154SAPE  H12Y17163  -0.100   2.239   7.432  0.2896  1.9026  3.6890
  154SAPE  C31317164  -0.260   2.171   7.555 -0.4973 -0.7616 -0.4182
  154SAPE  H13X17165  -0.217   2.070   7.577  2.0617  0.5451  1.0801
  154SAPE  H13Y17166  -0.371   2.169   7.555 -0.6557  2.5475 -0.7026
  154SAPE  C31417167  -0.215   2.243   7.681 -0.1926 -0.2445 -1.4779
  154SAPE  H14X17168  -0.117   2.291   7.656 -0.7992  0.8255 -1.8817
  154SAPE  H14Y17169  -0.200   2.166   7.759 -2.5106 -0.2638 -1.0044
  154SAPE  C31517170  -0.318   2.342   7.743  0.0822  0.1047  0.1049
  154SAPE  H15X17171  -0.415   2.289   7.754  0.4954 -0.7980 -0.4528
  154SAPE  H15Y17172  -0.334   2.416   7.662  0.3358  0.1645  0.1075
  154SAPE  C31617173  -0.270   2.417   7.870  0.3293 -0.0353  1.0459
  154SAPE  H16X17174  -0.189   2.486   7.840  0.2083  0.3405  1.5870
  154SAPE  H16Y17175  -0.224   2.343   7.939  1.8169  1.5533  1.8379
  154SAPE  C31717176  -0.373   2.504   7.938  0.1968  0.4112  0.2365
  154SAPE  H17X17177  -0.431   2.438   8.006 -1.1247  2.2082  0.9320
  154SAPE  H17Y17178  -0.434   2.564   7.867  1.5470  1.0203 -0.4333
  154SAPE  C31817179  -0.301   2.603   8.035  0.7774 -0.1457 -0.3625
  154SAPE  H18X17180  -0.381   2.634   8.106  0.6305 -0.7731 -0.2491
  154SAPE  H18Y17181  -0.257   2.694   7.989  2.2579 -0.8497 -0.3774
  154SAPE  H18Z17182  -0.228   2.555   8.103 -0.0338 -0.4802  0.2933
  155SAPE     N17183   2.603   4.655   6.200  0.6859 -0.4062 -0.2935
  155SAPE   HN117184   2.649   4.735   6.248 -1.7329  2.5617 -2.5800
  155SAPE   HN217185   2.524   4.626   6.261 -0.5717 -1.0969 -2.1828
  155SAPE   HN317186   2.669   4.574   6.208  1.2357  0.0836  0.3419
  155SAPE   C1217187   2.537   4.697   6.070 -0.2708  0.3226 -0.4544
  155SAPE  H12A17188   2.605   4.676   5.985 -0.2046 -1.0015 -0.0939
  155SAPE  H12B17189   2.519   4.807   6.068 -0.9650  0.1985 -2.1542
  155SAPE   C1117190   2.405   4.619   6.056  0.0501  0.2063 -0.0614
  155SAPE  H11A17191   2.424   4.510   6.064 -1.4725 -0.1074 -0.3532
  155SAPE  H11B17192   2.354   4.627   5.957  0.6539 -1.9282 -0.5820
  155SAPE     P17193   2.267   4.572   6.266 -0.0993  0.1232  0.0547
  155SAPE   O1317194   2.199   4.644   6.367 -0.2458  1.0051  0.4778
  155SAPE   O1417195   2.184   4.466   6.207 -0.5148  0.3436  0.1225
  155SAPE   O1217196   2.309   4.669   6.155 -0.3660  0.7217 -0.5243
  155SAPE   O1117197   2.398   4.516   6.315 -0.3498  0.6506  0.3961
  155SAPE    C117198   2.425   4.407   6.400  0.0597 -0.0226 -0.0681
  155SAPE    HA17199   2.344   4.332   6.416 -0.0860  0.2803  0.6406
  155SAPE    HB17200   2.516   4.352   6.366 -0.0957 -0.7003  0.5905
  155SAPE    C217201   2.467   4.462   6.542  0.3401 -0.2484 -0.2853
  155SAPE    HS17202   2.383   4.529   6.573  0.9980  0.4220  0.0656
  155SAPE   O2117203   2.591   4.533   6.547 -0.0828 -0.1310 -0.7742
  155SAPE   C2117204   2.598   4.615   6.647 -0.0682 -0.1808  0.1747
  155SAPE   O2217205   2.502   4.660   6.713 -0.1606  0.0632 -0.5391
  155SAPE   C2217206   2.745   4.650   6.672 -0.3390  0.3308  0.0966
  155SAPE   H2R17207   2.795   4.668   6.574 -0.3334  0.3461  0.1024
  155SAPE   H2S17208   2.737   4.752   6.715  1.1613  0.6542 -0.3280
  155SAPE    C317209   2.465   4.329   6.632 -0.3277  0.1999  0.3398
  155SAPE    HX17210   2.536   4.263   6.577 -0.9658  0.1568 -0.4552
  155SAPE    HY17211   2.376   4.265   6.649  0.4274 -0.9008  0.2691
  155SAPE   O3117212   2.515   4.358   6.762  0.1193 -0.0077  0.0560
  155SAPE   C3117213   2.523   4.254   6.854  0.3021 -0.5291  0.5620
  155SAPE   O3217214   2.514   4.133   6.831  0.2252 -0.5258  0.4279
  155SAPE   C3217215   2.527   4.316   6.999  0.5968 -0.4766 -0.0679
  155SAPE   H2X17216   2.540   4.425   6.984 -2.1781  0.0501  0.7811
  155SAPE   H2Y17217   2.615   4.276   7.054  0.9231  1.2127  0.7088
  155SAPE   C2317218   2.824   4.553   6.765  0.1746 -0.3686  0.5764
  155SAPE   H3R17219   2.929   4.571   6.734  0.1019  2.0325  1.4952
  155SAPE   H3S17220   2.788   4.450   6.743 -1.1589 -0.1056  1.3804
  155SAPE   C2417221   2.800   4.582   6.917 -0.0455  0.3543 -0.2307
  155SAPE   H4R17222   2.867   4.502   6.955 -0.4074 -1.4838 -3.0920
  155SAPE   H4S17223   2.693   4.553   6.926 -0.2098  0.0101 -2.5093
  155SAPE   C2517224   2.820   4.720   6.978 -0.2289  0.1090 -0.1088
  155SAPE   H5R17225   2.797   4.801   6.908  1.1051 -0.5022 -1.3202
  155SAPE   C2617226   2.888   4.748   7.093  0.0429 -0.6560  0.1740
  155SAPE   H6R17227   2.911   4.854   7.113 -0.1282 -0.8534  1.5000
  155SAPE   C2717228   2.935   4.641   7.189 -0.4789  0.2677  0.9499
  155SAPE   H7R17229   3.023   4.594   7.140 -0.9067  1.9812 -1.6290
  155SAPE   H7S17230   2.850   4.570   7.194  0.7869 -1.2542  2.7103
  155SAPE   C2817231   2.982   4.681   7.328  0.0820  0.1923  0.8888
  155SAPE   H8R17232   3.048   4.768   7.326  1.1309 -0.5694 -1.7778
  155SAPE   C2917233   2.946   4.614   7.440 -0.3749  0.1196 -0.4018
  155SAPE   H9R17234   2.994   4.642   7.535  0.6866 -2.8313  0.0467
  155SAPE  C21017235   2.849   4.488   7.445 -0.6403 -0.8938  0.0185
  155SAPE  H10R17236   2.896   4.414   7.513 -1.1708 -1.5232 -0.2876
  155SAPE  H10S17237   2.847   4.448   7.342 -3.1139 -1.2642  0.1617
  155SAPE  C21117238   2.710   4.526   7.487 -0.7633 -0.3820  0.1406
  155SAPE  H11R17239   2.649   4.592   7.422  0.2881  1.8197  1.2687
  155SAPE  C21217240   2.649   4.489   7.602 -0.1455  0.1624  0.1098
  155SAPE  H12R17241   2.549   4.531   7.618 -0.1882 -0.7504  2.7550
  155SAPE  C21317242   2.704   4.402   7.702 -0.1752 -0.6544 -0.7274
  155SAPE  H13R17243   2.777   4.328   7.663 -0.1117 -0.7623 -0.4072
  155SAPE  H13S17244   2.630   4.330   7.743  0.3414 -0.2452  0.9857
  155SAPE  C21417245   2.776   4.490   7.804 -0.4100 -1.1750 -0.3822
  155SAPE  H14R17246   2.883   4.507   7.786 -0.1519 -1.0900  1.1033
  155SAPE  C21517247   2.727   4.529   7.925  1.1676 -0.4608 -0.3389
  155SAPE  H15R17248   2.787   4.594   7.990  0.2443 -2.1676  2.3797
  155SAPE  C21617249   2.588   4.495   7.969  0.0275 -0.0526  0.2461
  155SAPE  H16R17250   2.530   4.469   7.878 -0.2308  1.9491 -0.2046
  155SAPE  H16S17251   2.542   4.585   8.014 -0.5616  0.5939 -1.5512
  155SAPE  C21717252   2.591   4.383   8.075  0.3298 -0.4512  0.4592
  155SAPE  H17R17253   2.626   4.285   8.037 -1.4477 -0.7164 -0.6252
  155SAPE  H17S17254   2.485   4.350   8.088 -0.3836  0.5035 -2.2960
  155SAPE  C21817255   2.636   4.427   8.212  0.2690  0.0940 -0.7480
  155SAPE  H18R17256   2.569   4.508   8.248 -1.6156 -1.9498  0.5705
  155SAPE  H18S17257   2.742   4.457   8.198  0.4866 -1.3835 -2.7063
  155SAPE  C21917258   2.626   4.324   8.324  0.3209  0.0675 -0.1567
  155SAPE  H19R17259   2.671   4.224   8.304  0.2171 -0.8012  3.1921
  155SAPE  H19S17260   2.519   4.299   8.343  0.3461  0.5153  0.6251
  155SAPE  C22017261   2.694   4.367   8.458  0.0515  0.8161  0.5189
  155SAPE  H20R17262   2.695   4.287   8.535 -0.9231 -0.6715 -0.9450
  155SAPE  H20S17263   2.639   4.454   8.499  0.5389  1.2355  0.2958
  155SAPE  H20T17264   2.797   4.401   8.435  0.7629  1.9343  4.5721
  155SAPE   C3317265   2.391   4.298   7.090 -1.1346  0.3163  0.6853
  155SAPE   H3X17266   2.380   4.190   7.114  0.4167 -0.1516 -0.5005
  155SAPE   H3Y17267   2.308   4.328   7.022 -1.0432  2.6371  1.5376
  155SAPE   C3417268   2.379   4.383   7.214  0.2901  0.1823 -0.2132
  155SAPE   H4X17269   2.368   4.490   7.185  0.7632  0.9612  2.3044
  155SAPE   H4Y17270   2.473   4.372   7.271  0.5928  3.1086  0.0136
  155SAPE   C3517271   2.265   4.334   7.302 -0.5721  0.1774  0.3574
  155SAPE   H5X17272   2.291   4.232   7.338  1.3243  0.7574  0.7281
  155SAPE   H5Y17273   2.170   4.325   7.245  0.9273 -3.3569 -1.9811
  155SAPE   C3617274   2.242   4.420   7.427 -0.3424  0.1250 -0.1664
  155SAPE   H6X17275   2.189   4.513   7.397 -1.5413 -0.9414 -1.4719
  155SAPE   H6Y17276   2.346   4.444   7.461 -0.5501 -0.7204  1.1586
  155SAPE   C3717277   2.164   4.336   7.528  0.4855  0.2561  0.1543
  155SAPE   H7X17278   2.208   4.235   7.544 -3.2734 -1.8509 -1.4659
  155SAPE   H7Y17279   2.066   4.317   7.479  1.1822  1.4520 -1.8131
  155SAPE   C3817280   2.140   4.405   7.663  0.0872 -0.7828  0.5954
  155SAPE   H8X17281   2.055   4.357   7.715 -0.1188 -2.6196 -1.2879
  155SAPE   H8Y17282   2.098   4.503   7.633 -0.3995 -2.1067 -3.7217
  155SAPE   C3917283   2.262   4.412   7.747 -0.5759 -0.1586 -0.4354
  155SAPE   H9X17284   2.348   4.446   7.685 -0.4821  1.0446  0.3392
  155SAPE   H9Y17285   2.287   4.308   7.779  1.5818  0.7277  1.0070
  155SAPE  C31017286   2.247   4.499   7.870  0.5201  0.2941 -1.2590
  155SAPE  H10X17287   2.232   4.607   7.847  1.7419  1.0599  1.2575
  155SAPE  H10Y17288   2.344   4.486   7.921 -0.4011 -0.0581  0.4831
  155SAPE  C31117289   2.137   4.441   7.965  0.4263 -0.1748 -0.1710
  155SAPE  H11X17290   2.139   4.331   7.952 -4.5730 -0.4597 -0.6212
  155SAPE  H11Y17291   2.036   4.483   7.943  0.0808 -0.7462  0.2832
  155SAPE  C31217292   2.176   4.480   8.109  0.0283  0.2752  0.1616
  155SAPE  H12X17293   2.274   4.436   8.139  0.4562 -0.8300 -2.5615
  155SAPE  H12Y17294   2.100   4.433   8.175  1.1507 -1.7957  0.0635
  155SAPE  C31317295   2.185   4.634   8.125 -0.9748  0.7872  0.0562
  155SAPE  H13X17296   2.092   4.691   8.103 -2.3103 -1.3946 -0.2457
  155SAPE  H13Y17297   2.264   4.684   8.064 -1.3801  1.1310 -0.1931
  155SAPE  C31417298   2.232   4.668   8.273 -0.2476 -0.7953  0.1301
  155SAPE  H14X17299   2.309   4.592   8.300  0.5982  0.5310  1.6204
  155SAPE  H14Y17300   2.143   4.652   8.337 -0.9342 -1.6738 -1.0117
  155SAPE  C31517301   2.289   4.810   8.297  0.1175 -0.0336  0.2255
  155SAPE  H15X17302   2.270   4.831   8.405 -4.1104  0.4674 -0.4430
  155SAPE  H15Y17303   2.214   4.869   8.240 -0.4314 -2.2217 -1.4146
  155SAPE  C31617304   2.436   4.837   8.248  0.0773 -0.4092 -0.3160
  155SAPE  H16X17305   2.446   4.944   8.221 -0.2821 -0.8936 -2.5944
  155SAPE  H16Y17306   2.461   4.774   8.160  0.2139 -0.8208  0.0125
  155SAPE  C31717307   2.540   4.811   8.357 -0.5399 -0.4609 -0.1406
  155SAPE  H17X17308   2.523   4.706   8.390  0.6302 -0.5516  0.2207
  155SAPE  H17Y17309   2.512   4.885   8.435  2.4569  1.1826 -0.4782
  155SAPE  C31817310   2.689   4.818   8.317  0.2935 -0.1630 -0.7732
  155SAPE  H18X17311   2.757   4.786   8.399 -1.8519 -2.4710  0.2546
  155SAPE  H18Y17312   2.728   4.920   8.300  1.8599 -0.5434  0.3646
  155SAPE  H18Z17313   2.724   4.755   8.232  0.6096 -1.1813  0.0886
  156SAPE     N17314   6.685   6.016   6.183 -0.6698 -1.2252 -0.3824
  156SAPE   HN117315   6.729   6.084   6.248 -0.7742 -0.2204 -1.3275
  156SAPE   HN217316   6.637   6.057   6.099  0.3910  0.0948 -0.3820
  156SAPE   HN317317   6.610   5.964   6.233 -0.8756  0.7090  1.4860
  156SAPE   C1217318   6.790   5.921   6.155  0.2416  0.8734 -0.4803
  156SAPE  H12A17319   6.860   5.969   6.084 -1.0111  0.5150 -2.0173
  156SAPE  H12B17320   6.742   5.832   6.108  0.8056  0.3116 -0.0145
  156SAPE   C1117321   6.865   5.886   6.289 -0.2858 -0.0301  0.0427
  156SAPE  H11A17322   6.904   5.785   6.262 -0.0351  0.3897 -1.2484
  156SAPE  H11B17323   6.792   5.878   6.372  0.7824  1.5062  1.1643
  156SAPE     P17324   6.949   6.100   6.410  0.4118 -0.1711 -0.1835
  156SAPE   O1317325   7.076   6.182   6.404 -0.2197  0.2800 -0.2817
  156SAPE   O1417326   6.828   6.163   6.365  0.0837  0.0624 -0.0259
  156SAPE   O1217327   6.970   5.975   6.322 -0.3160  0.0464  0.4098
  156SAPE   O1117328   6.934   6.039   6.552 -0.0008  0.6948  0.0114
  156SAPE    C117329   7.055   5.963   6.599 -0.0371 -0.2178 -0.2292
  156SAPE    HA17330   7.047   5.861   6.554 -2.4808 -0.0817 -0.2217
  156SAPE    HB17331   7.153   6.001   6.564  0.0817  1.3660  1.6333
  156SAPE    C217332   7.067   5.973   6.755  0.0533  0.0165  0.1786
  156SAPE    HS17333   7.139   5.892   6.779 -1.2958 -1.4882 -0.5976
  156SAPE   O2117334   6.939   5.954   6.818 -0.0645  0.3293 -0.6996
  156SAPE   C2117335   6.890   5.832   6.817 -0.2291 -0.7274  0.7236
  156SAPE   O2217336   6.946   5.726   6.792  0.4555 -0.5009  0.6049
  156SAPE   C2217337   6.739   5.834   6.848 -0.0831  0.4803 -0.5392
  156SAPE   H2R17338   6.723   5.924   6.912 -0.0758  0.0141  0.1322
  156SAPE   H2S17339   6.685   5.854   6.753 -0.0613 -1.6985 -1.0671
  156SAPE    C317340   7.123   6.110   6.795  0.6896 -0.4341 -0.0085
  156SAPE    HX17341   7.044   6.184   6.771 -1.1245 -1.8649  1.3094
  156SAPE    HY17342   7.211   6.130   6.730 -0.7578  1.0147 -1.6136
  156SAPE   O3117343   7.157   6.096   6.936  0.0141 -0.2520 -0.2689
  156SAPE   C3117344   7.249   6.181   6.977  1.1474  0.6909 -0.1348
  156SAPE   O3217345   7.294   6.276   6.918  0.3975 -0.0793 -0.3826
  156SAPE   C3217346   7.303   6.126   7.104  0.0595 -0.0183 -0.0038
  156SAPE   H2X17347   7.295   6.016   7.095  1.0519 -0.1877  1.0571
  156SAPE   H2Y17348   7.234   6.162   7.184  0.1069  1.1516 -0.4573
  156SAPE   C2317349   6.678   5.715   6.920 -0.8807 -0.1492  0.0363
  156SAPE   H3R17350   6.688   5.621   6.861  1.8559 -0.7206  1.2773
  156SAPE   H3S17351   6.568   5.732   6.931 -0.9512 -0.6618  0.1375
  156SAPE   C2417352   6.736   5.687   7.063  0.0420  0.4229 -0.5849
  156SAPE   H4R17353   6.845   5.666   7.054  0.2333  0.9227  0.4235
  156SAPE   H4S17354   6.694   5.595   7.107 -0.8578 -0.0347 -2.3268
  156SAPE   C2517355   6.708   5.805   7.152  0.0173 -0.1610 -0.0247
  156SAPE   H5R17356   6.608   5.849   7.148 -0.6736 -1.3528  2.0435
  156SAPE   C2617357   6.790   5.856   7.252  0.3932 -0.8521  0.3329
  156SAPE   H6R17358   6.753   5.936   7.318  0.3286  0.3180 -1.0579
  156SAPE   C2717359   6.926   5.807   7.295  0.1101 -0.4305 -0.4161
  156SAPE   H7R17360   6.953   5.731   7.219 -2.7106 -1.7518 -0.2283
  156SAPE   H7S17361   6.920   5.753   7.392  3.4195 -0.8117 -0.3049
  156SAPE   C2817362   7.037   5.904   7.293 -0.4513 -0.5343 -0.0557
  156SAPE   H8R17363   7.071   5.913   7.189 -2.1738 -2.9243 -0.9118
  156SAPE   C2917364   7.101   5.959   7.397  0.0335 -0.6808 -0.1514
  156SAPE   H9R17365   7.193   6.015   7.376  0.3724 -1.1196  0.1612
  156SAPE  C21017366   7.067   5.940   7.543  0.5122  0.2363 -0.3877
  156SAPE  H10R17367   6.957   5.949   7.551  0.4521  0.4922 -1.4562
  156SAPE  H10S17368   7.096   6.031   7.600 -1.1233  0.8443 -0.4870
  156SAPE  C21117369   7.105   5.810   7.611  0.0788  0.5800 -0.2720
  156SAPE  H11R17370   7.171   5.746   7.550  0.1884  0.9902 -0.5846
  156SAPE  C21217371   7.068   5.781   7.742 -0.8614  0.4529 -0.1075
  156SAPE  H12R17372   7.102   5.684   7.779 -0.6679  0.7223  0.4420
  156SAPE  C21317373   6.977   5.863   7.829 -0.7427  0.0467 -0.3458
  156SAPE  H13R17374   6.945   5.955   7.776 -3.3695  1.3438  3.1408
  156SAPE  H13S17375   7.025   5.897   7.923 -0.4641  2.1410 -1.1987
  156SAPE  C21417376   6.851   5.788   7.848  0.0255  0.0905  0.0463
  156SAPE  H14R17377   6.782   5.786   7.762  0.3539 -2.0586 -0.2303
  156SAPE  C21517378   6.810   5.724   7.959  0.1825 -0.2488  0.2931
  156SAPE  H15R17379   6.714   5.671   7.966  0.1388 -0.0185  1.6789
  156SAPE  C21617380   6.875   5.714   8.094  0.0762 -0.3266  0.0620
  156SAPE  H16R17381   6.977   5.758   8.102  1.0239 -2.5181  0.6972
  156SAPE  H16S17382   6.894   5.606   8.107 -1.7778 -1.0294 -2.3091
  156SAPE  C21717383   6.795   5.773   8.217  0.0858 -0.2742 -0.9402
  156SAPE  H17R17384   6.849   5.750   8.311 -2.4641 -1.4373  0.3353
  156SAPE  H17S17385   6.697   5.722   8.225  0.2949 -0.4144  1.5090
  156SAPE  C21817386   6.765   5.927   8.206 -0.1445  0.4965 -0.1291
  156SAPE  H18R17387   6.672   5.939   8.146 -0.0488 -1.9483 -0.8861
  156SAPE  H18S17388   6.843   5.982   8.150  0.2012  0.2535  0.1091
  156SAPE  C21917389   6.750   5.993   8.339  0.0162 -0.2636 -0.0433
  156SAPE  H19R17390   6.838   5.958   8.398  1.6349  1.5639 -1.2375
  156SAPE  H19S17391   6.658   5.948   8.381 -0.6499  1.4218  0.3925
  156SAPE  C22017392   6.740   6.149   8.332 -0.0456  0.6265 -0.2620
  156SAPE  H20R17393   6.663   6.182   8.259 -0.2107  2.2120  0.5963
  156SAPE  H20S17394   6.836   6.195   8.300  1.7392 -1.8747  1.1722
  156SAPE  H20T17395   6.720   6.190   8.433  1.7727  1.6462 -0.2709
  156SAPE   C3317396   7.447   6.164   7.132 -0.8758  0.5136  0.1723
  156SAPE   H3X17397   7.506   6.175   7.038 -1.2779  1.2514 -0.0025
  156SAPE   H3Y17398   7.496   6.083   7.190 -0.3556  0.1019 -0.8238
  156SAPE   C3417399   7.456   6.296   7.214  0.2553  0.1337 -0.3131
  156SAPE   H4X17400   7.388   6.365   7.161 -1.4029 -1.6932 -0.6737
  156SAPE   H4Y17401   7.555   6.346   7.204 -0.0176  0.4467 -1.5981
  156SAPE   C3517402   7.416   6.287   7.360 -0.7774 -0.8643 -0.3370
  156SAPE   H5X17403   7.490   6.211   7.393  1.8304  0.7828 -2.0420
  156SAPE   H5Y17404   7.311   6.250   7.371 -1.8900  2.2133  0.3553
  156SAPE   C3617405   7.439   6.413   7.427  0.5279  0.3102 -1.2281
  156SAPE   H6X17406   7.393   6.496   7.369  0.4019  0.8828 -0.3215
  156SAPE   H6Y17407   7.546   6.436   7.446  0.6641 -2.3424  2.0512
  156SAPE   C3717408   7.354   6.410   7.564 -0.1278 -0.5144 -0.4841
  156SAPE   H7X17409   7.249   6.388   7.538  0.1683 -0.5723 -1.6943
  156SAPE   H7Y17410   7.363   6.510   7.612 -1.0626 -0.7461  0.1963
  156SAPE   C3817411   7.400   6.304   7.666  0.3498  0.1017 -0.2972
  156SAPE   H8X17412   7.508   6.315   7.687  0.0267  0.3654  1.3662
  156SAPE   H8Y17413   7.379   6.202   7.628  0.9764 -0.4662  0.8414
  156SAPE   C3917414   7.333   6.328   7.805 -0.4753 -0.1456  0.1432
  156SAPE   H9X17415   7.228   6.299   7.784  0.1539 -0.7887 -2.4448
  156SAPE   H9Y17416   7.330   6.439   7.807 -2.4568 -0.1343 -1.1283
  156SAPE  C31017417   7.405   6.269   7.922 -0.4100  0.5302 -0.0489
  156SAPE  H10X17418   7.512   6.280   7.893 -0.7834 -0.7597 -2.1507
  156SAPE  H10Y17419   7.382   6.162   7.939 -1.5068  0.8199  0.3681
  156SAPE  C31117420   7.379   6.334   8.058 -0.6410  0.4786  0.0529
  156SAPE  H11X17421   7.419   6.437   8.068 -1.5806  1.0233 -1.5563
  156SAPE  H11Y17422   7.433   6.266   8.127 -1.8974  1.9648  2.6459
  156SAPE  C31217423   7.238   6.311   8.107  0.1915 -0.8796 -0.3956
  156SAPE  H12X17424   7.196   6.212   8.080  1.2265 -1.1637 -1.0002
  156SAPE  H12Y17425   7.165   6.369   8.045 -1.6687 -0.4645  2.0037
  156SAPE  C31317426   7.225   6.373   8.247 -0.2036  0.5121 -0.2003
  156SAPE  H13X17427   7.283   6.468   8.257  0.6484 -0.1847  2.6214
  156SAPE  H13Y17428   7.261   6.307   8.329  0.0172  0.4561 -0.3407
  156SAPE  C31417429   7.075   6.409   8.285 -0.7866 -0.0814  0.4943
  156SAPE  H14X17430   7.008   6.321   8.266 -0.1384 -0.3304 -0.8004
  156SAPE  H14Y17431   7.039   6.488   8.216  2.8287  0.4856 -0.9801
  156SAPE  C31517432   7.062   6.447   8.431 -0.5071  0.4478  0.0650
  156SAPE  H15X17433   7.130   6.532   8.452  2.0146 -1.3665 -0.1992
  156SAPE  H15Y17434   7.097   6.363   8.495 -0.0043  1.4769  1.1793
  156SAPE  C31617435   6.923   6.504   8.466 -0.3960  0.6722 -0.6270
  156SAPE  H16X17436   6.852   6.418   8.467  0.3223  0.0246  1.3367
  156SAPE  H16Y17437   6.889   6.588   8.403  1.6131  0.9700 -1.4100
  156SAPE  C31717438   6.903   6.544   8.610 -0.4909  0.8658 -0.2315
  156SAPE  H17X17439   6.800   6.584   8.616 -0.0229  1.9153  1.5573
  156SAPE  H17Y17440   6.967   6.628   8.644  1.1747 -0.7355  0.7647
  156SAPE  C31817441   6.927   6.439   8.719  0.2832  0.6580  0.4475
  156SAPE  H18X17442   7.029   6.396   8.718  0.4973  1.1384 -1.0323
  156SAPE  H18Y17443   6.860   6.352   8.701 -1.1761  1.9114 -0.4505
  156SAPE  H18Z17444   6.923   6.482   8.821  1.3461  0.1865  0.6978
  157SAPE     N17445   4.590   0.647   5.905 -0.1799 -0.5396  0.4156
  157SAPE   HN117446   4.573   0.545   5.917  1.6139 -0.8666  0.4464
  157SAPE   HN217447   4.688   0.653   5.872 -0.1829  0.2634  0.5348
  157SAPE   HN317448   4.591   0.689   6.000  1.8109  1.1841 -0.2957
  157SAPE   C1217449   4.507   0.721   5.798  0.5354 -0.1577 -0.7340
  157SAPE  H12A17450   4.483   0.653   5.714 -3.2799  0.4944 -0.3190
  157SAPE  H12B17451   4.564   0.808   5.759 -0.3768  0.9876  0.4325
  157SAPE   C1117452   4.379   0.767   5.861  0.3282 -0.4385 -0.4280
  157SAPE  H11A17453   4.316   0.682   5.895  0.1689 -0.6148 -1.1414
  157SAPE  H11B17454   4.320   0.830   5.791 -0.7374 -0.9307  0.0075
  157SAPE     P17455   4.257   0.906   6.057  0.2767  0.2125  0.3546
  157SAPE   O1317456   4.171   0.993   5.969 -0.3549  0.6237  0.3351
  157SAPE   O1417457   4.194   0.783   6.115 -0.6165  0.2342  0.2833
  157SAPE   O1217458   4.393   0.858   5.973  0.3886  0.5913 -0.2577
  157SAPE   O1117459   4.317   1.003   6.171 -0.1199  0.3156  0.3614
  157SAPE    C117460   4.416   0.952   6.260 -0.6000  0.0843 -0.4042
  157SAPE    HA17461   4.508   0.925   6.202 -1.6283 -1.5391 -1.3556
  157SAPE    HB17462   4.452   1.037   6.322 -0.1712 -0.7770  0.5597
  157SAPE    C217463   4.362   0.855   6.359  0.3006  0.3461 -0.2119
  157SAPE    HS17464   4.341   0.758   6.309 -0.5507  1.2719 -1.7393
  157SAPE   O2117465   4.234   0.906   6.407  0.4208 -0.0155 -0.2290
  157SAPE   C2117466   4.157   0.822   6.456  0.1803  0.5030 -0.3214
  157SAPE   O2217467   4.185   0.705   6.484 -0.2750  0.0783  0.3075
  157SAPE   C2217468   4.022   0.870   6.486  0.2107  0.3366  0.1100
  157SAPE   H2R17469   3.995   0.944   6.407  0.9672  0.6452  0.1292
  157SAPE   H2S17470   3.947   0.791   6.471 -0.1410  0.9470 -1.5341
  157SAPE    C317471   4.465   0.815   6.472 -0.2628 -0.0978  0.5326
  157SAPE    HX17472   4.556   0.799   6.411 -0.5179  1.8461 -0.4407
  157SAPE    HY17473   4.434   0.734   6.542 -0.8133  1.0909  1.7053
  157SAPE   O3117474   4.497   0.929   6.555  0.5757  0.6395  0.1829
  157SAPE   C3117475   4.623   0.952   6.593  0.0949  0.1751  0.4009
  157SAPE   O3217476   4.722   0.889   6.562  0.5586 -0.1314  0.2691
  157SAPE   C3217477   4.615   1.079   6.680 -0.0509  0.4230  0.4423
  157SAPE   H2X17478   4.703   1.067   6.746 -0.6976  0.3069  1.3027
  157SAPE   H2Y17479   4.526   1.075   6.746  0.3274 -1.7912  0.8945
  157SAPE   C2317480   4.017   0.918   6.632  0.1841  0.3133 -0.4269
  157SAPE   H3R17481   4.089   1.000   6.657 -1.6002  1.7036  0.3931
  157SAPE   H3S17482   4.050   0.835   6.697  1.2876  0.3449 -0.9133
  157SAPE   C2417483   3.878   0.962   6.685 -0.5881  0.3891  0.4758
  157SAPE   H4R17484   3.894   0.983   6.793  0.9447  0.9340  0.1673
  157SAPE   H4S17485   3.820   0.868   6.671  1.2439 -0.7363  0.0828
  157SAPE   C2517486   3.811   1.076   6.615  0.5460  0.8077  0.7312
  157SAPE   H5R17487   3.790   1.058   6.508 -1.2192  0.7378  1.0579
  157SAPE   C2617488   3.786   1.201   6.660  0.1274 -0.5171  0.2725
  157SAPE   H6R17489   3.758   1.274   6.583  0.6615  0.2658  0.8076
  157SAPE   C2717490   3.805   1.262   6.803 -0.3852 -0.1202  0.3348
  157SAPE   H7R17491   3.778   1.369   6.791 -1.2493 -0.1520  1.7599
  157SAPE   H7S17492   3.913   1.259   6.831  0.4592 -1.9345 -2.6357
  157SAPE   C2817493   3.725   1.192   6.906  0.8598 -0.1243 -0.0977
  157SAPE   H8R17494   3.616   1.195   6.892  0.5490  1.7154  2.0384
  157SAPE   C2917495   3.777   1.123   7.007 -0.0196  0.4838  0.4022
  157SAPE   H9R17496   3.718   1.077   7.088  0.6040 -2.4454 -0.6864
  157SAPE  C21017497   3.926   1.102   7.038  0.0656  0.1992  0.1637
  157SAPE  H10R17498   3.964   1.185   7.101  2.9619  1.2393 -2.6841
  157SAPE  H10S17499   3.988   1.121   6.948  0.7367 -1.0716  0.3213
  157SAPE  C21117500   3.959   0.964   7.092 -0.7802 -0.7753  0.2087
  157SAPE  H11R17501   3.957   0.882   7.019  0.6971 -0.4940 -0.1754
  157SAPE  C21217502   3.974   0.941   7.226  0.4735  0.8882 -0.3317
  157SAPE  H12R17503   4.005   0.843   7.266  0.9453  1.3877  0.5571
  157SAPE  C21317504   3.961   1.054   7.324  0.0033 -0.0404  0.6559
  157SAPE  H13R17505   3.867   1.105   7.293  0.4163  1.0039  1.1056
  157SAPE  H13S17506   4.041   1.126   7.298  1.7007 -1.9593  0.3065
  157SAPE  C21417507   3.973   1.016   7.470  0.1943 -0.3109 -0.4203
  157SAPE  H14R17508   3.887   1.052   7.527 -0.4636  0.6575 -1.9569
  157SAPE  C21517509   4.074   0.960   7.537 -0.1516  0.2983  0.4550
  157SAPE  H15R17510   4.065   0.956   7.646 -4.3381  0.1668  0.2792
  157SAPE  C21617511   4.203   0.929   7.473 -0.1112  0.4614  0.4828
  157SAPE  H16R17512   4.288   0.964   7.535  0.6210  2.5726 -1.5741
  157SAPE  H16S17513   4.218   0.973   7.372 -1.4042 -1.8208 -0.8018
  157SAPE  C21717514   4.225   0.774   7.447  0.6978  0.1872  0.0734
  157SAPE  H17R17515   4.129   0.728   7.415  0.6066 -0.8336  1.6998
  157SAPE  H17S17516   4.242   0.737   7.550  0.4471  1.0518  0.4415
  157SAPE  C21817517   4.331   0.739   7.350  0.3069  0.3708 -0.0925
  157SAPE  H18R17518   4.423   0.802   7.358 -0.4058  1.2672  1.3362
  157SAPE  H18S17519   4.298   0.759   7.246 -0.1440  0.0177 -0.0201
  157SAPE  C21917520   4.378   0.592   7.365  0.5428  0.2906 -0.0222
  157SAPE  H19R17521   4.284   0.534   7.375  0.2141  0.7188 -0.5414
  157SAPE  H19S17522   4.434   0.572   7.458 -0.8452  0.5386  0.8937
  157SAPE  C22017523   4.465   0.543   7.247 -0.0898 -0.2681 -0.0848
  157SAPE  H20R17524   4.520   0.451   7.278  1.2611  1.0526  1.7021
  157SAPE  H20S17525   4.548   0.615   7.235 -2.0359  2.3561  1.2025
  157SAPE  H20T17526   4.412   0.523   7.152 -1.8166 -0.0354  0.7843
  157SAPE   C3317527   4.626   1.202   6.594  0.1095 -0.3284  0.3870
  157SAPE   H3X17528   4.541   1.214   6.524  1.2823  0.1810 -0.9902
  157SAPE   H3Y17529   4.705   1.176   6.522 -0.9317 -0.4432 -0.7502
  157SAPE   C3417530   4.670   1.333   6.668  0.1265 -0.6260  0.0910
  157SAPE   H4X17531   4.702   1.402   6.586  3.4290 -0.8148  1.0500
  157SAPE   H4Y17532   4.764   1.316   6.724 -0.9690 -2.2880  1.5168
  157SAPE   C3517533   4.557   1.396   6.746  0.8626  0.2174 -0.0494
  157SAPE   H5X17534   4.510   1.317   6.808  0.9155  0.3847  0.2049
  157SAPE   H5Y17535   4.483   1.439   6.675  0.5855  1.3508  0.8877
  157SAPE   C3617536   4.611   1.507   6.834  0.6452 -0.4017 -0.2479
  157SAPE   H6X17537   4.651   1.588   6.769  0.2818 -0.7418 -0.9147
  157SAPE   H6Y17538   4.688   1.469   6.904 -0.5850 -0.8944  0.8753
  157SAPE   C3717539   4.501   1.579   6.917  0.1524 -0.2002  0.2313
  157SAPE   H7X17540   4.445   1.505   6.979 -1.4145 -0.5454 -1.5078
  157SAPE   H7Y17541   4.427   1.630   6.852 -1.2652 -2.1012  0.2615
  157SAPE   C3817542   4.564   1.702   6.992 -0.5189 -0.7855  0.4446
  157SAPE   H8X17543   4.604   1.769   6.913  0.9625 -1.3172  0.7216
  157SAPE   H8Y17544   4.652   1.667   7.050  0.7289  1.4427  0.0072
  157SAPE   C3917545   4.455   1.768   7.077 -0.1747 -0.1537  0.1927
  157SAPE   H9X17546   4.377   1.698   7.112 -0.7819 -0.3943 -1.5742
  157SAPE   H9Y17547   4.413   1.846   7.011 -0.9428 -0.8431 -0.1478
  157SAPE  C31017548   4.511   1.851   7.194 -0.3252 -0.2673  0.6050
  157SAPE  H10X17549   4.538   1.951   7.152  0.2456 -0.0252  1.5192
  157SAPE  H10Y17550   4.606   1.803   7.223 -0.9816 -1.1416  1.3503
  157SAPE  C31117551   4.407   1.863   7.309  0.1596 -0.1460 -0.4555
  157SAPE  H11X17552   4.373   1.765   7.349 -0.8761  0.0468 -0.8211
  157SAPE  H11Y17553   4.319   1.914   7.264 -0.3341 -1.5245 -1.1259
  157SAPE  C31217554   4.467   1.940   7.428 -0.0771 -1.0047  0.1513
  157SAPE  H12X17555   4.495   2.043   7.397 -0.3359 -0.8215  0.5195
  157SAPE  H12Y17556   4.555   1.883   7.465  0.5831 -1.3174 -1.7808
  157SAPE  C31317557   4.368   1.939   7.548  0.3171  0.8423 -0.2264
  157SAPE  H13X17558   4.272   1.972   7.504  0.8375  2.0544 -0.5006
  157SAPE  H13Y17559   4.404   2.009   7.626  1.5361  0.5528 -0.5043
  157SAPE  C31417560   4.369   1.798   7.619  0.1169 -0.3906 -0.5127
  157SAPE  H14X17561   4.476   1.770   7.631  0.3470 -0.1226 -1.8184
  157SAPE  H14Y17562   4.343   1.713   7.552 -0.7407  0.2488 -1.0021
  157SAPE  C31517563   4.291   1.786   7.746  0.8605 -0.7043 -0.5201
  157SAPE  H15X17564   4.269   1.681   7.777 -1.0306 -0.9670 -2.5191
  157SAPE  H15Y17565   4.189   1.822   7.723  1.1447  0.8399  0.5088
  157SAPE  C31617566   4.337   1.854   7.868  0.6420 -0.3099 -0.4269
  157SAPE  H16X17567   4.247   1.869   7.931  0.9828 -1.2409  0.2962
  157SAPE  H16Y17568   4.386   1.951   7.846 -0.5360  0.3055 -0.3926
  157SAPE  C31717569   4.443   1.767   7.949  0.7925  0.0472 -0.2010
  157SAPE  H17X17570   4.531   1.746   7.885  0.8812 -0.0206 -0.0576
  157SAPE  H17Y17571   4.409   1.663   7.968  0.7053  0.3015  1.1522
  157SAPE  C31817572   4.478   1.834   8.079  0.3692  0.4909  1.0721
  157SAPE  H18X17573   4.384   1.838   8.139 -0.6674 -1.5990 -0.3029
  157SAPE  H18Y17574   4.508   1.940   8.068 -0.3401  0.5254 -0.7683
  157SAPE  H18Z17575   4.560   1.783   8.135 -0.6765  0.1236  2.3329
  158SAPE     N17576   1.177   5.593   6.187  0.3134  0.0252 -0.3194
  158SAPE   HN117577   1.206   5.527   6.113  1.8061 -0.2472  0.4593
  158SAPE   HN217578   1.232   5.559   6.268  3.4412 -2.4120 -3.2024
  158SAPE   HN317579   1.074   5.587   6.199  0.3043  1.3465  0.4824
  158SAPE   C1217580   1.217   5.734   6.172 -0.4368 -0.2539 -0.3761
  158SAPE  H12A17581   1.185   5.777   6.075  1.0535  2.6672  0.3185
  158SAPE  H12B17582   1.328   5.729   6.169 -0.4793 -2.3711 -0.0587
  158SAPE   C1117583   1.164   5.821   6.283  0.7456  0.5181  0.1146
  158SAPE  H11A17584   1.196   5.927   6.278  1.5708  0.2800  0.1605
  158SAPE  H11B17585   1.206   5.774   6.374  0.4628 -0.2532 -0.1437
  158SAPE     P17586   0.921   5.888   6.356 -0.2710  0.0380  0.1863
  158SAPE   O1317587   0.977   6.020   6.382 -0.4029 -0.1884  0.2799
  158SAPE   O1417588   0.794   5.879   6.284  0.2363  0.3492  0.3643
  158SAPE   O1217589   1.024   5.805   6.272 -0.1205 -0.6801 -0.0182
  158SAPE   O1117590   0.912   5.809   6.493 -0.0620  0.1218  0.1223
  158SAPE    C117591   1.012   5.715   6.535  0.0182  0.2507  0.2284
  158SAPE    HA17592   1.013   5.632   6.462 -1.3889  0.8447 -0.5168
  158SAPE    HB17593   1.111   5.759   6.560  0.8522 -1.5041  0.1187
  158SAPE    C217594   0.952   5.639   6.663  0.5998 -0.6047  0.7174
  158SAPE    HS17595   0.856   5.597   6.625  2.4327 -3.3700 -1.1910
  158SAPE   O2117596   0.944   5.724   6.774 -0.4581 -0.1930 -0.3614
  158SAPE   C2117597   0.847   5.691   6.862 -0.2450 -0.5785 -0.1008
  158SAPE   O2217598   0.777   5.591   6.867 -1.1055 -0.1862  0.3485
  158SAPE   C2217599   0.860   5.791   6.971 -0.1382 -0.6679 -0.0588
  158SAPE   H2R17600   0.777   5.864   6.956 -0.0638 -0.6399 -0.3507
  158SAPE   H2S17601   0.842   5.740   7.068 -1.0428 -0.8356 -0.3000
  158SAPE    C317602   1.046   5.519   6.699 -0.7532 -1.0297  0.7149
  158SAPE    HX17603   1.146   5.567   6.710 -1.4615  0.5891  0.3112
  158SAPE    HY17604   1.048   5.449   6.612 -0.5135 -0.2612  0.0864
  158SAPE   O3117605   1.018   5.449   6.818  0.4958 -0.0827  0.1768
  158SAPE   C3117606   0.935   5.349   6.814  0.1899 -0.1425 -0.2437
  158SAPE   O3217607   0.879   5.305   6.711  0.2855  0.1016 -0.2996
  158SAPE   C3217608   0.921   5.286   6.950 -0.5076  0.1610 -0.5017
  158SAPE   H2X17609   0.871   5.359   7.017 -1.6968  0.4771 -1.6771
  158SAPE   H2Y17610   1.024   5.254   6.974  0.0834  1.6684 -0.9214
  158SAPE   C2317611   0.997   5.870   6.977 -0.3087 -0.4441  0.0477
  158SAPE   H3R17612   1.017   5.943   6.896  1.1501  0.0686  0.8324
  158SAPE   H3S17613   1.085   5.803   6.963 -0.5346 -1.0510  1.3486
  158SAPE   C2417614   1.026   5.932   7.118  0.3307 -0.2500  0.0559
  158SAPE   H4R17615   1.128   5.976   7.123 -0.1203  0.6925  1.3627
  158SAPE   H4S17616   1.015   5.848   7.190 -1.3132 -0.8101 -0.8022
  158SAPE   C2517617   0.928   6.035   7.163 -0.7523  1.0741  0.2865
  158SAPE   H5R17618   0.853   6.057   7.085  0.0737 -1.2680 -1.2656
  158SAPE   C2617619   0.947   6.117   7.270  0.7291  0.5603 -0.2435
  158SAPE   H6R17620   0.878   6.196   7.301 -0.1616  0.1625 -1.1545
  158SAPE   C2717621   1.061   6.086   7.355 -0.1167 -0.2449 -0.2903
  158SAPE   H7R17622   1.153   6.085   7.292  1.0988  0.1285  1.4075
  158SAPE   H7S17623   1.061   5.983   7.397  0.1805 -0.4864 -0.8725
  158SAPE   C2817624   1.084   6.169   7.474  0.7083  0.7421  0.2268
  158SAPE   H8R17625   1.177   6.228   7.476  1.5820 -0.3218 -2.9279
  158SAPE   C2917626   0.997   6.175   7.581  0.3247 -0.3629  0.1209
  158SAPE   H9R17627   1.023   6.233   7.671 -0.7979  2.2130 -1.0926
  158SAPE  C21017628   0.864   6.096   7.588  0.1585  0.1706 -0.1184
  158SAPE  H10R17629   0.878   5.997   7.540  2.1158 -0.7701  2.1707
  158SAPE  H10S17630   0.790   6.152   7.527 -0.8037 -1.5983 -0.6336
  158SAPE  C21117631   0.815   6.063   7.727  0.5276 -0.2529 -0.0274
  158SAPE  H11R17632   0.879   6.098   7.809 -0.3533 -0.6108  0.8434
  158SAPE  C21217633   0.718   5.974   7.757  0.4027 -0.4218  0.4619
  158SAPE  H12R17634   0.695   5.952   7.863  0.3390  1.2929  0.8217
  158SAPE  C21317635   0.631   5.898   7.661  0.3644  0.0907  0.0229
  158SAPE  H13R17636   0.600   5.967   7.580  1.9682  0.2261 -0.4979
  158SAPE  H13S17637   0.534   5.873   7.710  0.0840 -1.7343 -1.3496
  158SAPE  C21417638   0.696   5.774   7.598  0.1922 -0.2635 -0.2637
  158SAPE  H14R17639   0.743   5.704   7.668  0.5037 -0.7078 -0.9061
  158SAPE  C21517640   0.711   5.762   7.462 -0.1968  0.9111  0.4088
  158SAPE  H15R17641   0.769   5.677   7.425 -1.2461  0.0490  0.7027
  158SAPE  C21617642   0.664   5.849   7.355 -0.0511 -0.8390 -0.0063
  158SAPE  H16R17643   0.727   5.852   7.263  0.4311 -0.1543  0.3415
  158SAPE  H16S17644   0.639   5.952   7.387  1.0276 -0.4012 -0.5002
  158SAPE  C21717645   0.532   5.785   7.289 -0.6568 -0.2188  0.3871
  158SAPE  H17R17646   0.481   5.867   7.234 -0.6395 -0.7224 -0.3948
  158SAPE  H17S17647   0.456   5.758   7.365  0.4723  0.0736  1.6555
  158SAPE  C21817648   0.556   5.670   7.187 -0.4782 -0.0855  0.3199
  158SAPE  H18R17649   0.595   5.575   7.230  1.5980  1.3772  1.9060
  158SAPE  H18S17650   0.629   5.702   7.111 -0.3172  0.1494  0.5716
  158SAPE  C21917651   0.434   5.636   7.104  0.3377  0.0284 -0.3758
  158SAPE  H19R17652   0.347   5.619   7.170  0.4924 -1.5718 -0.5410
  158SAPE  H19S17653   0.447   5.541   7.047  0.2334  0.0619 -0.4550
  158SAPE  C22017654   0.404   5.748   7.000 -0.0080 -0.6917  0.0829
  158SAPE  H20R17655   0.318   5.713   6.938  0.7562  0.2005 -1.5514
  158SAPE  H20S17656   0.501   5.768   6.949  1.0925  2.0332  2.9306
  158SAPE  H20T17657   0.368   5.842   7.047  1.6892 -0.5691  1.2388
  158SAPE   C3317658   0.812   5.172   6.956  0.8827 -0.1980 -0.1103
  158SAPE   H3X17659   0.845   5.088   6.892 -0.2844  0.8584 -2.2035
  158SAPE   H3Y17660   0.713   5.209   6.920  1.1118 -0.0043 -0.5456
  158SAPE   C3417661   0.790   5.124   7.101 -0.4456  0.5637 -0.2168
  158SAPE   H4X17662   0.893   5.102   7.136 -0.1266 -1.3749 -2.1795
  158SAPE   H4Y17663   0.737   5.027   7.089 -0.5678  0.8852 -2.7045
  158SAPE   C3517664   0.713   5.213   7.202 -0.6538  0.0439 -0.6656
  158SAPE   H5X17665   0.608   5.237   7.174 -1.2348  0.6184  1.7833
  158SAPE   H5Y17666   0.769   5.309   7.202 -1.1674  0.3479 -0.8191
  158SAPE   C3617667   0.709   5.145   7.342 -0.7768 -0.6100 -0.4805
  158SAPE   H6X17668   0.813   5.110   7.358 -0.7001  0.1239  0.7376
  158SAPE   H6Y17669   0.643   5.055   7.339 -0.4939 -0.8734  0.6302
  158SAPE   C3717670   0.672   5.245   7.456  0.9756 -0.2331  0.6616
  158SAPE   H7X17671   0.706   5.348   7.433  0.4911 -0.4816 -1.4234
  158SAPE   H7Y17672   0.561   5.245   7.456  0.9535  0.8613 -0.1249
  158SAPE   C3817673   0.733   5.208   7.593  0.6312 -0.1471  0.7538
  158SAPE   H8X17674   0.837   5.241   7.617  0.2362  0.3722  1.8401
  158SAPE   H8Y17675   0.730   5.097   7.604 -1.5506 -0.0799  1.2964
  158SAPE   C3917676   0.647   5.258   7.707 -0.2845 -0.0922  0.8427
  158SAPE   H9X17677   0.645   5.186   7.791 -2.6902 -0.6252  0.4032
  158SAPE   H9Y17678   0.542   5.258   7.669 -0.6628 -1.1388  1.8186
  158SAPE  C31017679   0.685   5.400   7.761  0.1306 -0.0075 -0.0215
  158SAPE  H10X17680   0.682   5.483   7.688  1.1006 -0.2869 -0.4026
  158SAPE  H10Y17681   0.788   5.398   7.804  0.5841 -1.3424 -1.0733
  158SAPE  C31117682   0.582   5.424   7.875 -0.3545 -0.4200  0.1363
  158SAPE  H11X17683   0.568   5.339   7.946 -1.5724  1.3272  2.1237
  158SAPE  H11Y17684   0.488   5.465   7.833  0.6862  1.3581 -0.5609
  158SAPE  C31217685   0.630   5.554   7.952  0.3657  0.5293  1.1216
  158SAPE  H12X17686   0.646   5.639   7.882 -2.0115 -0.5801 -0.8923
  158SAPE  H12Y17687   0.724   5.530   8.005 -0.5551 -2.3017  1.6179
  158SAPE  C31317688   0.532   5.602   8.058 -0.3789 -0.1304 -0.3439
  158SAPE  H13X17689   0.529   5.537   8.148 -1.2298  0.6803  0.2387
  158SAPE  H13Y17690   0.431   5.608   8.011  0.5999  3.9577 -2.4376
  158SAPE  C31417691   0.572   5.741   8.107  1.0593 -0.5397 -0.0558
  158SAPE  H14X17692   0.601   5.809   8.024 -0.0017  1.6412  1.2613
  158SAPE  H14Y17693   0.660   5.729   8.174  2.4134  0.7508 -1.5135
  158SAPE  C31517694   0.458   5.808   8.193 -0.2065 -0.3102 -0.6760
  158SAPE  H15X17695   0.404   5.735   8.256 -0.9301  0.9726  0.2487
  158SAPE  H15Y17696   0.380   5.848   8.125 -0.7067  2.1621  1.2097
  158SAPE  C31617697   0.499   5.925   8.284  0.3506  0.0194 -0.1204
  158SAPE  H16X17698   0.540   6.007   8.223  0.0148 -0.4721 -1.0357
  158SAPE  H16Y17699   0.568   5.876   8.356 -1.4717  0.9841  2.4731
  158SAPE  C31717700   0.383   5.968   8.384  0.3521 -0.5295 -0.2140
  158SAPE  H17X17701   0.427   6.049   8.446  1.1502  1.0250 -2.6685
  158SAPE  H17Y17702   0.363   5.873   8.437  0.9761 -0.0233  0.9747
  158SAPE  C31817703   0.256   6.011   8.313  0.7414  0.5229 -0.0158
  158SAPE  H18X17704   0.266   6.071   8.221 -2.0687  0.4846 -0.4303
  158SAPE  H18Y17705   0.187   6.065   8.381  2.1565 -0.5009  2.3636
  158SAPE  H18Z17706   0.202   5.919   8.281 -0.2195  1.0437  0.0937
  159SAPE     N17707   4.911   1.989   5.956  0.1861 -0.2011 -0.0880
  159SAPE   HN117708   4.965   1.919   5.901  1.9220  1.2712 -0.3626
  159SAPE   HN217709   4.907   1.952   6.053  0.7598  0.9480  0.3849
  159SAPE   HN317710   4.819   1.996   5.908 -0.1745  1.0896  0.7663
  159SAPE   C1217711   4.983   2.123   5.966 -0.2503  0.2169  0.2481
  159SAPE  H12A17712   5.012   2.171   5.870  1.8116  0.1529  0.7908
  159SAPE  H12B17713   5.080   2.089   6.009  0.6545  0.0184 -1.8137
  159SAPE   C1117714   4.916   2.207   6.070  0.2085 -0.6050 -0.1018
  159SAPE  H11A17715   4.957   2.306   6.098 -0.5583 -0.6448  1.2335
  159SAPE  H11B17716   4.920   2.146   6.163  0.1907  0.8064  0.8494
  159SAPE     P17717   4.706   2.350   6.021  0.0169  0.3458  0.0457
  159SAPE   O1317718   4.773   2.434   5.917  0.4425  0.7404  0.1925
  159SAPE   O1417719   4.559   2.324   5.997  0.3490  0.1687  0.4354
  159SAPE   O1217720   4.782   2.213   6.038  0.1357  0.5456  0.3735
  159SAPE   O1117721   4.723   2.426   6.160  0.2332  0.0878  0.3632
  159SAPE    C117722   4.626   2.408   6.264  0.5523  0.1298  0.0308
  159SAPE    HA17723   4.550   2.489   6.269 -0.5895 -0.9248  0.4256
  159SAPE    HB17724   4.577   2.308   6.262 -0.4419  0.5821  0.8622
  159SAPE    C217725   4.702   2.412   6.396 -0.6925 -0.0436  0.2090
  159SAPE    HS17726   4.752   2.511   6.392  2.3312 -1.4891 -2.1584
  159SAPE   O2117727   4.795   2.298   6.384 -0.2100 -0.1550 -0.0285
  159SAPE   C2117728   4.923   2.320   6.441 -0.4777  0.0038  0.1194
  159SAPE   O2217729   4.967   2.425   6.481  0.5914 -0.1518  0.1166
  159SAPE   C2217730   5.006   2.189   6.442  0.5721 -0.1906  0.4471
  159SAPE   H2R17731   4.944   2.101   6.470  0.8868 -0.6029 -0.1195
  159SAPE   H2S17732   5.031   2.180   6.334  0.2715 -1.5807  0.4689
  159SAPE    C317733   4.611   2.393   6.524  0.0382  0.2618  0.1790
  159SAPE    HX17734   4.570   2.290   6.510 -1.1758  0.9816 -1.9903
  159SAPE    HY17735   4.524   2.462   6.517 -1.4140 -1.2538  2.0659
  159SAPE   O3117736   4.704   2.418   6.635  0.2621  0.1223  0.2704
  159SAPE   C3117737   4.641   2.426   6.749  0.6375 -0.1042  0.2289
  159SAPE   O3217738   4.518   2.425   6.766 -0.3203 -0.2413  0.2254
  159SAPE   C3217739   4.746   2.432   6.867  0.0221 -0.4719  0.0639
  159SAPE   H2X17740   4.794   2.531   6.855 -0.0749 -0.5388 -0.9437
  159SAPE   H2Y17741   4.827   2.359   6.846  2.5488  2.1551  0.0228
  159SAPE   C2317742   5.134   2.211   6.522 -0.0314  0.2360  0.1752
  159SAPE   H3R17743   5.190   2.306   6.509 -0.3514  0.3017 -0.7551
  159SAPE   H3S17744   5.201   2.126   6.495  0.4967 -0.1156  2.3848
  159SAPE   C2417745   5.114   2.200   6.679  0.4068  0.2073  0.3181
  159SAPE   H4R17746   5.070   2.103   6.712  0.9178 -0.4273 -0.8091
  159SAPE   H4S17747   5.036   2.277   6.696 -1.5473 -1.5970  0.0167
  159SAPE   C2517748   5.238   2.227   6.760 -0.2265 -0.4239  0.1773
  159SAPE   H5R17749   5.318   2.151   6.756  0.9288  0.6931  1.0735
  159SAPE   C2617750   5.253   2.335   6.848 -0.0798  0.5028 -0.3075
  159SAPE   H6R17751   5.338   2.336   6.918  0.9126 -1.5210 -1.3924
  159SAPE   C2717752   5.153   2.434   6.878 -0.5786  0.4195  0.8232
  159SAPE   H7R17753   5.066   2.392   6.931 -0.3982  1.6937  2.2097
  159SAPE   H7S17754   5.112   2.471   6.781 -0.7899  0.3634  0.8927
  159SAPE   C2817755   5.224   2.542   6.955  0.4889  0.0418  0.6693
  159SAPE   H8R17756   5.249   2.635   6.903  0.4886 -0.8484 -0.9738
  159SAPE   C2917757   5.234   2.540   7.086  0.3642  0.2259  0.4446
  159SAPE   H9R17758   5.278   2.632   7.128 -0.1524  1.4356 -1.5280
  159SAPE  C21017759   5.202   2.427   7.184 -0.1506 -0.2169 -0.4638
  159SAPE  H10R17760   5.242   2.339   7.129 -0.8718  0.2376 -1.7718
  159SAPE  H10S17761   5.092   2.422   7.196 -0.1794  1.3082  0.1818
  159SAPE  C21117762   5.287   2.418   7.310 -0.1882  0.0016 -0.5735
  159SAPE  H11R17763   5.396   2.406   7.305 -0.2612 -0.5627 -0.8683
  159SAPE  C21217764   5.234   2.415   7.434 -0.1097 -0.1224 -0.6164
  159SAPE  H12R17765   5.302   2.421   7.520 -1.4252  0.2307  0.4259
  159SAPE  C21317766   5.090   2.428   7.464 -0.0014  0.0640  0.1619
  159SAPE  H13R17767   5.064   2.353   7.542  1.6944 -1.5568 -0.7591
  159SAPE  H13S17768   5.017   2.395   7.387 -0.0409  0.0996  0.1834
  159SAPE  C21417769   5.039   2.571   7.494 -0.7376 -0.2754 -0.0011
  159SAPE  H14R17770   5.069   2.651   7.425  0.8254  0.9870  2.0224
  159SAPE  C21517771   4.981   2.610   7.612 -0.3674 -0.0642  0.0472
  159SAPE  H15R17772   4.941   2.712   7.618 -1.2520 -0.3811 -0.3090
  159SAPE  C21617773   4.964   2.522   7.734  0.4086  0.3276 -0.3893
  159SAPE  H16R17774   5.010   2.424   7.713  0.8840  0.8857 -2.1134
  159SAPE  H16S17775   4.859   2.492   7.755  0.2409  2.5335  2.5929
  159SAPE  C21717776   5.020   2.587   7.863  0.0721  0.5681 -0.4400
  159SAPE  H17R17777   4.972   2.686   7.870 -1.9360 -0.4527  1.5081
  159SAPE  H17S17778   5.125   2.615   7.841  1.2376 -2.9650 -0.0325
  159SAPE  C21817779   4.991   2.494   7.983 -0.2283  0.5601  0.9329
  159SAPE  H18R17780   5.057   2.404   7.974  0.1579  0.9466 -0.3994
  159SAPE  H18S17781   4.885   2.462   7.989 -0.0888 -0.4288 -1.0012
  159SAPE  C21917782   5.012   2.562   8.122 -0.2201 -0.7568  1.0285
  159SAPE  H19R17783   4.957   2.657   8.102  0.5445 -0.8064 -1.7814
  159SAPE  H19S17784   5.119   2.593   8.133 -0.8994  2.6572 -0.6913
  159SAPE  C22017785   4.979   2.489   8.250  0.0665  0.0072  0.3177
  159SAPE  H20R17786   4.874   2.452   8.252  0.2779 -0.6367 -0.2722
  159SAPE  H20S17787   4.998   2.550   8.341  1.1241 -1.3987  1.0754
  159SAPE  H20T17788   5.037   2.395   8.253 -0.2372 -0.1487  1.6402
  159SAPE   C3317789   4.698   2.409   7.011 -0.1227 -0.0002 -0.1273
  159SAPE   H3X17790   4.653   2.308   7.012 -0.7158  0.2325 -1.4117
  159SAPE   H3Y17791   4.611   2.477   7.023 -1.9516 -2.3224  0.6297
  159SAPE   C3417792   4.799   2.448   7.118  0.7914  0.2899 -0.8655
  159SAPE   H4X17793   4.848   2.544   7.092 -0.7688  1.3405 -0.0594
  159SAPE   H4Y17794   4.886   2.379   7.121 -0.1790 -0.9643 -0.7717
  159SAPE   C3517795   4.734   2.472   7.256 -0.2794  0.4955 -0.1421
  159SAPE   H5X17796   4.634   2.517   7.247 -0.3061  0.9776  2.0558
  159SAPE   H5Y17797   4.801   2.526   7.326 -1.5979 -0.5027  1.9863
  159SAPE   C3617798   4.702   2.336   7.325  0.2154  0.0568 -0.4761
  159SAPE   H6X17799   4.797   2.279   7.318  1.6311  2.3506 -1.1999
  159SAPE   H6Y17800   4.618   2.276   7.284 -0.5226 -0.2703  1.4239
  159SAPE   C3717801   4.661   2.349   7.479 -0.2327 -0.1375  0.2558
  159SAPE   H7X17802   4.553   2.371   7.481 -0.6121 -1.8787  0.2237
  159SAPE   H7Y17803   4.710   2.437   7.525 -1.6310  0.5744  0.4132
  159SAPE   C3817804   4.692   2.216   7.553  0.5266  0.2442 -0.0608
  159SAPE   H8X17805   4.791   2.192   7.509  0.2300 -1.2782  0.0309
  159SAPE   H8Y17806   4.615   2.145   7.514  2.1579 -1.9024  0.4020
  159SAPE   C3917807   4.689   2.211   7.710  0.6060 -0.4798  0.1315
  159SAPE   H9X17808   4.782   2.257   7.750 -0.2358  0.6868  0.7989
  159SAPE   H9Y17809   4.694   2.104   7.739 -0.0939 -0.0116  2.1041
  159SAPE  C31017810   4.569   2.277   7.782 -0.2699  0.0959 -0.0264
  159SAPE  H10X17811   4.471   2.249   7.739 -0.9636 -0.2595  1.7245
  159SAPE  H10Y17812   4.573   2.388   7.773  1.3371  0.3383  2.5888
  159SAPE  C31117813   4.581   2.253   7.935 -0.3636 -0.3146  0.0563
  159SAPE  H11X17814   4.646   2.330   7.982 -1.0530  0.2238  0.1519
  159SAPE  H11Y17815   4.619   2.155   7.969  0.4294  0.4118  1.3262
  159SAPE  C31217816   4.436   2.264   8.002 -0.1646 -0.5180 -0.7220
  159SAPE  H12X17817   4.372   2.182   7.964 -3.2151  1.7856 -0.9241
  159SAPE  H12Y17818   4.391   2.362   7.974  0.5866 -0.3419 -1.3617
  159SAPE  C31317819   4.449   2.252   8.154  0.3649 -0.0620  0.9051
  159SAPE  H13X17820   4.534   2.182   8.170  0.1017 -1.2966 -2.3116
  159SAPE  H13Y17821   4.356   2.211   8.199 -1.3892  1.5717 -1.0217
  159SAPE  C31417822   4.477   2.379   8.227 -0.2891  0.1085 -0.0012
  159SAPE  H14X17823   4.404   2.457   8.195  1.6877  1.8006 -0.5953
  159SAPE  H14Y17824   4.579   2.414   8.202 -0.2373  0.6006  0.8946
  159SAPE  C31517825   4.463   2.371   8.383  0.2756 -0.5537  0.0273
  159SAPE  H15X17826   4.387   2.300   8.421  1.5973  0.0223  4.2037
  159SAPE  H15Y17827   4.433   2.474   8.410 -0.0620 -0.6198 -0.0878
  159SAPE  C31617828   4.598   2.346   8.444 -0.0916 -0.0444 -0.3247
  159SAPE  H16X17829   4.661   2.435   8.422 -0.4700 -0.1436 -1.9648
  159SAPE  H16Y17830   4.639   2.257   8.391  0.3278  0.5059 -0.9371
  159SAPE  C31717831   4.586   2.321   8.595 -0.1988 -0.1503 -0.0924
  159SAPE  H17X17832   4.516   2.237   8.609  0.7012 -0.9219 -0.0939
  159SAPE  H17Y17833   4.528   2.407   8.635  2.5855  0.6974  2.5584
  159SAPE  C31817834   4.718   2.285   8.666  0.8654 -0.0008  0.7448
  159SAPE  H18X17835   4.774   2.204   8.615 -0.0581 -0.3274  0.2371
  159SAPE  H18Y17836   4.694   2.245   8.767 -1.2041  2.3229  1.2822
  159SAPE  H18Z17837   4.791   2.368   8.674  3.8104 -2.4189  0.8026
  160SAPE     N17838   6.381   0.073   6.400  0.6010  0.3974  0.0460
  160SAPE   HN117839   6.291   0.092   6.352  0.1591 -1.3333  0.1348
  160SAPE   HN217840   6.361   0.012   6.481  2.0054 -3.1227 -2.0183
  160SAPE   HN317841   6.422   0.164   6.431  1.5943  0.3472 -1.0146
  160SAPE   C1217842   6.486   0.012   6.311 -0.1083 -0.1447  0.1373
  160SAPE  H12A17843   6.586   0.016   6.358 -0.4367  3.1595  0.7812
  160SAPE  H12B17844   6.468   0.068   6.216  0.0516 -0.7590 -0.2614
  160SAPE   C1117845   6.454  -0.135   6.285 -0.0538 -0.7415  0.5491
  160SAPE  H11A17846   6.525  -0.171   6.207 -1.1502 -0.6599 -0.5221
  160SAPE  H11B17847   6.352  -0.150   6.242  0.5358  0.4200 -1.4034
  160SAPE     P17848   6.390  -0.335   6.439  0.2487 -0.2409 -0.1185
  160SAPE   O1317849   6.294  -0.367   6.332  0.3780  0.2910 -0.0855
  160SAPE   O1417850   6.488  -0.437   6.467  0.2856  0.0133 -0.5633
  160SAPE   O1217851   6.474  -0.208   6.405 -0.0214 -0.5531  0.1170
  160SAPE   O1117852   6.301  -0.285   6.569  0.5970  0.0429  0.1182
  160SAPE    C117853   6.263  -0.390   6.659 -0.7859 -0.0413 -0.7757
  160SAPE    HA17854   6.349  -0.453   6.688 -2.0074 -1.3418  0.1507
  160SAPE    HB17855   6.235  -0.346   6.757  0.3689 -1.6074  0.2870
  160SAPE    C217856   6.141  -0.460   6.608 -0.0908 -0.2322  0.2587
  160SAPE    HS17857   6.169  -0.516   6.517  2.7934 -1.2730  1.6587
  160SAPE   O2117858   6.036  -0.365   6.583  0.1058  0.2329  0.5336
  160SAPE   C2117859   5.923  -0.404   6.529 -0.0124 -0.0200  0.1784
  160SAPE   O2217860   5.899  -0.511   6.474 -0.3988  0.0140  0.2545
  160SAPE   C2217861   5.826  -0.286   6.537  0.1728  0.4025 -0.1342
  160SAPE   H2R17862   5.780  -0.293   6.638 -0.3158 -0.4723 -0.4046
  160SAPE   H2S17863   5.895  -0.200   6.522  1.3353 -0.3501  0.7239
  160SAPE    C317864   6.098  -0.571   6.712  0.0262 -0.1134 -0.3170
  160SAPE    HX17865   6.161  -0.662   6.699 -1.9625 -1.3865 -1.7377
  160SAPE    HY17866   6.000  -0.607   6.674 -0.6154  0.7170  0.5094
  160SAPE   O3117867   6.096  -0.521   6.841  0.0720  0.1484 -0.4035
  160SAPE   C3117868   5.990  -0.456   6.881  0.2111 -0.2767  0.0784
  160SAPE   O3217869   5.883  -0.447   6.823 -0.3292  0.2818 -0.1351
  160SAPE   C3217870   6.027  -0.412   7.022  0.6338 -0.4622  0.4826
  160SAPE   H2X17871   6.028  -0.301   7.018  0.9146 -0.4863 -0.6316
  160SAPE   H2Y17872   6.129  -0.445   7.054  0.9784 -2.3744 -2.1547
  160SAPE   C2317873   5.714  -0.289   6.438 -0.7898  0.6265  0.0921
  160SAPE   H3R17874   5.710  -0.383   6.378 -1.7995 -0.0715  1.1998
  160SAPE   H3S17875   5.725  -0.202   6.370 -1.6251 -0.6787 -1.7883
  160SAPE   C2417876   5.567  -0.287   6.493 -0.1191 -0.0047 -0.5231
  160SAPE   H4R17877   5.552  -0.376   6.557 -1.5079 -1.0200 -2.2001
  160SAPE   H4S17878   5.494  -0.292   6.410 -0.0375  1.3251 -0.7087
  160SAPE   C2517879   5.534  -0.166   6.585  0.4615  0.5199 -0.8708
  160SAPE   H5R17880   5.564  -0.068   6.545 -2.6757  1.2706 -1.6667
  160SAPE   C2617881   5.462  -0.166   6.701  0.0099  0.6967 -0.6877
  160SAPE   H6R17882   5.452  -0.067   6.749  0.7489  0.0371  0.9275
  160SAPE   C2717883   5.405  -0.278   6.778 -0.2463 -0.5905 -0.4326
  160SAPE   H7R17884   5.410  -0.373   6.720  1.9774 -1.5841  1.2386
  160SAPE   H7S17885   5.299  -0.254   6.803  0.3466 -0.8351  2.6722
  160SAPE   C2817886   5.482  -0.314   6.899 -0.6434 -0.1765  0.6048
  160SAPE   H8R17887   5.583  -0.344   6.868 -1.1890 -0.4988 -0.9313
  160SAPE   C2917888   5.444  -0.310   7.026  0.2970  0.6618 -0.7533
  160SAPE   H9R17889   5.506  -0.357   7.103  0.3598  0.4011 -0.9617
  160SAPE  C21017890   5.306  -0.261   7.069 -0.1137  0.5592 -0.4884
  160SAPE  H10R17891   5.247  -0.319   7.143  1.1575  0.5992  0.5898
  160SAPE  H10S17892   5.236  -0.268   6.983 -1.4945  1.3470  0.5206
  160SAPE  C21117893   5.306  -0.119   7.115 -0.3516 -0.2455 -0.2919
  160SAPE  H11R17894   5.364  -0.047   7.055  1.4941 -0.8918  0.6425
  160SAPE  C21217895   5.238  -0.069   7.225 -0.0881  0.5197  0.0646
  160SAPE  H12R17896   5.251   0.036   7.255 -1.0482  1.0288 -1.2304
  160SAPE  C21317897   5.138  -0.137   7.307 -0.0850  0.4708 -0.2529
  160SAPE  H13R17898   5.169  -0.109   7.410  0.8467  0.1838 -0.4505
  160SAPE  H13S17899   5.151  -0.247   7.296  0.6688  0.7394 -2.3219
  160SAPE  C21417900   4.995  -0.104   7.278  0.1456  0.1152  0.5048
  160SAPE  H14R17901   4.949  -0.168   7.202 -0.0135 -2.7133  2.7920
  160SAPE  C21517902   4.923  -0.002   7.322  0.2973 -1.7695  0.1917
  160SAPE  H15R17903   4.818   0.012   7.291 -0.0947  0.9912  2.3425
  160SAPE  C21617904   4.969   0.096   7.427  0.7315  0.5089 -0.4842
  160SAPE  H16R17905   4.912   0.191   7.424  2.7057  1.7336 -2.5421
  160SAPE  H16S17906   5.077   0.122   7.426  0.5667  1.2302  0.0507
  160SAPE  C21717907   4.945   0.046   7.568 -0.1238 -0.2510  0.3038
  160SAPE  H17R17908   4.967  -0.063   7.573 -0.5657 -0.4149 -0.9375
  160SAPE  H17S17909   4.837   0.060   7.592  0.5460  0.9461  3.0127
  160SAPE  C21817910   5.031   0.110   7.670 -0.4758 -0.3764  0.2210
  160SAPE  H18R17911   5.007   0.218   7.662  0.1083 -0.1073  1.7699
  160SAPE  H18S17912   5.136   0.083   7.648 -0.2932 -0.3521  1.0234
  160SAPE  C21917913   5.001   0.061   7.813  0.4155 -0.7669  0.2517
  160SAPE  H19R17914   5.082   0.104   7.875  0.7447  1.7513 -1.7796
  160SAPE  H19S17915   4.993  -0.050   7.823 -1.4455 -0.5413  1.9007
  160SAPE  C22017916   4.870   0.118   7.877  0.2969  0.7541 -0.0150
  160SAPE  H20R17917   4.837   0.031   7.938 -0.2652  1.5199  0.7982
  160SAPE  H20S17918   4.796   0.142   7.797  2.2607 -0.2310 -2.2773
  160SAPE  H20T17919   4.892   0.207   7.939  0.8937  1.6085 -1.3985
  160SAPE   C3317920   5.926  -0.471   7.125 -0.2104  0.7880  0.4061
  160SAPE   H3X17921   5.946  -0.580   7.124 -0.4614  0.6785 -2.7300
  160SAPE   H3Y17922   5.820  -0.453   7.095 -0.2844  0.0606  0.2296
  160SAPE   C3417923   5.942  -0.410   7.267 -0.7825 -0.0157 -0.2771
  160SAPE   H4X17924   5.919  -0.301   7.255  2.2004  0.7878  0.4031
  160SAPE   H4Y17925   6.047  -0.423   7.302 -0.6935  0.0981 -0.4999
  160SAPE   C3517926   5.841  -0.473   7.356 -0.2487 -0.3125 -0.3067
  160SAPE   H5X17927   5.856  -0.583   7.355 -0.1360 -0.3143  0.8769
  160SAPE   H5Y17928   5.738  -0.451   7.322  0.6640  0.9168 -2.4736
  160SAPE   C3617929   5.859  -0.440   7.503  0.2399 -0.4894 -0.2097
  160SAPE   H6X17930   5.837  -0.332   7.520  1.4988  0.0164 -1.5049
  160SAPE   H6Y17931   5.964  -0.455   7.536  0.1563 -1.9072 -0.5235
  160SAPE   C3717932   5.772  -0.520   7.598  0.3565  0.7636 -0.1623
  160SAPE   H7X17933   5.780  -0.628   7.576 -1.6824  0.3551  0.8552
  160SAPE   H7Y17934   5.665  -0.495   7.581 -0.1527 -1.7701 -1.0426
  160SAPE   C3817935   5.796  -0.494   7.753 -0.7497 -0.8632  0.2446
  160SAPE   H8X17936   5.710  -0.530   7.812  0.6443 -0.2591  2.7948
  160SAPE   H8Y17937   5.815  -0.388   7.782  1.8940 -1.4319  0.8481
  160SAPE   C3917938   5.918  -0.568   7.804 -0.4725 -0.3724  0.9162
  160SAPE   H9X17939   6.010  -0.558   7.743 -0.5401  1.4139  1.0600
  160SAPE   H9Y17940   5.883  -0.672   7.792 -1.5296  0.0867 -0.1109
  160SAPE  C31017941   5.949  -0.540   7.947 -0.0808  0.3561 -0.1388
  160SAPE  H10X17942   5.858  -0.559   8.007  0.7952  1.2963  1.5654
  160SAPE  H10Y17943   5.979  -0.433   7.945  1.3570 -0.0310 -0.8909
  160SAPE  C31117944   6.073  -0.615   7.992 -0.1386  0.2698  0.1784
  160SAPE  H11X17945   6.158  -0.618   7.921  0.3144 -2.7941  0.7052
  160SAPE  H11Y17946   6.045  -0.722   8.003  1.2407 -0.2588 -1.1034
  160SAPE  C31217947   6.135  -0.573   8.120 -0.1020 -0.4141 -0.7720
  160SAPE  H12X17948   6.191  -0.477   8.109 -0.0019 -0.3536  0.1503
  160SAPE  H12Y17949   6.211  -0.645   8.157  0.8431 -0.5893 -2.8869
  160SAPE  C31317950   6.039  -0.547   8.238  0.2522  0.0508  0.7516
  160SAPE  H13X17951   5.964  -0.629   8.249  0.5881 -0.4225 -0.3073
  160SAPE  H13Y17952   5.975  -0.464   8.202  0.5135 -0.0881 -0.0473
  160SAPE  C31417953   6.095  -0.519   8.374  0.0798  0.2960 -0.1203
  160SAPE  H14X17954   6.137  -0.417   8.382  0.0300  0.2980  0.1147
  160SAPE  H14Y17955   6.170  -0.594   8.406  2.2626  2.6874  0.6495
  160SAPE  C31517956   5.982  -0.526   8.476 -0.0651  0.3572 -0.1303
  160SAPE  H15X17957   5.922  -0.619   8.459 -0.8492  1.0999 -1.7392
  160SAPE  H15Y17958   5.916  -0.440   8.453  1.6985  2.2453  1.5361
  160SAPE  C31617959   6.038  -0.527   8.615 -0.3805  0.1311 -0.3117
  160SAPE  H16X17960   6.105  -0.615   8.630 -1.6174 -0.6668  0.6678
  160SAPE  H16Y17961   5.969  -0.541   8.700 -0.0821 -0.6399 -0.1915
  160SAPE  C31717962   6.117  -0.396   8.657 -0.2447  0.6751  1.1298
  160SAPE  H17X17963   6.043  -0.313   8.652  1.5637  2.3840  1.4585
  160SAPE  H17Y17964   6.188  -0.373   8.575 -1.0484  0.0227  0.2276
  160SAPE  C31817965   6.184  -0.403   8.787 -0.5381  0.3077 -0.0535
  160SAPE  H18X17966   6.106  -0.432   8.860 -1.0656 -0.7676 -1.0191
  160SAPE  H18Y17967   6.206  -0.297   8.813  1.0228  0.4965 -1.8535
  160SAPE  H18Z17968   6.278  -0.459   8.806 -1.4165 -1.0388  0.4510
  161SOPE     N17969   2.077   0.042  10.326  0.0165 -0.4536  0.4062
  161SOPE   HN117970   1.984   0.012  10.291 -1.4702  2.0352  1.9279
  161SOPE   HN217971   2.087   0.143  10.304  1.2881 -0.1028  2.3040
  161SOPE   HN317972   2.145  -0.014  10.271 -0.5068  0.8900 -1.6950
  161SOPE   C1217973   2.092   0.016  10.476 -0.0120  0.1635 -0.2424
  161SOPE  H12A17974   2.001   0.046  10.531  0.9893  3.0929  0.0033
  161SOPE  H12B17975   2.172   0.087  10.508  0.2754  0.2813 -1.1665
  161SOPE   C1117976   2.138  -0.123  10.512 -0.0084 -0.3639  0.1927
  161SOPE  H11A17977   2.166  -0.116  10.619  0.3427  2.8543 -0.0013
  161SOPE  H11B17978   2.233  -0.160  10.467  2.9307  0.8054  4.6884
  161SOPE     P17979   2.047  -0.372  10.496  0.2366  0.3726 -0.4925
  161SOPE   O1317980   1.921  -0.432  10.542 -0.2515 -0.3984 -0.6787
  161SOPE   O1417981   2.169  -0.405  10.575 -0.6258 -0.0928  0.0682
  161SOPE   O1217982   2.027  -0.220  10.492 -0.0670  0.1467  0.0226
  161SOPE   O1117983   2.075  -0.404  10.343 -0.4838 -0.0799 -0.3562
  161SOPE    C117984   1.977  -0.378  10.250 -0.3599 -0.6308  0.6394
  161SOPE    HA17985   2.022  -0.382  10.148  0.9610 -1.8257  1.2491
  161SOPE    HB17986   1.922  -0.282  10.258  2.8452  1.3750  0.3346
  161SOPE    C217987   1.868  -0.497  10.243  0.3367  0.2732 -0.1273
  161SOPE    HS17988   1.803  -0.486  10.332  1.2261  2.0581  0.3518
  161SOPE   O2117989   1.944  -0.623  10.235 -0.1960  0.0594 -0.3368
  161SOPE   C2117990   1.877  -0.725  10.284  0.2120 -0.1924 -0.3161
  161SOPE   O2217991   1.770  -0.717  10.342 -0.1045 -0.0464  0.5705
  161SOPE   C2217992   1.967  -0.844  10.271 -0.5976 -0.1237 -0.2600
  161SOPE   H2R17993   2.018  -0.862  10.368 -2.5405  0.2149  0.8657
  161SOPE   H2S17994   2.048  -0.819  10.199  0.5384  0.2375  1.0957
  161SOPE    C317995   1.780  -0.479  10.112  0.0395 -0.4139 -0.3549
  161SOPE    HX17996   1.703  -0.559  10.115  0.7637 -1.1124  0.0355
  161SOPE    HY17997   1.850  -0.489  10.026 -0.0621  4.5335 -1.3113
  161SOPE   O3117998   1.736  -0.336  10.123 -0.2413 -0.0308 -0.1903
  161SOPE   C3117999   1.606  -0.312  10.124  0.2612  0.1389  0.0380
  161SOPE   O3218000   1.526  -0.400  10.158 -0.0690  0.0900  0.0002
  161SOPE   C3218001   1.582  -0.168  10.081  0.9439  0.4209  0.2165
  161SOPE   H2X18002   1.662  -0.099  10.115  1.2585  0.4976 -0.6501
  161SOPE   H2Y18003   1.485  -0.142  10.128  1.1828  1.4009  0.1852
  161SOPE   C2318004   1.892  -0.976  10.240 -0.3897  0.4750 -0.2718
  161SOPE   H3R18005   1.793  -0.989  10.287  1.7246 -1.5839  4.2936
  161SOPE   H3S18006   1.968  -1.051  10.272 -0.1608  0.4360 -0.9067
  161SOPE   C2418007   1.882  -1.009  10.093  0.3913 -0.4649 -0.4711
  161SOPE   H4R18008   1.981  -0.988  10.046 -0.0231  0.5674 -0.9156
  161SOPE   H4S18009   1.838  -1.111  10.091  0.7290 -0.6170 -0.2450
  161SOPE   C2518010   1.780  -0.920  10.017  0.0003  0.1667 -0.1280
  161SOPE   H5R18011   1.691  -0.911  10.082  0.7972 -0.2004  1.0478
  161SOPE   H5S18012   1.834  -0.825   9.996 -1.1652  0.8737  0.0224
  161SOPE   C2618013   1.740  -0.974   9.882 -0.2076  0.2587 -0.6193
  161SOPE   H6R18014   1.686  -1.068   9.908  2.1008 -0.8860  0.3909
  161SOPE   H6S18015   1.677  -0.898   9.832 -0.8839  0.4901  0.5458
  161SOPE   C2718016   1.853  -0.998   9.784 -0.4856 -0.2354  0.0704
  161SOPE   H7R18017   1.912  -0.904   9.773 -0.3156 -0.1088  1.7618
  161SOPE   H7S18018   1.909  -1.087   9.820 -0.2695 -1.7538 -3.6085
  161SOPE   C2818019   1.797  -1.031   9.643  0.3356 -0.3980 -0.5049
  161SOPE   H8R18020   1.756  -1.134   9.653  1.2673 -0.5734  2.8432
  161SOPE   H8S18021   1.713  -0.961   9.623  1.9250  1.0214 -2.6365
  161SOPE   C2918022   1.897  -1.029   9.533 -0.6875 -0.2536  0.0184
  161SOPE   H9118023   1.954  -1.122   9.519 -1.4177 -0.4567 -2.1508
  161SOPE  C21018024   1.908  -0.936   9.439  0.0785 -0.1948  0.4087
  161SOPE  H10118025   1.976  -0.954   9.354  1.3888 -0.5126  1.4797
  161SOPE  C21118026   1.835  -0.803   9.421 -0.6244  0.3559 -0.4289
  161SOPE  H11R18027   1.851  -0.738   9.510 -0.5336  0.7157 -0.7039
  161SOPE  H11S18028   1.727  -0.803   9.393 -0.1033  2.1428 -2.7915
  161SOPE  C21218029   1.906  -0.721   9.309  1.0421 -0.1204 -1.1995
  161SOPE  H12R18030   1.880  -0.777   9.216  1.4087 -0.3034 -1.1907
  161SOPE  H12S18031   2.015  -0.701   9.316  0.8160  0.8172 -0.0458
  161SOPE  C21318032   1.836  -0.581   9.288  0.2206  1.1518 -0.1800
  161SOPE  H13R18033   1.876  -0.516   9.369 -0.1553  0.0049  0.9597
  161SOPE  H13S18034   1.727  -0.594   9.307  0.2274  0.1568 -0.7491
  161SOPE  C21418035   1.860  -0.506   9.154 -0.7780  1.0097  0.1312
  161SOPE  H14R18036   1.966  -0.474   9.151  0.6448 -3.1737 -0.2704
  161SOPE  H14S18037   1.788  -0.421   9.150 -1.6173  0.2701 -1.6897
  161SOPE  C21518038   1.829  -0.584   9.023 -0.4949  0.5719  0.7749
  161SOPE  H15R18039   1.781  -0.680   9.056 -1.0138  0.6899  0.3744
  161SOPE  H15S18040   1.920  -0.610   8.966 -0.9037 -1.4900  0.9707
  161SOPE  C21618041   1.723  -0.510   8.935  0.3134 -0.2474 -0.7642
  161SOPE  H16R18042   1.752  -0.403   8.933 -2.5252  0.5931 -1.9684
  161SOPE  H16S18043   1.622  -0.512   8.982  0.3094 -2.4242 -0.7385
  161SOPE  C21718044   1.718  -0.555   8.786 -0.3099 -0.1835  0.0544
  161SOPE  H17R18045   1.664  -0.650   8.768  0.1795 -0.1677 -1.6709
  161SOPE  H17S18046   1.824  -0.580   8.765 -0.3598 -0.0599 -0.3530
  161SOPE  C21818047   1.671  -0.448   8.691 -0.1750 -0.6272 -0.5296
  161SOPE  H18R18048   1.560  -0.443   8.697 -0.1415  1.0461 -0.9553
  161SOPE  H18S18049   1.704  -0.468   8.587  2.9955 -0.2765  0.3103
  161SOPE  H18T18050   1.715  -0.351   8.722  0.0143 -0.6854 -0.6140
  161SOPE   C3318051   1.579  -0.159   9.928  0.6378 -0.0195 -0.0105
  161SOPE   H3X18052   1.532  -0.248   9.880  0.7942 -0.4262  0.5697
  161SOPE   H3Y18053   1.676  -0.151   9.876  0.4870  0.8540 -0.1682
  161SOPE   C3418054   1.487  -0.049   9.875 -0.0912 -0.2285 -0.2804
  161SOPE   H4X18055   1.517   0.053   9.908  0.8955 -0.1120 -1.4640
  161SOPE   H4Y18056   1.393  -0.066   9.932  0.7122  1.1697  1.5662
  161SOPE   C3518057   1.452  -0.047   9.723  0.1332 -0.3073 -0.2746
  161SOPE   H5X18058   1.387   0.042   9.707  1.2697  0.3802 -1.1921
  161SOPE   H5Y18059   1.399  -0.137   9.684  0.0318 -0.8978  1.1401
  161SOPE   C3618060   1.575  -0.014   9.632 -1.4933 -0.6572 -0.2668
  161SOPE   H6X18061   1.673  -0.061   9.657 -0.5971  1.8574  1.3790
  161SOPE   H6Y18062   1.593   0.095   9.640  1.3412 -1.0185 -0.6966
  161SOPE   C3718063   1.553  -0.055   9.485  0.6415  0.0324  0.6297
  161SOPE   H7X18064   1.456  -0.029   9.438  1.3784  0.3487 -0.7863
  161SOPE   H7Y18065   1.554  -0.166   9.485 -0.5422 -0.0142 -1.2274
  161SOPE   C3818066   1.676  -0.014   9.397 -0.4994  0.5763  0.6145
  161SOPE   H8X18067   1.771  -0.023   9.456 -0.7673 -4.4762  0.7201
  161SOPE   H8Y18068   1.657   0.093   9.375 -1.0483  0.6046  1.2141
  161SOPE   C3918069   1.695  -0.101   9.267 -0.2316 -0.4514  0.3180
  161SOPE   H9X18070   1.596  -0.104   9.218 -0.2284  2.3905 -0.0272
  161SOPE   H9Y18071   1.727  -0.206   9.286  2.0269 -0.1087 -1.1903
  161SOPE  C31018072   1.803  -0.031   9.177 -0.5972  0.0649 -0.2974
  161SOPE  H10X18073   1.896  -0.008   9.234 -1.2904 -0.2352  0.9862
  161SOPE  H10Y18074   1.767   0.070   9.147 -0.2300  0.1684 -0.3991
  161SOPE  C31118075   1.845  -0.114   9.059 -0.0910 -0.6165 -0.0816
  161SOPE  H11X18076   1.751  -0.116   9.001 -1.4444  0.9776  1.9351
  161SOPE  H11Y18077   1.871  -0.220   9.083 -1.2484 -0.9360 -0.1614
  161SOPE  C31218078   1.946  -0.054   8.969 -0.3217  0.4111 -0.2923
  161SOPE  H12X18079   2.034  -0.028   9.031 -0.9758 -0.2504  0.9415
  161SOPE  H12Y18080   1.916   0.044   8.927 -0.3983  0.7815  0.6224
  161SOPE  C31318081   2.003  -0.142   8.849  0.2940 -0.4827  0.2016
  161SOPE  H13X18082   1.913  -0.193   8.809 -0.6280  1.7462 -0.6878
  161SOPE  H13Y18083   2.064  -0.225   8.892  0.7390 -0.5367 -0.5156
  161SOPE  C31418084   2.083  -0.065   8.734 -0.8006  0.1521 -0.1212
  161SOPE  H14X18085   2.156   0.007   8.778 -2.5922  1.7898  0.3160
  161SOPE  H14Y18086   2.020  -0.001   8.668  0.8591 -0.0531 -1.9701
  161SOPE  C31518087   2.163  -0.152   8.629  0.4528  0.4913 -0.0749
  161SOPE  H15X18088   2.252  -0.198   8.678 -0.4593  0.0001  1.1582
  161SOPE  H15Y18089   2.204  -0.086   8.550 -0.0526  1.4052  0.3971
  161SOPE  C31618090   2.076  -0.276   8.582 -0.6565 -0.0273 -0.2724
  161SOPE  H16X18091   1.973  -0.237   8.570 -1.0193 -0.1647  1.9271
  161SOPE  H16Y18092   2.075  -0.337   8.675 -0.7371  1.7650  0.9636
  161SOPE  C31718093   2.131  -0.354   8.461  0.7807 -0.2451 -0.0329
  161SOPE  H17X18094   2.235  -0.383   8.485  1.7210  2.2990 -0.7210
  161SOPE  H17Y18095   2.147  -0.299   8.366 -1.5930 -1.5802 -1.3355
  161SOPE  C31818096   2.045  -0.470   8.425 -0.0659 -0.0113  0.0639
  161SOPE  H18X18097   1.996  -0.530   8.505 -0.5458 -1.8600 -1.5166
  161SOPE  H18Y18098   2.109  -0.534   8.361  0.9194  1.0824 -0.0708
  161SOPE  H18Z18099   1.963  -0.424   8.366 -0.2756  3.7522  2.9564
  162SOPE     N18100   1.548   5.333  10.764  0.5605  0.0463  0.4702
  162SOPE   HN118101   1.639   5.364  10.802 -0.7991  2.2344  2.2605
  162SOPE   HN218102   1.553   5.240  10.718 -0.8642  0.4291 -0.5514
  162SOPE   HN318103   1.499   5.394  10.695  0.1784  1.0717  1.6028
  162SOPE   C1218104   1.456   5.320  10.883  0.1822 -0.6202  0.0303
  162SOPE  H12A18105   1.522   5.306  10.971  2.0653 -1.3282 -1.4130
  162SOPE  H12B18106   1.388   5.234  10.867  0.8242 -1.4081  1.3762
  162SOPE   C1118107   1.370   5.447  10.899 -0.1415 -0.0499 -0.5405
  162SOPE  H11A18108   1.438   5.531  10.872  1.7409 -1.8606 -1.6910
  162SOPE  H11B18109   1.340   5.459  11.006  0.2575 -0.4070 -0.3863
  162SOPE     P18110   1.122   5.355  10.855  0.1450 -0.4086 -0.5314
  162SOPE   O1318111   1.031   5.437  10.933 -0.8336 -0.1377  0.1331
  162SOPE   O1418112   1.150   5.216  10.913  0.3815 -0.7700  0.0924
  162SOPE   O1218113   1.251   5.434  10.824 -0.1165  0.0552 -0.0915
  162SOPE   O1118114   1.072   5.346  10.714  0.2256  0.5244 -0.5685
  162SOPE    C118115   1.134   5.267  10.608  0.3056  0.0678 -0.4205
  162SOPE    HA18116   1.091   5.165  10.600  1.0962 -0.3156  0.0947
  162SOPE    HB18117   1.242   5.246  10.621  0.1245 -1.7694 -1.3966
  162SOPE    C218118   1.113   5.330  10.469  0.3860 -0.2583  0.6328
  162SOPE    HS18119   1.141   5.437  10.479 -2.4682  0.6595 -0.3655
  162SOPE   O2118120   0.975   5.317  10.429 -0.5710  0.4220  0.3276
  162SOPE   C2118121   0.917   5.418  10.369 -0.3547 -0.4029  0.3613
  162SOPE   O2218122   0.950   5.536  10.363 -0.5327  0.0977  0.1952
  162SOPE   C2218123   0.790   5.370  10.315  0.1226  0.3444 -0.1210
  162SOPE   H2R18124   0.713   5.382  10.394  1.3169 -0.3477  1.1967
  162SOPE   H2S18125   0.794   5.260  10.298  0.7841  0.3734 -0.2001
  162SOPE    C318126   1.198   5.264  10.365 -0.1551 -0.2687 -0.4332
  162SOPE    HX18127   1.158   5.161  10.353  2.5569 -1.5390  0.5822
  162SOPE    HY18128   1.301   5.253  10.404  0.4220 -1.3562 -2.2031
  162SOPE   O3118129   1.198   5.331  10.238 -0.1927 -0.2020  0.1507
  162SOPE   C3118130   1.293   5.418  10.216  0.4259 -0.5977  0.3080
  162SOPE   O3218131   1.387   5.434  10.291  0.2810  0.3714 -0.0101
  162SOPE   C3218132   1.248   5.509  10.109  0.1499 -0.1741  0.0963
  162SOPE   H2X18133   1.189   5.580  10.171  3.7229  1.9256  1.4376
  162SOPE   H2Y18134   1.171   5.467  10.041 -0.8772  0.4602  0.8292
  162SOPE   C2318135   0.730   5.447  10.191 -0.4414  0.3900  0.3364
  162SOPE   H3R18136   0.727   5.554  10.220  1.3734  0.6259 -0.2690
  162SOPE   H3S18137   0.628   5.405  10.173 -0.3683 -0.3947  1.6571
  162SOPE   C2418138   0.805   5.423  10.064 -0.0238 -0.1896  0.1164
  162SOPE   H4R18139   0.747   5.468   9.981 -1.3214 -0.3559  0.9120
  162SOPE   H4S18140   0.901   5.477  10.075 -0.5213  0.6165  0.5957
  162SOPE   C2518141   0.836   5.269  10.019 -0.3147  0.2548  0.2825
  162SOPE   H5R18142   0.915   5.233  10.088 -0.2970  0.8852  0.6009
  162SOPE   H5S18143   0.747   5.205  10.034 -1.0078  1.1359  0.0148
  162SOPE   C2618144   0.875   5.269   9.869 -0.2837 -0.2097 -0.1277
  162SOPE   H6R18145   0.785   5.301   9.813 -0.2364 -1.9375 -1.2771
  162SOPE   H6S18146   0.961   5.334   9.845 -0.2998 -0.1532 -0.0301
  162SOPE   C2718147   0.898   5.127   9.823  0.7826  0.5596 -0.1569
  162SOPE   H7R18148   0.957   5.067   9.895  0.2466  0.6023  0.3203
  162SOPE   H7S18149   0.805   5.067   9.812  0.5921  0.6141  1.1090
  162SOPE   C2818150   0.960   5.128   9.689 -0.3777  0.2836 -0.7299
  162SOPE   H8R18151   1.052   5.190   9.692  1.1933 -2.0057  0.3815
  162SOPE   H8S18152   0.998   5.027   9.664  0.3114  0.5397 -0.7277
  162SOPE   C2918153   0.869   5.170   9.579  0.5914 -0.1731 -0.5265
  162SOPE   H9118154   0.819   5.090   9.523  0.7040 -0.4670 -0.2110
  162SOPE  C21018155   0.860   5.291   9.518  0.2199  0.7222  0.1740
  162SOPE  H10118156   0.788   5.299   9.435 -1.0332 -3.0910  0.6851
  162SOPE  C21118157   0.940   5.415   9.555 -0.0955 -0.4699 -0.6028
  162SOPE  H11R18158   0.987   5.405   9.656  0.3698  1.1855 -0.6256
  162SOPE  H11S18159   0.864   5.495   9.551  0.1421 -0.1870  0.1780
  162SOPE  C21218160   1.048   5.437   9.451 -0.2054  0.1589 -0.0587
  162SOPE  H12R18161   1.109   5.348   9.424  1.0670  0.7683  0.7060
  162SOPE  H12S18162   1.116   5.516   9.489 -1.1485  0.3629  1.2781
  162SOPE  C21318163   0.996   5.489   9.318 -0.2717  0.3605  0.1121
  162SOPE  H13R18164   0.951   5.588   9.343 -1.1589  0.5095 -1.8577
  162SOPE  H13S18165   0.915   5.426   9.277 -0.1073  0.3251 -0.1595
  162SOPE  C21418166   1.110   5.528   9.215 -0.0160 -0.3103 -0.6979
  162SOPE  H14R18167   1.172   5.436   9.211  2.4727  0.8459  3.9684
  162SOPE  H14S18168   1.177   5.611   9.247 -0.9328 -0.2922  1.2969
  162SOPE  C21518169   1.060   5.568   9.075 -0.7493 -0.1821 -0.3153
  162SOPE  H15R18170   0.991   5.654   9.087  0.1774  0.6661 -0.9458
  162SOPE  H15S18171   0.985   5.497   9.034 -0.0761  0.1054 -2.1190
  162SOPE  C21618172   1.162   5.593   8.967 -0.1363 -0.1976 -0.0331
  162SOPE  H16R18173   1.230   5.506   8.958 -1.1034 -0.8346 -1.6082
  162SOPE  H16S18174   1.222   5.675   9.012 -0.9284  0.4284 -0.0801
  162SOPE  C21718175   1.111   5.628   8.832 -0.0301  0.0510  0.0088
  162SOPE  H17R18176   1.061   5.726   8.842  0.8293  0.5145 -0.2066
  162SOPE  H17S18177   1.032   5.554   8.805  1.3926 -1.7326  0.5314
  162SOPE  C21818178   1.215   5.634   8.723  0.1647 -0.5141  0.5673
  162SOPE  H18R18179   1.171   5.674   8.629  0.3347 -0.5577  0.4666
  162SOPE  H18S18180   1.252   5.531   8.702 -0.3769 -0.6187  0.0908
  162SOPE  H18T18181   1.292   5.714   8.731  1.1064 -1.0025 -2.3976
  162SOPE   C3318182   1.346   5.594  10.019 -0.1195 -0.4301  0.2919
  162SOPE   H3X18183   1.452   5.568  10.040  0.4273  0.2905 -1.3686
  162SOPE   H3Y18184   1.321   5.700  10.043 -0.5362 -0.4877  0.1208
  162SOPE   C3418185   1.309   5.578   9.873 -0.0114 -0.4152  0.1158
  162SOPE   H4X18186   1.199   5.590   9.861  0.1302 -0.5871 -1.6279
  162SOPE   H4Y18187   1.324   5.469   9.856 -1.2288 -0.3992 -1.1801
  162SOPE   C3518188   1.385   5.663   9.773  0.2016  0.6850 -0.5674
  162SOPE   H5X18189   1.495   5.646   9.776  0.7238  3.6911  0.8213
  162SOPE   H5Y18190   1.364   5.769   9.799 -0.1663  0.6111 -0.5594
  162SOPE   C3618191   1.348   5.653   9.624  0.0353 -0.3264 -0.7264
  162SOPE   H6X18192   1.252   5.709   9.618  0.3251  0.5338  1.4835
  162SOPE   H6Y18193   1.339   5.547   9.590 -0.4330 -0.7342  0.5740
  162SOPE   C3718194   1.454   5.719   9.544  0.3703 -0.8515  0.2435
  162SOPE   H7X18195   1.548   5.660   9.535  0.5227 -0.5610 -0.1313
  162SOPE   H7Y18196   1.487   5.814   9.591  2.4715 -1.9574  1.1602
  162SOPE   C3818197   1.407   5.758   9.400 -0.2270 -0.3178 -0.0304
  162SOPE   H8X18198   1.317   5.823   9.398  0.5067  0.7111 -0.5744
  162SOPE   H8Y18199   1.371   5.663   9.354 -1.3103  0.8089 -1.6036
  162SOPE   C3918200   1.510   5.825   9.319 -0.1302  0.2157 -0.2973
  162SOPE   H9X18201   1.600   5.759   9.312 -0.6710 -0.6589  0.7525
  162SOPE   H9Y18202   1.543   5.916   9.372 -1.0628 -0.5648  1.7217
  162SOPE  C31018203   1.467   5.865   9.173 -0.5191 -0.0105 -0.7665
  162SOPE  H10X18204   1.385   5.936   9.197 -2.6584 -0.7047 -5.0272
  162SOPE  H10Y18205   1.428   5.780   9.114  2.7271 -1.0358 -1.6497
  162SOPE  C31118206   1.575   5.931   9.095 -0.2205  0.4361  0.2442
  162SOPE  H11X18207   1.644   5.847   9.073 -1.9878 -1.5060  1.7311
  162SOPE  H11Y18208   1.635   6.009   9.148  0.3617  0.3602 -0.2841
  162SOPE  C31218209   1.520   6.006   8.973  1.2316 -0.3954  0.0377
  162SOPE  H12X18210   1.580   6.098   8.955  0.2719  0.1193 -0.6250
  162SOPE  H12Y18211   1.416   6.039   8.992  1.2772 -0.6335  0.7041
  162SOPE  C31318212   1.508   5.926   8.839 -0.1195 -0.2842 -0.2818
  162SOPE  H13X18213   1.452   5.836   8.873  1.5224 -1.4528 -0.5423
  162SOPE  H13Y18214   1.609   5.899   8.803  0.3202  1.7914 -0.7352
  162SOPE  C31418215   1.435   6.005   8.729  0.7007  0.4853  0.2521
  162SOPE  H14X18216   1.476   6.108   8.740  1.6287  0.1074  0.4698
  162SOPE  H14Y18217   1.327   6.016   8.750  0.4586  1.3480 -1.3480
  162SOPE  C31518218   1.450   5.954   8.586  0.4640 -0.1949 -0.1683
  162SOPE  H15X18219   1.429   5.844   8.584 -0.8127  0.0371 -0.6185
  162SOPE  H15Y18220   1.555   5.974   8.555  0.6462  0.5198  0.8841
  162SOPE  C31618221   1.351   6.024   8.488 -0.1499 -0.1485 -0.4058
  162SOPE  H16X18222   1.370   6.128   8.524  0.0183  0.8346 -3.1096
  162SOPE  H16Y18223   1.246   6.005   8.518  0.4773 -0.5640  1.7598
  162SOPE  C31718224   1.384   6.029   8.346  0.4457  0.2314 -1.0689
  162SOPE  H17X18225   1.485   5.985   8.336  0.1998 -0.4830 -0.4898
  162SOPE  H17Y18226   1.377   6.134   8.311 -2.3135 -0.6106 -3.5034
  162SOPE  C31818227   1.287   5.933   8.269 -0.2165 -0.3536 -0.6055
  162SOPE  H18X18228   1.183   5.958   8.298  0.2678 -0.4999  1.4472
  162SOPE  H18Y18229   1.292   5.824   8.291 -0.3122 -0.3780 -0.7073
  162SOPE  H18Z18230   1.307   5.927   8.160 -2.0504 -0.5401 -0.9543
  163SOPE     N18231   4.316   0.978  10.474 -0.4587 -0.2830 -0.1917
  163SOPE   HN118232   4.350   0.881  10.461 -0.1417 -0.1324 -0.5134
  163SOPE   HN218233   4.253   0.961  10.555  2.2696 -0.6516  2.0276
  163SOPE   HN318234   4.249   0.996  10.396 -2.3069  1.6795  1.7327
  163SOPE   C1218235   4.418   1.089  10.494 -0.0171  0.6417  0.3780
  163SOPE  H12A18236   4.441   1.124  10.391 -0.0280 -2.1530 -0.6742
  163SOPE  H12B18237   4.515   1.048  10.530  1.0376  2.4814 -0.2282
  163SOPE   C1118238   4.364   1.216  10.570  0.3863 -0.1317  0.4695
  163SOPE  H11A18239   4.442   1.294  10.580 -1.2068  1.8888 -1.6785
  163SOPE  H11B18240   4.332   1.176  10.669  0.7792 -0.2575  0.5471
  163SOPE     P18241   4.171   1.382  10.570  0.3571 -0.3486 -0.4405
  163SOPE   O1318242   4.255   1.452  10.668 -0.0236 -0.2799 -0.1884
  163SOPE   O1418243   4.048   1.321  10.616  0.2872 -0.5768 -0.6693
  163SOPE   O1218244   4.254   1.272  10.498 -0.2954  0.0870  0.2067
  163SOPE   O1118245   4.150   1.488  10.456 -0.1044  0.2550  0.2312
  163SOPE    C118246   4.133   1.432  10.327  0.1350  0.5399 -0.1796
  163SOPE    HA18247   4.058   1.350  10.324  2.1359 -1.3998  0.5914
  163SOPE    HB18248   4.221   1.378  10.287  0.2280  0.0724  0.6380
  163SOPE    C218249   4.083   1.534  10.218  0.0757  0.0531  0.5175
  163SOPE    HS18250   3.997   1.597  10.252  1.8241  3.1996 -0.4619
  163SOPE   O2118251   4.052   1.465  10.093  0.3489 -0.3693 -0.4936
  163SOPE   C2118252   3.951   1.514  10.020 -0.3544  0.0657 -0.1292
  163SOPE   O2218253   3.872   1.605  10.062  0.3426  0.0066 -0.2142
  163SOPE   C2218254   3.952   1.445   9.880  0.3681 -0.3569 -0.4648
  163SOPE   H2R18255   3.953   1.336   9.901  3.4952 -0.2899  0.3017
  163SOPE   H2S18256   4.049   1.459   9.826  0.2676 -1.2954 -0.9137
  163SOPE    C318257   4.197   1.634  10.190 -0.1848  0.5379 -0.8628
  163SOPE    HX18258   4.291   1.581  10.163  0.3982 -0.1098  2.0866
  163SOPE    HY18259   4.228   1.693  10.279 -2.0093 -1.0466  0.9594
  163SOPE   O3118260   4.166   1.717  10.079 -0.2430 -0.2036  0.2356
  163SOPE   C3118261   4.133   1.842  10.103 -0.6528 -1.1650 -0.3759
  163SOPE   O3218262   4.127   1.897  10.215 -0.5293  0.1808  0.3723
  163SOPE   C3218263   4.109   1.910   9.970 -0.1633  0.6948 -0.0399
  163SOPE   H2X18264   4.002   1.897   9.944  0.0190 -0.0698 -0.4382
  163SOPE   H2Y18265   4.160   1.858   9.886 -0.6437  1.1919 -0.6546
  163SOPE   C2318266   3.830   1.477   9.800  0.3027  0.3447 -0.1109
  163SOPE   H3R18267   3.742   1.491   9.867 -0.3913  0.0639 -0.9386
  163SOPE   H3S18268   3.799   1.388   9.741 -1.3199  0.7281  0.1132
  163SOPE   C2418269   3.850   1.602   9.707  1.1418  0.3100 -0.0401
  163SOPE   H4R18270   3.750   1.630   9.669  0.2634 -2.5397 -0.0686
  163SOPE   H4S18271   3.902   1.680   9.766 -1.1749 -0.1712  2.8365
  163SOPE   C2518272   3.940   1.572   9.579  0.0085 -0.1350 -0.1339
  163SOPE   H5R18273   4.032   1.513   9.595  0.9594  1.3920  0.2940
  163SOPE   H5S18274   3.869   1.520   9.511  1.9318 -1.7158 -0.9962
  163SOPE   C2618275   3.977   1.705   9.517  0.5826  0.3264  0.1128
  163SOPE   H6R18276   4.038   1.681   9.427  0.7443 -2.6783  0.9047
  163SOPE   H6S18277   3.890   1.762   9.478  0.3779 -0.7003 -1.0088
  163SOPE   C2718278   4.067   1.791   9.614 -0.3525  0.2381  0.2239
  163SOPE   H7R18279   4.000   1.836   9.691 -0.0207 -1.1621  1.3829
  163SOPE   H7S18280   4.126   1.725   9.682  1.3795  0.2760 -1.1833
  163SOPE   C2818281   4.146   1.894   9.535 -0.0948  0.1858  0.2533
  163SOPE   H8R18282   4.227   1.930   9.602 -0.8048  0.8122  0.8012
  163SOPE   H8S18283   4.200   1.854   9.447  0.5559  1.9161 -0.1786
  163SOPE   C2918284   4.060   2.011   9.488 -0.0068  0.3674  0.0016
  163SOPE   H9118285   4.005   2.065   9.566 -3.5058 -0.2977 -1.8338
  163SOPE  C21018286   4.054   2.054   9.363  0.2110 -0.2436 -0.5079
  163SOPE  H10118287   3.992   2.144   9.361 -1.4591 -1.1414  2.9070
  163SOPE  C21118288   4.116   2.011   9.233  0.1611  0.0581 -0.1128
  163SOPE  H11R18289   4.042   2.028   9.152  2.0711 -0.9842 -2.2005
  163SOPE  H11S18290   4.143   1.903   9.228 -1.4490 -0.4199  0.8839
  163SOPE  C21218291   4.246   2.088   9.215 -0.0420 -0.5899  0.5158
  163SOPE  H12R18292   4.304   2.085   9.310 -0.5003 -0.0774  0.8229
  163SOPE  H12S18293   4.217   2.193   9.191 -0.0517 -0.4335  1.1643
  163SOPE  C21318294   4.339   2.041   9.096  0.6234 -0.0080 -0.3908
  163SOPE  H13R18295   4.308   1.937   9.074 -0.8178  0.1349  0.7704
  163SOPE  H13S18296   4.442   2.041   9.139  0.1525 -0.1263  0.7834
  163SOPE  C21418297   4.334   2.126   8.965 -0.2633  0.3771 -1.0452
  163SOPE  H14R18298   4.430   2.117   8.910 -0.2154 -0.9060 -0.7673
  163SOPE  H14S18299   4.329   2.231   9.000 -1.4870 -0.0276  0.0534
  163SOPE  C21518300   4.219   2.084   8.875 -0.4107 -0.1806 -0.0421
  163SOPE  H15R18301   4.124   2.109   8.928  0.1964 -0.3511  1.1398
  163SOPE  H15S18302   4.218   1.973   8.864 -1.4534 -0.3184  1.1338
  163SOPE  C21618303   4.219   2.137   8.732  0.5442  0.4886 -0.3101
  163SOPE  H16R18304   4.270   2.062   8.669  0.5542  0.7546 -0.6227
  163SOPE  H16S18305   4.275   2.233   8.729 -0.2000  0.9174 -0.8353
  163SOPE  C21718306   4.074   2.152   8.675 -0.4869 -0.5065 -0.9211
  163SOPE  H17R18307   4.078   2.186   8.569 -2.5508 -0.5612 -1.0591
  163SOPE  H17S18308   4.023   2.226   8.740  0.2805 -0.5684 -0.2164
  163SOPE  C21818309   3.989   2.020   8.680 -0.1256 -0.0033  0.0512
  163SOPE  H18R18310   3.888   2.053   8.646 -0.2160 -0.3042  0.0221
  163SOPE  H18S18311   3.980   1.989   8.786  0.4285 -2.9411 -0.6600
  163SOPE  H18T18312   4.041   1.941   8.622 -0.2329  2.1281 -3.1888
  163SOPE   C3318313   4.135   2.058   9.975  0.1983  0.3122 -0.0544
  163SOPE   H3X18314   4.241   2.073  10.004 -0.2370  0.8669  1.3690
  163SOPE   H3Y18315   4.066   2.099  10.053  0.7799 -1.3684  1.4165
  163SOPE   C3418316   4.093   2.141   9.849 -0.0381  0.0089  0.2301
  163SOPE   H4X18317   3.988   2.114   9.825  0.2224 -2.3115  1.4369
  163SOPE   H4Y18318   4.151   2.104   9.761 -0.0147  2.1883 -0.7448
  163SOPE   C3518319   4.083   2.295   9.872  0.1524 -0.3886  0.0188
  163SOPE   H5X18320   4.187   2.334   9.880  0.2571 -0.9365  1.5425
  163SOPE   H5Y18321   4.023   2.305   9.965  0.3749  0.8914  0.0482
  163SOPE   C3618322   3.998   2.370   9.761  0.2853 -0.0502 -0.5277
  163SOPE   H6X18323   3.984   2.471   9.806  3.5118  1.0534 -1.6909
  163SOPE   H6Y18324   3.904   2.314   9.745  1.0490 -1.3290 -0.6915
  163SOPE   C3718325   4.074   2.375   9.629  0.3242 -0.3643  0.1431
  163SOPE   H7X18326   4.114   2.277   9.595  1.5065 -0.1888  0.9497
  163SOPE   H7Y18327   4.170   2.431   9.621  0.6221 -1.0029 -1.0716
  163SOPE   C3818328   3.977   2.410   9.515  0.4772  0.5966  0.6935
  163SOPE   H8X18329   3.931   2.509   9.538 -0.5533  0.6464 -1.3823
  163SOPE   H8Y18330   3.904   2.327   9.511  0.4835  0.6265 -0.1284
  163SOPE   C3918331   4.048   2.421   9.380  0.3878  0.0226 -0.1335
  163SOPE   H9X18332   4.101   2.325   9.361  0.4342 -0.1056  0.6483
  163SOPE   H9Y18333   4.119   2.507   9.381  0.3516  0.0677 -0.8344
  163SOPE  C31018334   3.950   2.439   9.261  0.3801 -0.8382  0.6084
  163SOPE  H10X18335   3.893   2.535   9.267 -0.9566 -1.6149  0.7079
  163SOPE  H10Y18336   3.886   2.348   9.263  1.0948 -1.5310 -2.8386
  163SOPE  C31118337   4.004   2.430   9.115 -0.0435  1.4559  0.5349
  163SOPE  H11X18338   4.057   2.334   9.097 -0.8168  0.8378  1.4058
  163SOPE  H11Y18339   4.080   2.508   9.095 -1.5740  2.2893 -2.7386
  163SOPE  C31218340   3.887   2.446   9.016  0.4647 -0.4587  0.2851
  163SOPE  H12X18341   3.812   2.525   9.039  0.9306  0.2595 -0.5905
  163SOPE  H12Y18342   3.836   2.348   9.027  1.4416 -0.8730  1.3902
  163SOPE  C31318343   3.941   2.479   8.877  1.2033 -0.5731  0.4699
  163SOPE  H13X18344   4.036   2.426   8.851  1.8908  1.6664 -1.9868
  163SOPE  H13Y18345   3.959   2.588   8.887  2.6025 -0.7503  0.1036
  163SOPE  C31418346   3.845   2.450   8.763  0.8368  0.6227 -0.2768
  163SOPE  H14X18347   3.746   2.478   8.803  1.3363 -1.4341  2.7991
  163SOPE  H14Y18348   3.852   2.339   8.759  1.1069  0.6626 -1.0418
  163SOPE  C31518349   3.880   2.519   8.632  0.1219 -0.1678 -1.3284
  163SOPE  H15X18350   3.984   2.485   8.613 -0.1606 -1.0189 -1.4269
  163SOPE  H15Y18351   3.878   2.630   8.634  1.4317 -0.1483 -0.0138
  163SOPE  C31618352   3.791   2.482   8.513 -0.7474 -0.0610 -0.6102
  163SOPE  H16X18353   3.837   2.546   8.435  1.5031  1.5145  1.8144
  163SOPE  H16Y18354   3.686   2.516   8.530 -0.2186  0.7575  1.4374
  163SOPE  C31718355   3.794   2.336   8.470  0.4288 -0.6696 -0.0343
  163SOPE  H17X18356   3.762   2.279   8.560  0.2921  0.6509  0.7949
  163SOPE  H17Y18357   3.899   2.309   8.445  1.9178 -0.1845  4.6617
  163SOPE  C31818358   3.694   2.304   8.364 -0.3078  0.1162  0.1847
  163SOPE  H18X18359   3.678   2.194   8.363  1.3878 -0.1568  0.8191
  163SOPE  H18Y18360   3.727   2.341   8.264  0.3379 -1.4925 -0.2369
  163SOPE  H18Z18361   3.592   2.346   8.379 -0.5330 -0.9500  1.8801
  164SOPE     N18362   5.500   1.310  10.274  0.1356  0.0185 -0.4714
  164SOPE   HN118363   5.561   1.285  10.355 -1.5393 -0.7251  0.6091
  164SOPE   HN218364   5.414   1.252  10.262 -1.3986  2.3308 -1.2341
  164SOPE   HN318365   5.557   1.292  10.189 -2.3442 -0.1659 -2.2000
  164SOPE   C1218366   5.471   1.456  10.288  0.4204  0.0643 -0.0072
  164SOPE  H12A18367   5.422   1.476  10.386 -0.2307  1.4221 -0.5808
  164SOPE  H12B18368   5.396   1.486  10.212 -0.4418  1.3392  1.2923
  164SOPE   C1118369   5.594   1.539  10.271 -0.3581 -1.0316  0.0643
  164SOPE  H11A18370   5.577   1.648  10.282  1.3080 -0.5809 -1.3230
  164SOPE  H11B18371   5.633   1.525  10.168 -1.7313 -0.1855 -0.6060
  164SOPE     P18372   5.808   1.586  10.408  0.0684 -0.0166  0.0558
  164SOPE   O1318373   5.910   1.515  10.486  0.5258  0.3007  0.0151
  164SOPE   O1418374   5.757   1.713  10.464  0.0543 -0.1223  0.1377
  164SOPE   O1218375   5.687   1.497  10.365  0.2697 -0.4126 -0.2769
  164SOPE   O1118376   5.875   1.608  10.272  0.5481  0.2090 -0.4945
  164SOPE    C118377   5.974   1.702  10.237 -0.1901 -0.1563  0.0256
  164SOPE    HA18378   6.011   1.770  10.317  0.4724  1.9414 -1.9525
  164SOPE    HB18379   5.930   1.766  10.158  1.3839  0.1981 -0.6137
  164SOPE    C218380   6.100   1.633  10.185 -0.2530  1.1059  0.3304
  164SOPE    HS18381   6.179   1.710  10.188 -0.9976  1.8686  0.5788
  164SOPE   O2118382   6.085   1.592  10.052 -0.4494  0.2827  0.5054
  164SOPE   C2118383   6.068   1.683   9.955 -0.6011 -0.1720  0.1084
  164SOPE   O2218384   6.089   1.806   9.965 -1.1149  0.3540 -0.3685
  164SOPE   C2218385   6.015   1.612   9.823  0.3000 -0.1951  0.6516
  164SOPE   H2R18386   6.038   1.692   9.749  1.2037  0.1992  1.3358
  164SOPE   H2S18387   5.905   1.603   9.829  0.2182  1.3082  2.0234
  164SOPE    C318388   6.142   1.498  10.266  0.8200 -0.7828  0.5895
  164SOPE    HX18389   6.050   1.439  10.289  0.8902  0.0937  3.6156
  164SOPE    HY18390   6.182   1.522  10.367  1.6908  2.1836 -0.3876
  164SOPE   O3118391   6.247   1.430  10.201 -0.6297  0.1763  0.1509
  164SOPE   C3118392   6.213   1.338  10.109 -0.2374 -0.8226 -0.1497
  164SOPE   O3218393   6.101   1.288  10.092  0.2972 -0.1248  0.4625
  164SOPE   C3218394   6.345   1.292  10.040 -0.3697  0.1643 -0.2074
  164SOPE   H2X18395   6.402   1.253  10.127 -1.1157 -2.2016 -0.7055
  164SOPE   H2Y18396   6.389   1.385   9.998 -0.1169 -0.2070 -0.7752
  164SOPE   C2318397   6.097   1.484   9.789  0.1030  0.7379 -0.2951
  164SOPE   H3R18398   6.069   1.395   9.848 -0.0065  1.3057  0.5311
  164SOPE   H3S18399   6.196   1.514   9.829  1.1260 -0.1994 -2.0224
  164SOPE   C2418400   6.118   1.444   9.648  0.3245  0.0747 -0.5435
  164SOPE   H4R18401   6.137   1.531   9.581 -0.1508  0.1249 -0.6180
  164SOPE   H4S18402   6.208   1.379   9.640  0.0068 -0.6709  1.4721
  164SOPE   C2518403   6.002   1.363   9.583 -0.6217  0.9172 -0.0350
  164SOPE   H5R18404   5.990   1.282   9.658  1.0415 -0.3945 -1.1141
  164SOPE   H5S18405   5.910   1.424   9.572 -0.8251  1.3407  3.0928
  164SOPE   C2618406   6.049   1.319   9.449 -0.3773  0.2359 -0.0526
  164SOPE   H6R18407   6.084   1.404   9.387 -0.3323  0.7645  0.6827
  164SOPE   H6S18408   6.141   1.259   9.461  0.3919  1.2051 -0.9167
  164SOPE   C2718409   5.945   1.236   9.375 -0.5818  0.1288 -0.2168
  164SOPE   H7R18410   5.910   1.148   9.433  0.7711 -0.7479 -0.6904
  164SOPE   H7S18411   5.853   1.297   9.382 -1.3368 -1.0887  1.3475
  164SOPE   C2818412   5.995   1.193   9.230 -0.2809  0.6484 -1.1917
  164SOPE   H8R18413   5.911   1.168   9.162  1.6130 -1.8661 -2.8130
  164SOPE   H8S18414   6.040   1.279   9.177  1.2770  1.3525  1.1355
  164SOPE   C2918415   6.099   1.079   9.230  0.4999 -0.0112 -0.3993
  164SOPE   H9118416   6.174   1.087   9.311 -1.0387  2.7171  0.9463
  164SOPE  C21018417   6.095   0.967   9.156 -0.6054  0.6828  0.1899
  164SOPE  H10118418   6.178   0.896   9.169 -2.5755 -1.3447  2.6577
  164SOPE  C21118419   6.007   0.924   9.047 -0.3425 -0.0632  0.4657
  164SOPE  H11R18420   5.898   0.937   9.062  0.0537  3.5193  0.9909
  164SOPE  H11S18421   6.016   0.814   9.031  1.1199  0.2876 -1.3772
  164SOPE  C21218422   6.050   0.997   8.919 -0.3573 -0.3616 -0.4806
  164SOPE  H12R18423   6.035   1.106   8.934  0.4918 -0.3631  0.5456
  164SOPE  H12S18424   5.980   0.957   8.843  0.2402 -1.2742 -0.5769
  164SOPE  C21318425   6.195   0.967   8.880 -0.3436 -0.5425  0.3286
  164SOPE  H13R18426   6.209   0.858   8.896 -1.0575 -0.8560 -0.9742
  164SOPE  H13S18427   6.261   1.016   8.954  1.1532 -3.2790  0.9365
  164SOPE  C21418428   6.240   1.004   8.731 -0.1544 -0.1480 -0.4087
  164SOPE  H14R18429   6.174   0.942   8.667  0.1644  2.2895 -3.3285
  164SOPE  H14S18430   6.345   0.971   8.716  0.7954  2.6380 -0.4312
  164SOPE  C21518431   6.215   1.153   8.694  0.1400  0.4283 -0.3595
  164SOPE  H15R18432   6.290   1.216   8.745  0.8176 -1.0545  0.5456
  164SOPE  H15S18433   6.111   1.188   8.708  0.2420  0.4448  0.3862
  164SOPE  C21618434   6.252   1.156   8.551  0.0566  0.6089  0.0974
  164SOPE  H16R18435   6.173   1.105   8.492  0.1480 -1.4590  1.6352
  164SOPE  H16S18436   6.346   1.096   8.542 -0.7834 -0.9453  1.0989
  164SOPE  C21718437   6.278   1.293   8.492  0.4966 -0.7090  0.1932
  164SOPE  H17R18438   6.199   1.364   8.525  2.5998  0.6238  2.8071
  164SOPE  H17S18439   6.270   1.273   8.383 -1.8644 -1.6438  0.4767
  164SOPE  C21818440   6.411   1.353   8.539 -0.1200 -0.0738 -1.0827
  164SOPE  H18R18441   6.470   1.395   8.454  0.9120 -0.9678 -0.8372
  164SOPE  H18S18442   6.475   1.274   8.584 -0.4066  0.6605  0.6785
  164SOPE  H18T18443   6.402   1.426   8.622  1.2416 -1.6716  0.5404
  164SOPE   C3318444   6.342   1.177   9.947  0.4704  0.3620  0.0720
  164SOPE   H3X18445   6.288   1.209   9.855 -1.2643  0.3018  1.0144
  164SOPE   H3Y18446   6.279   1.102  10.000  1.2419  0.2842  0.9081
  164SOPE   C3418447   6.482   1.115   9.916  0.1208  0.6700  0.2001
  164SOPE   H4X18448   6.523   1.084  10.015 -1.8578  1.5734  1.3560
  164SOPE   H4Y18449   6.541   1.193   9.865 -0.5857  1.1409  0.0974
  164SOPE   C3518450   6.464   0.995   9.827 -0.4692  0.1867  0.3559
  164SOPE   H5X18451   6.409   1.012   9.732  0.8248 -1.3112 -0.7076
  164SOPE   H5Y18452   6.401   0.919   9.878  2.6485 -2.0005  1.2520
  164SOPE   C3618453   6.592   0.923   9.795  0.3231  0.1216 -0.4322
  164SOPE   H6X18454   6.651   0.923   9.889  0.2059 -0.1372 -0.3584
  164SOPE   H6Y18455   6.658   0.977   9.724 -0.6239 -0.6834 -1.9649
  164SOPE   C3718456   6.550   0.789   9.734 -0.7502 -0.2701  0.4567
  164SOPE   H7X18457   6.474   0.805   9.653  0.5267 -1.6818 -1.0773
  164SOPE   H7Y18458   6.493   0.728   9.807 -2.1178  0.1706 -0.1928
  164SOPE   C3818459   6.671   0.700   9.684 -0.3393 -0.8452  0.0427
  164SOPE   H8X18460   6.650   0.591   9.690  0.5779 -1.1234 -1.4861
  164SOPE   H8Y18461   6.754   0.726   9.753  0.8443 -0.9448 -1.3117
  164SOPE   C3918462   6.709   0.741   9.538  0.1351 -0.1627  0.0224
  164SOPE   H9X18463   6.819   0.734   9.541  0.0620 -1.2406  0.9392
  164SOPE   H9Y18464   6.687   0.849   9.526  0.8329 -0.2702 -2.6348
  164SOPE  C31018465   6.654   0.653   9.430 -0.4237 -0.6405  0.1044
  164SOPE  H10X18466   6.543   0.652   9.434 -0.4424  1.4309  1.0726
  164SOPE  H10Y18467   6.712   0.558   9.429 -0.8883 -0.9312  0.1252
  164SOPE  C31118468   6.675   0.713   9.291  0.2769  0.4343 -0.4212
  164SOPE  H11X18469   6.772   0.761   9.267  1.3525 -1.3659  0.1447
  164SOPE  H11Y18470   6.600   0.794   9.281  0.0640 -0.0094 -3.6706
  164SOPE  C31218471   6.663   0.612   9.175 -0.3408 -0.0923 -0.1152
  164SOPE  H12X18472   6.591   0.533   9.204  0.8498 -0.8832  0.8435
  164SOPE  H12Y18473   6.766   0.570   9.167 -0.4451 -0.1704 -1.1511
  164SOPE  C31318474   6.608   0.676   9.048  0.1701 -0.7519  0.1534
  164SOPE  H13X18475   6.687   0.749   9.019 -0.7449 -0.2354 -1.1849
  164SOPE  H13Y18476   6.511   0.728   9.064  0.6027  0.9017 -2.0929
  164SOPE  C31418477   6.581   0.568   8.939  0.8217  0.0662 -0.1338
  164SOPE  H14X18478   6.482   0.520   8.959  2.3011 -3.5965 -0.6948
  164SOPE  H14Y18479   6.663   0.493   8.946  2.0684  1.4951  1.2821
  164SOPE  C31518480   6.581   0.607   8.792  0.4571  0.2332  0.8327
  164SOPE  H15X18481   6.509   0.691   8.781  1.9665  1.2990 -1.6295
  164SOPE  H15Y18482   6.552   0.526   8.722  1.1874 -0.2495  1.0758
  164SOPE  C31618483   6.716   0.664   8.741 -0.6754 -0.0676  0.0781
  164SOPE  H16X18484   6.789   0.582   8.725 -2.0938 -1.6189  1.2016
  164SOPE  H16Y18485   6.756   0.745   8.806  0.5811 -0.4167 -0.2443
  164SOPE  C31718486   6.703   0.744   8.601 -0.4519 -0.4469  0.5240
  164SOPE  H17X18487   6.646   0.834   8.630  1.3567  0.9792 -0.1558
  164SOPE  H17Y18488   6.633   0.682   8.541 -0.7786  1.6435 -1.3650
  164SOPE  C31818489   6.836   0.772   8.540 -0.1531  0.2352  0.7243
  164SOPE  H18X18490   6.898   0.692   8.495 -2.7295 -0.3540 -2.0862
  164SOPE  H18Y18491   6.900   0.824   8.615 -1.4299 -0.4875  2.4002
  164SOPE  H18Z18492   6.816   0.850   8.463  0.9274  0.1872  0.3835
  165SOPE     N18493   0.716   1.196  11.038 -0.1188 -0.0988  0.4809
  165SOPE   HN118494   0.669   1.145  11.116 -0.3557  0.0841  0.4606
  165SOPE   HN218495   0.654   1.218  10.957  0.4759  0.2334  0.1104
  165SOPE   HN318496   0.793   1.135  11.004 -0.1828  0.2070 -0.2303
  165SOPE   C1218497   0.778   1.324  11.094 -0.0566  0.3985 -0.3454
  165SOPE  H12A18498   0.858   1.282  11.159 -1.4973 -1.4737  0.2912
  165SOPE  H12B18499   0.709   1.371  11.167  1.6326  0.2754  1.4080
  165SOPE   C1118500   0.828   1.428  10.985 -0.0648 -0.1036  0.7775
  165SOPE  H11A18501   0.860   1.513  11.049 -2.0627 -0.3878  2.2831
  165SOPE  H11B18502   0.739   1.460  10.926 -0.6946 -0.9354  1.2366
  165SOPE     P18503   0.928   1.341  10.760 -0.3681  0.0218  0.3461
  165SOPE   O1318504   0.829   1.236  10.746 -0.0466  0.1796 -0.3027
  165SOPE   O1418505   1.069   1.306  10.724 -0.2322  0.6934  0.6951
  165SOPE   O1218506   0.938   1.380  10.915 -0.0038 -0.4998  0.6328
  165SOPE   O1118507   0.885   1.472  10.684  0.3180  0.3456  0.0373
  165SOPE    C118508   0.762   1.492  10.610  0.2330  0.3610 -0.5276
  165SOPE    HA18509   0.766   1.594  10.565  1.3786  1.6774  2.2771
  165SOPE    HB18510   0.685   1.502  10.690 -0.1032 -0.8693 -0.6807
  165SOPE    C218511   0.732   1.393  10.493 -0.2257  0.3208 -0.0462
  165SOPE    HS18512   0.778   1.294  10.516 -1.9908 -0.8971 -1.3950
  165SOPE   O2118513   0.787   1.450  10.378  0.0611 -0.0499 -0.7824
  165SOPE   C2118514   0.867   1.372  10.304  0.8639 -0.0268  0.7245
  165SOPE   O2218515   0.885   1.252  10.322  0.1546  0.2991 -0.3616
  165SOPE   C2218516   0.938   1.462  10.208 -0.4753 -0.3252  0.6826
  165SOPE   H2R18517   1.044   1.428  10.199 -0.3133  0.6324 -1.9888
  165SOPE   H2S18518   0.946   1.562  10.256 -1.0701  0.8150 -1.4738
  165SOPE    C318519   0.581   1.365  10.471 -0.3227  0.8005 -0.4269
  165SOPE    HX18520   0.530   1.460  10.444 -0.5133  1.1425  1.0677
  165SOPE    HY18521   0.539   1.332  10.568 -1.0036  0.5785 -0.7922
  165SOPE   O3118522   0.550   1.269  10.371  0.2925  0.4448  0.1779
  165SOPE   C3118523   0.441   1.200  10.396  0.6519  0.2211  0.7535
  165SOPE   O3218524   0.349   1.238  10.469 -0.2949  0.1088 -0.3793
  165SOPE   C3218525   0.429   1.075  10.307 -0.4314  0.4738  0.0253
  165SOPE   H2X18526   0.449   0.993  10.379  0.1139  0.1266 -0.5154
  165SOPE   H2Y18527   0.505   1.081  10.226 -1.4553 -3.3142 -1.4280
  165SOPE   C2318528   0.884   1.469  10.070  0.2473 -0.4688  0.6050
  165SOPE   H3R18529   0.779   1.505  10.081  0.7088  0.5497  2.0022
  165SOPE   H3S18530   0.885   1.375  10.010 -1.0449  0.2245 -0.5621
  165SOPE   C2418531   0.958   1.578   9.993  0.0617 -0.3670  0.3532
  165SOPE   H4R18532   0.988   1.654  10.069 -2.5112 -0.7095  1.8356
  165SOPE   H4S18533   1.052   1.550   9.942  1.7705 -0.1272  3.1686
  165SOPE   C2518534   0.872   1.634   9.877  0.0272  0.1041 -0.4589
  165SOPE   H5R18535   0.766   1.649   9.908  0.2339  0.2883  0.1644
  165SOPE   H5S18536   0.905   1.736   9.846  0.4656 -0.4107 -1.7631
  165SOPE   C2618537   0.870   1.541   9.752  0.1794 -0.1711 -0.0221
  165SOPE   H6R18538   0.974   1.533   9.712 -0.0542 -2.3440 -0.3551
  165SOPE   H6S18539   0.841   1.439   9.786  2.3793 -0.1887  2.0841
  165SOPE   C2718540   0.786   1.606   9.645  0.0007  0.0805 -0.2476
  165SOPE   H7R18541   0.684   1.597   9.687 -0.0256 -1.4031 -0.5846
  165SOPE   H7S18542   0.822   1.711   9.632  2.8180 -0.8350 -0.3815
  165SOPE   C2818543   0.782   1.541   9.504  0.1808 -0.3725  0.0298
  165SOPE   H8R18544   0.753   1.434   9.514 -0.6440  0.0141  2.3987
  165SOPE   H8S18545   0.694   1.576   9.446  0.1938 -0.5909 -0.1230
  165SOPE   C2918546   0.906   1.562   9.418  0.6404  0.7000 -0.2461
  165SOPE   H9118547   0.997   1.509   9.450  1.2092  1.9769  0.3017
  165SOPE  C21018548   0.918   1.661   9.323 -0.3609 -0.3544  0.0644
  165SOPE  H10118549   1.004   1.658   9.254  0.2321  0.3372  0.7549
  165SOPE  C21118550   0.807   1.753   9.272 -0.6193 -0.5852  0.7819
  165SOPE  H11R18551   0.842   1.858   9.268  1.4463 -1.2565 -1.3493
  165SOPE  H11S18552   0.717   1.747   9.336 -1.5326  0.0395 -0.3963
  165SOPE  C21218553   0.751   1.723   9.128  0.6195  0.0546 -0.2241
  165SOPE  H12R18554   0.679   1.804   9.102 -0.6359 -1.2499 -0.9011
  165SOPE  H12S18555   0.726   1.615   9.128  1.2400 -0.0968 -0.5507
  165SOPE  C21318556   0.858   1.741   9.016 -0.0525 -0.4885  0.5475
  165SOPE  H13R18557   0.945   1.679   9.045  1.7065  2.2091  1.3128
  165SOPE  H13S18558   0.883   1.848   9.002  0.0036 -0.2154  2.4705
  165SOPE  C21418559   0.807   1.688   8.881 -0.1613  0.2323  0.1533
  165SOPE  H14R18560   0.714   1.736   8.845 -0.3361 -1.2773 -1.5422
  165SOPE  H14S18561   0.780   1.581   8.887 -2.4485  0.7929  0.6385
  165SOPE  C21518562   0.916   1.716   8.768 -0.0924 -0.5304 -0.9417
  165SOPE  H15R18563   1.017   1.685   8.802  1.0112 -0.4829 -3.8473
  165SOPE  H15S18564   0.922   1.826   8.758  0.6512 -0.3451  1.1273
  165SOPE  C21618565   0.881   1.653   8.634 -0.2678  0.7384 -0.8266
  165SOPE  H16R18566   0.783   1.688   8.598 -0.1325  2.0593  0.0088
  165SOPE  H16S18567   0.878   1.542   8.643 -0.3788  0.8644  1.2555
  165SOPE  C21718568   0.988   1.688   8.539  0.3408 -0.1876 -0.0116
  165SOPE  H17R18569   1.076   1.623   8.562 -0.8792 -1.4785  1.1768
  165SOPE  H17S18570   1.015   1.794   8.559  3.6011 -1.3474  2.8076
  165SOPE  C21818571   0.942   1.666   8.397  0.5931  0.1791 -0.1958
  165SOPE  H18R18572   0.962   1.562   8.363 -1.5304 -0.0103 -1.0600
  165SOPE  H18S18573   1.004   1.739   8.339  1.4325 -1.1745 -1.0608
  165SOPE  H18T18574   0.831   1.675   8.393  0.3229 -1.7444  1.3380
  165SOPE   C3318575   0.291   1.043  10.253  0.2530 -0.3788  0.1865
  165SOPE   H3X18576   0.222   1.064  10.338  2.7597 -0.6552  2.4171
  165SOPE   H3Y18577   0.279   0.939  10.214 -0.8290 -0.0075 -0.5271
  165SOPE   C3418578   0.245   1.149  10.139 -0.0658  0.0428 -0.1546
  165SOPE   H4X18579   0.315   1.235  10.136 -0.3211  0.3431  1.3308
  165SOPE   H4Y18580   0.155   1.199  10.180  1.5004  2.4122  0.6594
  165SOPE   C3518581   0.227   1.090  10.001 -0.5562  0.4786 -0.4828
  165SOPE   H5X18582   0.172   0.994  10.002  0.2399 -0.0340 -1.7871
  165SOPE   H5Y18583   0.327   1.063   9.959 -0.0217 -1.1352  1.6760
  165SOPE   C3618584   0.141   1.169   9.910 -0.3554  0.5914  0.5555
  165SOPE   H6X18585   0.185   1.269   9.892  1.4441 -0.2542  0.0796
  165SOPE   H6Y18586   0.038   1.188   9.947 -0.7047 -0.1964  0.0042
  165SOPE   C3718587   0.129   1.094   9.775 -0.0582  0.7661  0.1325
  165SOPE   H7X18588   0.079   0.995   9.781  0.3797  0.4489 -1.0720
  165SOPE   H7Y18589   0.231   1.071   9.737  0.6677  2.3977  1.0121
  165SOPE   C3818590   0.068   1.185   9.671 -0.0678 -1.0232  0.4867
  165SOPE   H8X18591   0.138   1.263   9.635 -0.9818 -0.0163  0.8442
  165SOPE   H8Y18592  -0.027   1.224   9.716 -0.2039 -1.2651  0.4134
  165SOPE   C3918593   0.039   1.109   9.535  0.5251  0.3043 -0.3638
  165SOPE   H9X18594  -0.034   1.167   9.476  1.1356  0.5089 -0.9337
  165SOPE   H9Y18595  -0.003   1.007   9.546  1.1827 -0.0225 -0.8261
  165SOPE  C31018596   0.165   1.125   9.449 -0.4549  0.3795 -0.1284
  165SOPE  H10X18597   0.255   1.075   9.490 -3.2224 -2.6913  2.7617
  165SOPE  H10Y18598   0.181   1.233   9.426 -2.3913  0.5266 -0.9395
  165SOPE  C31118599   0.149   1.059   9.312  0.5645  0.3348 -0.2156
  165SOPE  H11X18600   0.104   0.958   9.315 -0.9908  0.9935 -0.2978
  165SOPE  H11Y18601   0.249   1.053   9.265  1.2641 -0.8327  1.3393
  165SOPE  C31218602   0.050   1.147   9.229 -0.1525  0.9095  0.0024
  165SOPE  H12X18603   0.088   1.250   9.241  0.0122  0.8722 -0.1841
  165SOPE  H12Y18604  -0.044   1.140   9.287 -0.3018  1.0956 -0.2155
  165SOPE  C31318605   0.027   1.121   9.082 -0.3065  0.7361 -0.5481
  165SOPE  H13X18606  -0.003   1.014   9.077  0.4302  0.5171 -0.4779
  165SOPE  H13Y18607   0.117   1.142   9.020  1.1657  1.7427  1.7963
  165SOPE  C31418608  -0.073   1.211   9.025  0.5585  0.2434  0.3268
  165SOPE  H14X18609  -0.087   1.213   8.915  0.3078  0.6674  0.3656
  165SOPE  H14Y18610  -0.038   1.314   9.048  2.4568 -0.4221  0.5973
  165SOPE  C31518611  -0.216   1.197   9.085  0.6546 -0.6775 -0.0224
  165SOPE  H15X18612  -0.278   1.274   9.035  1.5885  0.2514  0.2046
  165SOPE  H15Y18613  -0.216   1.236   9.189 -1.9458  0.7464 -0.4955
  165SOPE  C31618614  -0.280   1.061   9.077 -0.2317  0.5843  0.8919
  165SOPE  H16X18615  -0.210   0.982   9.111 -0.0566 -0.4422 -1.5821
  165SOPE  H16Y18616  -0.299   1.041   8.969 -1.7843  1.3539  0.9843
  165SOPE  C31718617  -0.406   1.040   9.157  0.1298  0.4879 -0.0292
  165SOPE  H17X18618  -0.434   0.933   9.144  0.1796  0.5161 -0.3728
  165SOPE  H17Y18619  -0.495   1.095   9.121 -0.8980 -1.5895 -0.8245
  165SOPE  C31818620  -0.387   1.069   9.302 -0.6162  0.0089 -0.1752
  165SOPE  H18X18621  -0.476   1.027   9.353 -2.6402  3.1687 -0.7974
  165SOPE  H18Y18622  -0.394   1.179   9.316 -0.3192 -0.0115  0.1644
  165SOPE  H18Z18623  -0.286   1.038   9.338 -1.0350 -2.1485 -0.7149
  166SOPE     N18624   3.018   1.347  10.527  0.4667  0.1702 -0.3185
  166SOPE   HN118625   2.933   1.402  10.504 -0.1447 -1.0036 -0.9806
  166SOPE   HN218626   3.008   1.257  10.476  0.4002 -0.3793  0.6535
  166SOPE   HN318627   3.019   1.332  10.630  0.2284 -0.4317 -0.3992
  166SOPE   C1218628   3.139   1.427  10.494  0.6130 -0.7234 -0.0875
  166SOPE  H12A18629   3.138   1.441  10.383  0.8062 -0.0442 -0.0084
  166SOPE  H12B18630   3.224   1.362  10.522 -0.5947 -2.3172 -0.0151
  166SOPE   C1118631   3.132   1.570  10.567 -0.5304 -0.5724  1.0130
  166SOPE  H11A18632   3.227   1.624  10.547 -0.0502 -1.6761  0.1831
  166SOPE  H11B18633   3.118   1.550  10.675 -0.8940  2.1324  1.5431
  166SOPE     P18634   3.003   1.793  10.585  0.1670  0.1006  0.0127
  166SOPE   O1318635   3.139   1.839  10.604 -0.1399  0.2748 -0.1759
  166SOPE   O1418636   2.902   1.812  10.691  0.4149 -0.0885 -0.1032
  166SOPE   O1218637   3.012   1.641  10.542 -0.2721 -0.3133  0.4699
  166SOPE   O1118638   2.945   1.845  10.454 -0.5801 -0.4524 -0.1984
  166SOPE    C118639   2.807   1.818  10.415  0.2231  0.0107  1.0300
  166SOPE    HA18640   2.725   1.890  10.436 -1.2828 -1.2235 -0.3764
  166SOPE    HB18641   2.768   1.728  10.469  3.9926 -1.2834  1.9150
  166SOPE    C218642   2.796   1.783  10.259  0.1219  0.6536  0.2611
  166SOPE    HS18643   2.882   1.716  10.234 -0.0847  0.5538 -0.2007
  166SOPE   O2118644   2.798   1.904  10.183 -0.4644 -0.1793  0.0584
  166SOPE   C2118645   2.911   1.937  10.145 -0.3815 -0.7234  0.2717
  166SOPE   O2218646   3.021   1.897  10.178  0.2450  0.3053  0.1777
  166SOPE   C2218647   2.896   2.044  10.030 -0.0948  1.0185  0.6965
  166SOPE   H2R18648   2.946   2.139  10.061  1.1168  0.9846 -0.9841
  166SOPE   H2S18649   2.788   2.068  10.029 -0.9467 -2.2629  2.0482
  166SOPE    C318650   2.661   1.714  10.227 -0.0062  0.9541  0.5349
  166SOPE    HX18651   2.578   1.769  10.275 -0.7632 -0.4995  0.9654
  166SOPE    HY18652   2.667   1.618  10.283  0.0045  1.7073  1.8562
  166SOPE   O3118653   2.662   1.685  10.082  0.1490  0.3769 -0.0119
  166SOPE   C3118654   2.611   1.782  10.008 -0.5595 -0.0084  0.8723
  166SOPE   O3218655   2.563   1.883  10.044  0.1150 -0.7114  0.2161
  166SOPE   C3218656   2.624   1.741   9.859 -0.6340 -0.2018 -0.1996
  166SOPE   H2X18657   2.547   1.661   9.856  0.6371 -1.5616  1.7211
  166SOPE   H2Y18658   2.723   1.693   9.846 -1.3805 -3.0217  3.1118
  166SOPE   C2318659   2.956   1.998   9.893  0.1564  0.3955 -0.3162
  166SOPE   H3R18660   2.913   1.903   9.854  2.4992 -0.7288 -0.3379
  166SOPE   H3S18661   3.065   1.991   9.912  0.2188  0.7950 -0.5095
  166SOPE   C2418662   2.922   2.101   9.789  0.0911  0.1189 -0.3665
  166SOPE   H4R18663   2.812   2.099   9.779 -0.2029 -0.1121  2.1947
  166SOPE   H4S18664   2.952   2.204   9.819  1.2530 -1.0210  2.9425
  166SOPE   C2518665   2.997   2.084   9.652 -0.2238  0.0876 -0.0103
  166SOPE   H5R18666   3.099   2.118   9.678  0.6433 -3.1481  1.3288
  166SOPE   H5S18667   3.010   1.975   9.634 -0.4565  0.0922 -0.2133
  166SOPE   C2618668   2.932   2.160   9.535 -0.6092 -0.1651 -0.9493
  166SOPE   H6R18669   2.831   2.188   9.573 -0.0779  0.5957 -0.0459
  166SOPE   H6S18670   2.984   2.256   9.518 -0.8709  0.2882  0.6159
  166SOPE   C2718671   2.931   2.073   9.408 -0.0121  0.0742  0.3047
  166SOPE   H7R18672   3.026   2.016   9.399  0.3961  0.7027  0.5111
  166SOPE   H7S18673   2.849   1.999   9.408 -0.6976  0.8188  0.9145
  166SOPE   C2818674   2.907   2.152   9.274 -0.2738 -0.2651 -0.0162
  166SOPE   H8R18675   2.888   2.074   9.197  0.3013  0.3862 -0.8440
  166SOPE   H8S18676   2.814   2.209   9.295  0.3163  0.5333  0.5041
  166SOPE   C2918677   3.017   2.249   9.240 -0.6831  0.0323 -0.0982
  166SOPE   H9118678   3.041   2.324   9.317  1.4880 -0.1812 -0.5122
  166SOPE  C21018679   3.081   2.271   9.118  0.7747 -0.3203 -0.3977
  166SOPE  H10118680   3.162   2.345   9.105  0.1787  0.1713 -1.3764
  166SOPE  C21118681   3.062   2.198   8.983 -0.1479  0.4555  0.0257
  166SOPE  H11R18682   3.027   2.094   9.001  0.7965  0.3755  1.5080
  166SOPE  H11S18683   3.154   2.187   8.921  0.3384  0.6292  0.7099
  166SOPE  C21218684   2.949   2.252   8.892  0.4039  0.1124 -0.3343
  166SOPE  H12R18685   2.981   2.355   8.865 -1.1602 -0.2484 -4.3243
  166SOPE  H12S18686   2.854   2.245   8.949  1.2861 -1.7523  1.0169
  166SOPE  C21318687   2.916   2.187   8.755 -0.0309 -0.0341  0.2357
  166SOPE  H13R18688   2.873   2.087   8.779  1.3998 -0.8439 -0.4440
  166SOPE  H13S18689   2.998   2.187   8.680 -2.1774  4.9191 -2.5726
  166SOPE  C21418690   2.805   2.265   8.693 -0.2504 -0.1414 -0.0285
  166SOPE  H14R18691   2.777   2.223   8.594 -5.0022  1.9145  0.1579
  166SOPE  H14S18692   2.847   2.363   8.662  0.2832 -0.2515  0.3348
  166SOPE  C21518693   2.672   2.278   8.764 -0.4765 -0.2394 -0.5067
  166SOPE  H15R18694   2.655   2.195   8.836 -0.9406 -0.9982 -1.4737
  166SOPE  H15S18695   2.595   2.269   8.685  0.1436 -0.3035 -1.1098
  166SOPE  C21618696   2.637   2.419   8.808  0.1976 -0.8798  0.0114
  166SOPE  H16R18697   2.676   2.482   8.726  2.3123 -0.0964  1.5298
  166SOPE  H16S18698   2.684   2.454   8.902  0.1420  0.7736 -0.5512
  166SOPE  C21718699   2.490   2.442   8.837  0.3731 -0.2665 -0.1486
  166SOPE  H17R18700   2.453   2.366   8.909 -0.5228 -0.8152 -1.1609
  166SOPE  H17S18701   2.436   2.419   8.743 -0.8529 -0.9020  0.6832
  166SOPE  C21818702   2.443   2.578   8.876 -0.1702 -0.7267 -0.3100
  166SOPE  H18R18703   2.482   2.657   8.808  0.8059 -0.0436  0.9816
  166SOPE  H18S18704   2.483   2.604   8.977  1.6117 -0.8107 -0.9578
  166SOPE  H18T18705   2.332   2.587   8.885  0.0861  0.7377  3.7476
  166SOPE   C3318706   2.597   1.854   9.759  0.2890 -0.4908 -0.0114
  166SOPE   H3X18707   2.662   1.943   9.775 -0.3406  0.4260 -2.2067
  166SOPE   H3Y18708   2.493   1.893   9.770  0.6974  1.9425 -3.3080
  166SOPE   C3418709   2.600   1.809   9.611  0.0590 -0.1805 -0.1487
  166SOPE   H4X18710   2.546   1.714   9.591  3.1379 -1.5028 -3.2983
  166SOPE   H4Y18711   2.705   1.772   9.608 -0.6315 -2.5343  1.3180
  166SOPE   C3518712   2.580   1.924   9.515 -0.0043 -0.3449  0.2784
  166SOPE   H5X18713   2.643   2.013   9.534  3.1144 -2.2009 -0.6247
  166SOPE   H5Y18714   2.473   1.955   9.525 -0.0957  0.0988 -1.7135
  166SOPE   C3618715   2.618   1.875   9.375  0.4698  0.5254  0.5331
  166SOPE   H6X18716   2.566   1.780   9.351 -0.4576  1.1495  0.0246
  166SOPE   H6Y18717   2.725   1.847   9.361 -0.2270 -1.8721 -0.3930
  166SOPE   C3718718   2.588   1.971   9.264  0.5473 -0.1855 -0.1616
  166SOPE   H7X18719   2.662   2.052   9.282  0.8975 -0.7386  0.9720
  166SOPE   H7Y18720   2.490   2.022   9.269  0.1563 -1.0388  1.6053
  166SOPE   C3818721   2.612   1.919   9.119 -0.3800  0.5175  0.0224
  166SOPE   H8X18722   2.605   2.004   9.048 -1.3700 -2.7611 -4.2532
  166SOPE   H8Y18723   2.533   1.845   9.093 -2.1072  1.0504  3.1855
  166SOPE   C3918724   2.745   1.844   9.093  0.9406  0.0548 -0.4086
  166SOPE   H9X18725   2.733   1.735   9.113 -1.0154  0.4126  0.6569
  166SOPE   H9Y18726   2.820   1.876   9.168 -0.1170 -0.1232  0.7624
  166SOPE  C31018727   2.802   1.872   8.957 -0.5154 -0.1323  0.4320
  166SOPE  H10X18728   2.912   1.859   8.948 -0.5020 -0.3595  0.8999
  166SOPE  H10Y18729   2.781   1.976   8.926  0.0788 -0.1884 -0.1818
  166SOPE  C31118730   2.739   1.776   8.860  0.3014  0.3593  0.0011
  166SOPE  H11X18731   2.628   1.779   8.863  0.1691 -2.0249  2.9775
  166SOPE  H11Y18732   2.745   1.667   8.881 -1.6578  0.3832  0.8558
  166SOPE  C31218733   2.785   1.790   8.712  0.2449  0.1828 -0.5342
  166SOPE  H12X18734   2.896   1.778   8.710 -0.0651 -3.9850 -0.0366
  166SOPE  H12Y18735   2.766   1.890   8.668 -0.3536  0.2040 -0.2358
  166SOPE  C31318736   2.719   1.689   8.615  0.1000  0.2881  0.5693
  166SOPE  H13X18737   2.611   1.686   8.639  0.1147  0.0444  0.6121
  166SOPE  H13Y18738   2.758   1.586   8.633 -0.3716 -0.3795 -1.8464
  166SOPE  C31418739   2.739   1.723   8.459 -0.0610  0.6384  0.0713
  166SOPE  H14X18740   2.850   1.728   8.448  0.3724 -3.3260  1.2112
  166SOPE  H14Y18741   2.693   1.822   8.440 -1.6716 -0.0560  0.1850
  166SOPE  C31518742   2.675   1.615   8.374 -0.3449 -0.5614 -0.6950
  166SOPE  H15X18743   2.611   1.660   8.295 -0.9715  0.5783  0.4369
  166SOPE  H15Y18744   2.612   1.545   8.432 -0.8012 -1.3293 -2.0750
  166SOPE  C31618745   2.788   1.531   8.300  0.1130 -0.4781 -0.4668
  166SOPE  H16X18746   2.851   1.468   8.366 -0.6216  0.1524  0.8791
  166SOPE  H16Y18747   2.842   1.608   8.241  0.1273 -0.8115 -0.8927
  166SOPE  C31718748   2.722   1.415   8.209 -0.5098  0.8141  0.0101
  166SOPE  H17X18749   2.677   1.353   8.289  0.9045 -0.4509 -0.1224
  166SOPE  H17Y18750   2.806   1.355   8.169 -0.3159 -0.1523  1.7934
  166SOPE  C31818751   2.619   1.453   8.104 -0.1680 -0.3818  0.5548
  166SOPE  H18X18752   2.660   1.529   8.034 -0.7830 -2.1999 -1.9377
  166SOPE  H18Y18753   2.529   1.495   8.154 -0.6007  1.4900 -1.6473
  166SOPE  H18Z18754   2.595   1.363   8.043  0.7824 -0.8613  0.8549
  167SOPE     N18755   2.722   2.404   6.107  0.3463 -0.2344 -0.3163
  167SOPE   HN118756   2.763   2.433   6.198 -0.1536  2.4244 -0.8523
  167SOPE   HN218757   2.802   2.420   6.043  0.4587  2.0995  0.3088
  167SOPE   HN318758   2.656   2.478   6.073 -1.4054 -1.8164 -0.5404
  167SOPE   C1218759   2.655   2.273   6.114  0.2869 -0.1024 -0.4213
  167SOPE  H12A18760   2.632   2.244   6.008 -2.2424  0.7094 -0.1742
  167SOPE  H12B18761   2.566   2.273   6.180  0.6709 -2.1244  0.1606
  167SOPE   C1118762   2.741   2.157   6.157 -0.0951  0.1842  0.0095
  167SOPE  H11A18763   2.685   2.063   6.136  0.5477 -0.5583  1.4645
  167SOPE  H11B18764   2.761   2.157   6.267  0.5013  1.8238 -0.0759
  167SOPE     P18765   3.007   2.169   6.151 -0.2835 -0.0041  0.7483
  167SOPE   O1318766   3.103   2.221   6.048  0.2796  0.1473 -0.2295
  167SOPE   O1418767   3.042   2.047   6.221  0.3288  0.6635 -0.1536
  167SOPE   O1218768   2.867   2.148   6.088 -0.2771 -0.2118 -0.7397
  167SOPE   O1118769   2.985   2.286   6.256  0.0117  0.4008 -0.4947
  167SOPE    C118770   3.092   2.335   6.330 -0.3832 -0.5399  0.0606
  167SOPE    HA18771   3.078   2.439   6.367  0.9317 -0.9169  1.7701
  167SOPE    HB18772   3.189   2.346   6.278 -0.8434  0.8851 -0.5520
  167SOPE    C218773   3.112   2.257   6.467 -0.2288  0.6463  0.0661
  167SOPE    HS18774   3.176   2.169   6.444 -0.6796  0.0945  0.9033
  167SOPE   O2118775   2.983   2.220   6.515 -0.1628  0.2176 -0.4348
  167SOPE   C2118776   2.973   2.100   6.580  0.8764  0.1284  0.3971
  167SOPE   O2218777   3.062   2.022   6.595 -0.4082  0.5812 -0.4953
  167SOPE   C2218778   2.827   2.084   6.635  0.1050 -0.4308  0.1717
  167SOPE   H2R18779   2.833   1.997   6.704  1.5072 -1.3354 -1.0249
  167SOPE   H2S18780   2.758   2.072   6.549 -1.3582 -1.1915  1.4017
  167SOPE    C318781   3.191   2.348   6.567  0.4544 -0.4814  0.5290
  167SOPE    HX18782   3.129   2.440   6.580 -4.0037 -3.4970  3.4584
  167SOPE    HY18783   3.287   2.374   6.517 -0.0325  0.3763  0.0135
  167SOPE   O3118784   3.194   2.288   6.698 -0.1601  0.3638 -0.2574
  167SOPE   C3118785   3.298   2.205   6.708 -0.0310  0.1420  0.8543
  167SOPE   O3218786   3.375   2.188   6.610 -0.3287  0.4132  0.4556
  167SOPE   C3218787   3.296   2.130   6.837 -0.5304  0.6999  0.6238
  167SOPE   H2X18788   3.210   2.060   6.826 -1.3026  1.4873  1.4798
  167SOPE   H2Y18789   3.287   2.194   6.928  1.9658  2.6119 -0.3384
  167SOPE   C2318790   2.774   2.201   6.723 -0.6791  0.0140 -0.6310
  167SOPE   H3R18791   2.674   2.176   6.765 -0.7836  0.9648 -0.2803
  167SOPE   H3S18792   2.756   2.292   6.661  0.8958  0.9602  0.2433
  167SOPE   C2418793   2.874   2.229   6.840 -0.4693 -0.4339  0.4656
  167SOPE   H4R18794   2.877   2.138   6.904  0.5916  0.6696  2.0211
  167SOPE   H4S18795   2.976   2.251   6.805 -0.9315 -0.6833 -1.1313
  167SOPE   C2518796   2.822   2.344   6.934 -0.5823 -0.1967  0.2775
  167SOPE   H5R18797   2.803   2.429   6.864  1.3302 -1.3568 -1.8254
  167SOPE   H5S18798   2.724   2.311   6.972 -0.6588  1.5836  1.7356
  167SOPE   C2618799   2.902   2.390   7.059  0.0154  0.2316 -0.6039
  167SOPE   H6R18800   2.930   2.307   7.128  0.2494  1.9899  1.5257
  167SOPE   H6S18801   2.996   2.435   7.020  1.5337 -2.5612 -0.4158
  167SOPE   C2718802   2.831   2.483   7.156 -0.2748 -0.1588 -0.4328
  167SOPE   H7R18803   2.792   2.566   7.094 -1.3392 -1.2185 -1.2123
  167SOPE   H7S18804   2.744   2.427   7.197  1.1792 -2.0707  0.2038
  167SOPE   C2818805   2.925   2.539   7.262  0.3144  0.0483  0.7105
  167SOPE   H8R18806   3.013   2.588   7.214 -1.0445  1.2871 -0.6435
  167SOPE   H8S18807   2.875   2.629   7.305  1.2112 -0.4010  2.7848
  167SOPE   C2918808   2.959   2.441   7.371  0.0377 -0.3365 -1.0650
  167SOPE   H9118809   3.057   2.391   7.363  1.3137  1.6614  0.7580
  167SOPE  C21018810   2.886   2.413   7.476  0.5724 -0.4961 -0.0735
  167SOPE  H10118811   2.916   2.330   7.542 -0.6958 -1.2766 -0.4253
  167SOPE  C21118812   2.757   2.478   7.508 -0.2742  0.0062  0.5222
  167SOPE  H11R18813   2.679   2.401   7.491 -0.9867  0.7399  0.3670
  167SOPE  H11S18814   2.738   2.573   7.452  0.3679 -1.7803 -2.9754
  167SOPE  C21218815   2.758   2.516   7.663  0.0912 -0.1281 -0.5308
  167SOPE  H12R18816   2.840   2.588   7.685  0.2246 -0.0811 -1.1609
  167SOPE  H12S18817   2.793   2.427   7.719 -3.6101 -0.1841  2.0257
  167SOPE  C21318818   2.620   2.563   7.713  0.6444 -0.6538 -0.1151
  167SOPE  H13R18819   2.555   2.473   7.711 -0.0767 -0.1573  0.4873
  167SOPE  H13S18820   2.561   2.630   7.646  0.2003  0.0590  0.9617
  167SOPE  C21418821   2.630   2.636   7.848 -0.3975 -0.0535 -0.3692
  167SOPE  H14R18822   2.529   2.660   7.886 -0.2914 -1.0372  0.5971
  167SOPE  H14S18823   2.668   2.740   7.833 -1.1573  0.2071 -0.5113
  167SOPE  C21518824   2.709   2.568   7.957  0.3414  1.0150  0.1458
  167SOPE  H15R18825   2.816   2.555   7.927  0.3035 -0.6179  0.6454
  167SOPE  H15S18826   2.669   2.472   7.995  1.2197 -0.0079 -1.4048
  167SOPE  C21618827   2.718   2.658   8.076 -0.5143 -0.2570 -0.5931
  167SOPE  H16R18828   2.613   2.688   8.098 -0.7206 -0.1239 -1.7133
  167SOPE  H16S18829   2.782   2.745   8.050 -1.6416  0.8517  0.2403
  167SOPE  C21718830   2.786   2.594   8.198  0.5522 -0.0252 -0.1551
  167SOPE  H17R18831   2.879   2.543   8.164 -0.2345 -2.0482  0.6322
  167SOPE  H17S18832   2.731   2.512   8.248 -0.4990  1.5998  1.4738
  167SOPE  C21818833   2.831   2.693   8.305  0.0437  0.3005  0.7235
  167SOPE  H18R18834   2.940   2.716   8.306  1.1207 -3.9791  0.1272
  167SOPE  H18S18835   2.798   2.649   8.401 -1.7440  0.1256  0.0682
  167SOPE  H18T18836   2.780   2.791   8.300  0.5346  0.5467  0.3370
  167SOPE   C3318837   3.426   2.047   6.853  0.2451  0.1039  0.0697
  167SOPE   H3X18838   3.454   1.995   6.759  2.4131  1.9134 -0.3778
  167SOPE   H3Y18839   3.403   1.965   6.924 -0.2440  0.4135  0.2759
  167SOPE   C3418840   3.543   2.136   6.911 -0.3425  0.0817  0.1940
  167SOPE   H4X18841   3.503   2.186   7.001 -0.7804 -0.4902  0.3247
  167SOPE   H4Y18842   3.572   2.216   6.839  1.3497 -0.8129 -0.1639
  167SOPE   C3518843   3.661   2.052   6.967  0.4422 -0.0406  0.3782
  167SOPE   H5X18844   3.754   2.113   6.965  0.8384 -0.6072  0.9927
  167SOPE   H5Y18845   3.680   1.970   6.895 -0.0570 -0.3376  0.5820
  167SOPE   C3618846   3.638   1.988   7.110 -0.1620  0.1280  0.7321
  167SOPE   H6X18847   3.717   1.912   7.130  0.0441 -0.2176 -1.1724
  167SOPE   H6Y18848   3.548   1.925   7.096  1.7864 -3.3899  2.4493
  167SOPE   C3718849   3.633   2.093   7.224 -0.1129 -0.5287 -0.0998
  167SOPE   H7X18850   3.574   2.183   7.197  0.3452  0.1801  1.1506
  167SOPE   H7Y18851   3.737   2.126   7.244 -0.3984 -0.8546  2.2096
  167SOPE   C3818852   3.578   2.034   7.348 -0.2034  0.7478 -0.0390
  167SOPE   H8X18853   3.625   1.933   7.352 -2.2126 -0.2041  1.4071
  167SOPE   H8Y18854   3.468   2.021   7.357  0.1370 -1.4999  2.0938
  167SOPE   C3918855   3.622   2.111   7.473  0.0230 -0.8204  0.1124
  167SOPE   H9X18856   3.595   2.218   7.461  2.0105 -0.1791  0.9261
  167SOPE   H9Y18857   3.731   2.107   7.494 -0.1377 -2.4771  0.8424
  167SOPE  C31018858   3.554   2.050   7.594 -0.7529 -0.4078  0.7402
  167SOPE  H10X18859   3.601   1.950   7.610  0.5939  0.2577  1.1240
  167SOPE  H10Y18860   3.446   2.033   7.573 -0.7610  1.3903 -0.9287
  167SOPE  C31118861   3.577   2.128   7.728 -0.7292 -0.1067 -0.3909
  167SOPE  H11X18862   3.526   2.226   7.738 -0.0605  0.2218 -0.1087
  167SOPE  H11Y18863   3.683   2.159   7.737  0.4423 -3.9431  1.2472
  167SOPE  C31218864   3.544   2.053   7.855 -0.2226  0.6304 -0.8884
  167SOPE  H12X18865   3.583   1.949   7.861 -0.5497  0.4112 -2.2713
  167SOPE  H12Y18866   3.435   2.032   7.862 -0.1045 -0.4879 -1.9845
  167SOPE  C31318867   3.596   2.106   7.993 -0.1846  0.0161 -0.1051
  167SOPE  H13X18868   3.563   2.211   8.004 -0.6016 -0.2639  1.5184
  167SOPE  H13Y18869   3.707   2.109   7.990 -0.1675  0.1646  0.5302
  167SOPE  C31418870   3.549   2.013   8.101 -0.0663 -0.6990  0.0954
  167SOPE  H14X18871   3.608   2.021   8.195 -0.0190  1.2551 -0.0515
  167SOPE  H14Y18872   3.564   1.910   8.063  0.2639 -0.7469  0.3560
  167SOPE  C31518873   3.400   2.038   8.132 -0.0671 -0.6882 -0.1069
  167SOPE  H15X18874   3.339   2.025   8.040 -1.4237 -1.2446  0.8276
  167SOPE  H15Y18875   3.382   2.143   8.164 -1.1489 -1.7450  3.2392
  167SOPE  C31618876   3.343   1.939   8.236 -0.4820 -0.1443  0.1543
  167SOPE  H16X18877   3.407   1.953   8.325  0.5149 -0.7962 -0.4407
  167SOPE  H16Y18878   3.348   1.830   8.214  2.9492 -0.1299  0.3812
  167SOPE  C31718879   3.205   1.991   8.283 -0.1264 -0.1270  0.0454
  167SOPE  H17X18880   3.125   1.984   8.207 -0.1399  0.7148 -0.0283
  167SOPE  H17Y18881   3.219   2.099   8.303  0.8017 -0.3718  0.8239
  167SOPE  C31818882   3.152   1.923   8.411  0.7434  0.1340 -0.6776
  167SOPE  H18X18883   3.187   1.818   8.413  0.7267  0.1133 -1.3591
  167SOPE  H18Y18884   3.042   1.926   8.398  0.6757 -2.3154 -1.1100
  167SOPE  H18Z18885   3.178   1.966   8.510 -0.7281  1.5101 -0.8492
  168SOPE     N18886   1.915   0.010   6.476  0.0200 -0.2799  0.0860
  168SOPE   HN118887   2.005   0.035   6.521 -1.5505  0.6584  2.8777
  168SOPE   HN218888   1.931   0.007   6.373  1.8278  1.8507  0.2578
  168SOPE   HN318889   1.841   0.081   6.492 -1.3555 -1.7795  0.7733
  168SOPE   C1218890   1.865  -0.111   6.542  0.1515 -0.7746  0.0469
  168SOPE  H12A18891   1.806  -0.179   6.476 -1.2729  1.7474 -1.4401
  168SOPE  H12B18892   1.791  -0.074   6.615 -0.8003 -0.9666 -0.7922
  168SOPE   C1118893   1.983  -0.174   6.619 -0.7649 -0.1284 -0.5622
  168SOPE  H11A18894   1.958  -0.278   6.650  3.6113 -0.6722  2.0726
  168SOPE  H11B18895   2.001  -0.115   6.712  2.9565 -0.6163 -0.8134
  168SOPE     P18896   2.138  -0.287   6.436 -0.4965  0.3406 -0.1222
  168SOPE   O1318897   2.283  -0.286   6.409 -0.0526 -0.0117 -0.0402
  168SOPE   O1418898   2.046  -0.265   6.319 -0.3417  0.3036 -0.0678
  168SOPE   O1218899   2.104  -0.177   6.539  0.4380 -0.7731 -0.2127
  168SOPE   O1118900   2.103  -0.426   6.505  0.1001  0.2548  0.5363
  168SOPE    C118901   2.166  -0.455   6.625 -0.1078  0.2459  0.6864
  168SOPE    HA18902   2.149  -0.366   6.690  1.3518  1.5869 -0.6699
  168SOPE    HB18903   2.277  -0.463   6.617 -0.2016 -0.1257 -0.4602
  168SOPE    C218904   2.111  -0.586   6.684 -0.0794 -0.1082 -0.1012
  168SOPE    HS18905   2.131  -0.664   6.608  1.5004 -0.7931  0.9706
  168SOPE   O2118906   1.972  -0.567   6.718 -0.0186 -0.0491  0.1763
  168SOPE   C2118907   1.908  -0.687   6.699 -0.0562 -0.4810 -0.4413
  168SOPE   O2218908   1.959  -0.795   6.680  0.7068 -0.2294  0.3125
  168SOPE   C2218909   1.758  -0.660   6.705  0.3745  0.3021 -0.0983
  168SOPE   H2R18910   1.701  -0.685   6.613 -2.6605  1.0158  1.4467
  168SOPE   H2S18911   1.741  -0.551   6.713 -2.7628  0.0091 -1.1946
  168SOPE    C318912   2.179  -0.614   6.823 -0.3225  0.4512  0.2746
  168SOPE    HX18913   2.282  -0.629   6.786 -0.8786 -0.1112 -1.0982
  168SOPE    HY18914   2.148  -0.706   6.876  0.3131 -0.2433 -0.5317
  168SOPE   O3118915   2.187  -0.500   6.906  0.1926  0.4391 -0.4612
  168SOPE   C3118916   2.108  -0.488   7.006 -0.0542 -0.3149  0.1839
  168SOPE   O3218917   2.045  -0.580   7.053  0.3908 -0.2087  0.3570
  168SOPE   C3218918   2.090  -0.339   7.040  0.7906 -0.4981 -0.6427
  168SOPE   H2X18919   1.980  -0.327   7.039  0.9077  2.4718  2.4958
  168SOPE   H2Y18920   2.141  -0.278   6.962 -0.1296  0.5247 -0.4682
  168SOPE   C2318921   1.700  -0.723   6.835 -1.4016  0.1143 -0.2362
  168SOPE   H3R18922   1.733  -0.829   6.839 -2.6939 -0.3994 -2.0823
  168SOPE   H3S18923   1.590  -0.710   6.828 -1.4855  0.9664  2.0252
  168SOPE   C2418924   1.747  -0.649   6.961  0.0544 -0.3797 -0.1044
  168SOPE   H4R18925   1.847  -0.681   7.000 -0.5775 -1.3899  0.7540
  168SOPE   H4S18926   1.739  -0.544   6.926 -1.3258 -0.6921 -0.7757
  168SOPE   C2518927   1.645  -0.650   7.079  0.2059 -0.2780  0.9700
  168SOPE   H5R18928   1.543  -0.616   7.051 -0.0463 -0.5834  1.5024
  168SOPE   H5S18929   1.632  -0.757   7.107  0.1899 -0.0617  1.8276
  168SOPE   C2618930   1.705  -0.562   7.190 -0.0825  0.0530 -0.1815
  168SOPE   H6R18931   1.807  -0.601   7.212  0.0494 -0.6684 -1.9555
  168SOPE   H6S18932   1.722  -0.455   7.163  4.1452 -0.3988  0.0055
  168SOPE   C2718933   1.630  -0.566   7.319  0.0503  0.4357 -0.8073
  168SOPE   H7R18934   1.521  -0.563   7.298 -0.4661 -1.2032  1.3185
  168SOPE   H7S18935   1.649  -0.661   7.373 -0.5200  1.8483  2.1147
  168SOPE   C2818936   1.648  -0.444   7.402 -0.5373 -0.2446 -0.2199
  168SOPE   H8R18937   1.653  -0.359   7.330 -2.0039  1.3567  1.4893
  168SOPE   H8S18938   1.564  -0.425   7.472 -0.8788  0.5857 -0.8351
  168SOPE   C2918939   1.775  -0.458   7.478  0.6657  0.9784 -0.3320
  168SOPE   H9118940   1.864  -0.438   7.418  1.9913 -0.7894  0.9632
  168SOPE  C21018941   1.797  -0.475   7.614  0.0407 -0.2483 -0.4593
  168SOPE  H10118942   1.898  -0.499   7.650  0.4629  0.5981 -1.0339
  168SOPE  C21118943   1.691  -0.474   7.718  0.4414  0.1576 -0.6652
  168SOPE  H11R18944   1.684  -0.574   7.766  1.0078 -0.5230 -1.9458
  168SOPE  H11S18945   1.587  -0.442   7.694  0.6592  2.3149  1.0230
  168SOPE  C21218946   1.726  -0.373   7.834 -1.3261  0.2992 -0.2203
  168SOPE  H12R18947   1.746  -0.279   7.780 -0.3923  0.2315 -0.0146
  168SOPE  H12S18948   1.810  -0.401   7.901 -1.9894 -0.7512  0.2052
  168SOPE  C21318949   1.605  -0.349   7.920  0.3388  0.1328 -1.1999
  168SOPE  H13R18950   1.548  -0.445   7.922 -3.1241  2.0491 -0.9694
  168SOPE  H13S18951   1.539  -0.269   7.879 -0.3433 -0.1569 -0.6952
  168SOPE  C21418952   1.653  -0.314   8.065 -0.0713 -0.1908  0.6709
  168SOPE  H14R18953   1.696  -0.211   8.072  2.3579 -1.2399  3.3962
  168SOPE  H14S18954   1.736  -0.385   8.083 -0.4727 -1.3629 -1.7036
  168SOPE  C21518955   1.532  -0.319   8.169 -0.1042 -1.1859  0.3126
  168SOPE  H15R18956   1.471  -0.412   8.163 -3.2997  0.8360 -0.7907
  168SOPE  H15S18957   1.457  -0.243   8.139  1.7003  0.2056 -0.8772
  168SOPE  C21618958   1.567  -0.289   8.311  0.4738 -0.2126  0.1744
  168SOPE  H16R18959   1.610  -0.377   8.363 -0.0509 -0.1026  0.8039
  168SOPE  H16S18960   1.488  -0.235   8.368 -0.2139  0.3669 -1.2655
  168SOPE  C21718961   1.678  -0.186   8.327  0.4106  0.2262  0.1194
  168SOPE  H17R18962   1.642  -0.101   8.266  1.9033 -0.5324 -1.9083
  168SOPE  H17S18963   1.771  -0.220   8.276  1.1999 -0.0137  1.6526
  168SOPE  C21818964   1.711  -0.136   8.464  0.5937 -0.2795  0.2577
  168SOPE  H18R18965   1.798  -0.067   8.457  0.0882  0.2774 -0.7930
  168SOPE  H18S18966   1.730  -0.220   8.534 -3.7281  1.0676  3.5609
  168SOPE  H18T18967   1.637  -0.067   8.511  1.8947 -0.6018  2.9862
  168SOPE   C3318968   2.161  -0.296   7.170 -0.4828 -0.2167 -0.0095
  168SOPE   H3X18969   2.172  -0.185   7.166  0.3379 -0.3187 -0.5766
  168SOPE   H3Y18970   2.264  -0.336   7.171  0.5021  1.8879 -2.8769
  168SOPE   C3418971   2.087  -0.317   7.304  0.2421 -0.2619  0.2366
  168SOPE   H4X18972   2.075  -0.427   7.311 -0.0583 -0.1386  2.7173
  168SOPE   H4Y18973   1.985  -0.276   7.288  0.2823  0.4243  1.5574
  168SOPE   C3518974   2.157  -0.252   7.419  0.2205 -0.2377  0.2496
  168SOPE   H5X18975   2.170  -0.143   7.403 -0.1179 -0.0196  1.3986
  168SOPE   H5Y18976   2.255  -0.303   7.427  1.1491  0.9888 -2.2137
  168SOPE   C3618977   2.074  -0.263   7.549  0.4804 -0.3509 -0.1600
  168SOPE   H6X18978   2.088  -0.368   7.581  0.4788 -0.6072 -0.9809
  168SOPE   H6Y18979   1.969  -0.233   7.529  0.2665 -2.4498 -2.7218
  168SOPE   C3718980   2.125  -0.161   7.660  0.6970 -0.0253  0.4832
  168SOPE   H7X18981   2.119  -0.059   7.617 -1.7677 -0.0987  0.5377
  168SOPE   H7Y18982   2.226  -0.180   7.702  2.7565  1.6295 -3.2010
  168SOPE   C3818983   2.039  -0.155   7.789  0.1726 -1.3082 -0.2024
  168SOPE   H8X18984   2.083  -0.229   7.859  1.6927  0.9865  1.4348
  168SOPE   H8Y18985   1.929  -0.167   7.776  0.0216 -0.9701  0.6859
  168SOPE   C3918986   2.067  -0.023   7.863  0.3951 -0.0842  0.6450
  168SOPE   H9X18987   2.003   0.054   7.814  0.1400 -0.4855  0.3366
  168SOPE   H9Y18988   2.174   0.004   7.851  0.8008 -2.1486 -1.0903
  168SOPE  C31018989   2.042  -0.026   8.008  0.0280 -0.0576 -0.3202
  168SOPE  H10X18990   2.097  -0.106   8.062  1.2691  0.6032 -0.5659
  168SOPE  H10Y18991   1.933  -0.045   8.018 -0.1088  0.1480 -1.2928
  168SOPE  C31118992   2.064   0.107   8.085  0.4481  0.1587 -0.3747
  168SOPE  H11X18993   2.172   0.130   8.091  0.2112  1.2200  0.0763
  168SOPE  H11Y18994   2.040   0.106   8.194  0.8986  2.9677 -0.1658
  168SOPE  C31218995   1.983   0.228   8.038  0.4585  0.3623  0.0084
  168SOPE  H12X18996   1.878   0.194   8.038  0.9518 -1.5390  2.6531
  168SOPE  H12Y18997   2.014   0.246   7.933  1.5013 -1.1605  0.0097
  168SOPE  C31318998   2.007   0.359   8.116 -0.3239 -0.4872 -0.4755
  168SOPE  H13X18999   2.116   0.381   8.110 -0.4284 -0.0980 -1.1013
  168SOPE  H13Y19000   1.971   0.349   8.220  1.3208 -2.4866 -0.0326
  168SOPE  C31419001   1.915   0.478   8.071 -0.3734 -0.0418  0.3013
  168SOPE  H14X19002   1.813   0.441   8.095  0.3269 -3.1730 -1.1548
  168SOPE  H14Y19003   1.933   0.490   7.962  0.1167 -1.7849  0.1674
  168SOPE  C31519004   1.938   0.618   8.139 -0.1838  0.7526 -0.4581
  168SOPE  H15X19005   2.045   0.641   8.125 -0.1565 -0.0610 -1.8732
  168SOPE  H15Y19006   1.922   0.596   8.247  1.8667 -2.6249 -0.6713
  168SOPE  C31619007   1.865   0.735   8.080  0.3280  0.2730 -0.6596
  168SOPE  H16X19008   1.759   0.708   8.099  1.2545 -3.6877 -0.2262
  168SOPE  H16Y19009   1.886   0.731   7.971  0.4568  1.4363 -0.6872
  168SOPE  C31719010   1.901   0.871   8.135 -0.4084 -0.1467  0.6473
  168SOPE  H17X19011   1.902   0.868   8.246  3.4976  1.3277  0.8005
  168SOPE  H17Y19012   1.826   0.945   8.100 -2.0625 -2.4491 -1.0490
  168SOPE  C31819013   2.039   0.919   8.104  0.1347 -0.6822 -0.1801
  168SOPE  H18X19014   2.118   0.841   8.101  0.4102 -0.3930 -0.5593
  168SOPE  H18Y19015   2.064   0.990   8.186 -1.1603 -1.8314  1.2738
  168SOPE  H18Z19016   2.061   0.976   8.011  2.0927  0.9405  1.1672
  169SOPE     N19017   2.567   0.787   6.189  0.5663 -0.4531  0.2364
  169SOPE   HN119018   2.514   0.762   6.275 -1.2898  0.5616 -0.5637
  169SOPE   HN219019   2.671   0.784   6.191  0.6067 -0.5055 -1.0009
  169SOPE   HN319020   2.546   0.889   6.186  0.3381 -0.4811  0.7691
  169SOPE   C1219021   2.512   0.719   6.070  0.1152 -0.2700 -0.1350
  169SOPE  H12A19022   2.567   0.769   5.988  0.6237 -0.0528  0.3338
  169SOPE  H12B19023   2.402   0.734   6.060  0.4441  0.7477 -3.4770
  169SOPE   C1119024   2.527   0.565   6.076 -0.8470 -0.2573  0.1891
  169SOPE  H11A19025   2.632   0.532   6.089 -0.6223  0.1566 -0.4886
  169SOPE  H11B19026   2.499   0.520   5.978 -1.5577 -1.7602  1.0493
  169SOPE     P19027   2.412   0.358   6.212 -0.0502  0.1710 -0.3128
  169SOPE   O1319028   2.514   0.326   6.311  0.7713  0.5519  0.1230
  169SOPE   O1419029   2.409   0.289   6.083  0.1553  0.1589  0.1860
  169SOPE   O1219030   2.434   0.512   6.180  0.2207 -0.1102 -0.4513
  169SOPE   O1119031   2.268   0.371   6.276 -1.0596  0.3136 -0.0004
  169SOPE    C119032   2.223   0.476   6.357  0.5115 -0.4004  0.2159
  169SOPE    HA19033   2.123   0.512   6.325 -1.3467 -3.3892  2.1626
  169SOPE    HB19034   2.283   0.567   6.337  2.7965 -1.6537  1.0767
  169SOPE    C219035   2.219   0.453   6.510  0.1607  0.1147 -0.5303
  169SOPE    HS19036   2.210   0.558   6.544 -0.8722  0.0586 -0.6049
  169SOPE   O2119037   2.329   0.378   6.561 -0.5850  0.3585  0.3890
  169SOPE   C2119038   2.438   0.434   6.601  0.8460  0.3913 -0.4156
  169SOPE   O2219039   2.453   0.555   6.613  0.8380 -0.1669  0.1873
  169SOPE   C2219040   2.544   0.327   6.642 -0.1107  0.0240 -0.1864
  169SOPE   H2R19041   2.631   0.374   6.693 -0.9030  0.6883  0.5971
  169SOPE   H2S19042   2.577   0.284   6.545 -0.9014 -0.2099 -0.3596
  169SOPE    C319043   2.084   0.386   6.551 -0.6859 -0.1532  0.8398
  169SOPE    HX19044   2.068   0.289   6.499 -1.8257 -0.3191  1.4693
  169SOPE    HY19045   2.006   0.458   6.516  0.1495  1.4856  2.2268
  169SOPE   O3119046   2.072   0.367   6.694 -0.2819 -0.3472  0.5794
  169SOPE   C3119047   2.073   0.246   6.744 -0.2775  0.6882 -0.5652
  169SOPE   O3219048   2.087   0.146   6.675  0.1005 -0.4573 -0.0719
  169SOPE   C3219049   2.061   0.254   6.899 -0.1303 -0.2306  0.0352
  169SOPE   H2X19050   1.961   0.293   6.927 -0.1746  0.6027 -1.1670
  169SOPE   H2Y19051   2.140   0.330   6.920  1.5889 -1.0215 -2.9373
  169SOPE   C2319052   2.500   0.205   6.725 -0.8713  0.3591  0.6173
  169SOPE   H3R19053   2.551   0.111   6.694  1.7514  0.6855  3.4617
  169SOPE   H3S19054   2.393   0.184   6.704 -1.0095  0.0257  1.6057
  169SOPE   C2419055   2.532   0.214   6.876 -0.3095  0.9008 -0.5418
  169SOPE   H4R19056   2.491   0.122   6.923 -0.5275  0.4004 -1.6997
  169SOPE   H4S19057   2.641   0.209   6.901 -0.7463  0.5559  1.4985
  169SOPE   C2519058   2.475   0.336   6.942 -0.6984  0.7737 -0.1289
  169SOPE   H5R19059   2.536   0.421   6.905 -0.2672  0.3591 -0.3920
  169SOPE   H5S19060   2.366   0.337   6.919 -0.8946 -1.2470  0.5371
  169SOPE   C2619061   2.473   0.347   7.095  0.0257 -0.3715  0.4527
  169SOPE   H6R19062   2.426   0.258   7.141 -0.4949  0.6135  1.9014
  169SOPE   H6S19063   2.578   0.337   7.129  0.7860 -0.2651 -1.6973
  169SOPE   C2719064   2.395   0.468   7.163 -0.0701 -0.1255 -0.6929
  169SOPE   H7R19065   2.433   0.558   7.110 -1.8587 -0.4832 -2.7363
  169SOPE   H7S19066   2.286   0.447   7.155 -0.1027  0.1771 -1.1264
  169SOPE   C2819067   2.437   0.478   7.315 -0.2005  0.4264  0.1934
  169SOPE   H8R19068   2.381   0.401   7.372  0.7585 -2.5908 -2.6055
  169SOPE   H8S19069   2.546   0.465   7.332 -0.4164 -0.8210  0.7539
  169SOPE   C2919070   2.416   0.625   7.358  0.1072  0.4494  0.8321
  169SOPE   H9119071   2.313   0.664   7.349 -1.1123 -2.5094  1.0266
  169SOPE  C21019072   2.506   0.712   7.415  0.1768  0.1576  0.7399
  169SOPE  H10119073   2.466   0.812   7.439  2.3308  1.2999 -0.0885
  169SOPE  C21119074   2.650   0.685   7.448 -0.1804 -0.9925 -0.3006
  169SOPE  H11R19075   2.710   0.659   7.358  3.6617 -2.3861  2.4002
  169SOPE  H11S19076   2.643   0.586   7.498 -2.1593 -1.0623 -0.6103
  169SOPE  C21219077   2.729   0.790   7.537 -0.0813  0.0373 -0.2142
  169SOPE  H12R19078   2.709   0.895   7.507 -2.1867 -0.6997 -1.6482
  169SOPE  H12S19079   2.837   0.773   7.518 -0.1375  0.3398 -0.8408
  169SOPE  C21319080   2.703   0.768   7.685  0.4359 -0.0259 -0.1890
  169SOPE  H13R19081   2.751   0.672   7.716 -0.5816 -1.3270 -2.4326
  169SOPE  H13S19082   2.596   0.771   7.713  0.1545  1.0227 -1.2912
  169SOPE  C21419083   2.775   0.882   7.766  0.3884  0.4238  0.7042
  169SOPE  H14R19084   2.701   0.913   7.842 -0.8971  1.3380 -0.8623
  169SOPE  H14S19085   2.800   0.968   7.700  1.4271 -0.1989  0.2598
  169SOPE  C21519086   2.906   0.833   7.835  0.1005  0.3343 -0.8400
  169SOPE  H15R19087   2.988   0.819   7.761  0.7326 -0.6845  0.0308
  169SOPE  H15S19088   2.879   0.735   7.881 -0.6068  0.2290 -1.4575
  169SOPE  C21619089   2.946   0.927   7.950 -0.5224  0.3111 -0.2874
  169SOPE  H16R19090   2.952   1.031   7.910 -0.2386  0.9089  1.2455
  169SOPE  H16S19091   3.048   0.893   7.977 -0.2601  2.3400  1.5263
  169SOPE  C21719092   2.856   0.907   8.074  0.0363 -0.3800 -0.6067
  169SOPE  H17R19093   2.873   0.800   8.098  0.3907 -0.3502 -0.7184
  169SOPE  H17S19094   2.748   0.920   8.055 -0.0273  1.6878  0.8986
  169SOPE  C21819095   2.904   1.006   8.186 -0.4726 -0.2278  0.2427
  169SOPE  H18R19096   2.825   1.036   8.258 -0.7268 -1.3145  0.4363
  169SOPE  H18S19097   2.939   1.095   8.131  0.1164 -1.5828 -1.6965
  169SOPE  H18T19098   2.992   0.967   8.242 -0.0693 -0.1175 -0.3024
  169SOPE   C3319099   2.085   0.120   6.961  0.9823 -0.7296  0.1509
  169SOPE   H3X19100   2.195   0.101   6.956  0.8520 -1.3748 -0.4031
  169SOPE   H3Y19101   2.036   0.033   6.913 -1.7840  1.4968 -1.3152
  169SOPE   C3419102   2.033   0.130   7.110 -0.0655 -0.1885  0.0529
  169SOPE   H4X19103   2.036   0.030   7.159  0.4849 -0.5121 -0.6156
  169SOPE   H4Y19104   1.924   0.150   7.098  0.1107 -0.6703 -3.3282
  169SOPE   C3519105   2.100   0.234   7.196  1.4260 -0.4896  0.7141
  169SOPE   H5X19106   2.081   0.332   7.148 -0.9244 -1.0038  0.4530
  169SOPE   H5Y19107   2.207   0.207   7.208  1.5048 -0.2073  0.6374
  169SOPE   C3619108   2.029   0.244   7.335  0.2117 -0.2979 -0.2749
  169SOPE   H6X19109   2.027   0.139   7.370  1.0206  0.0455  0.8711
  169SOPE   H6Y19110   1.925   0.280   7.327  0.4423  0.5084  0.2446
  169SOPE   C3719111   2.113   0.323   7.436  0.2575 -0.1095 -0.2300
  169SOPE   H7X19112   2.114   0.430   7.405 -2.1252  0.8791  2.6130
  169SOPE   H7Y19113   2.210   0.270   7.444  0.3298  0.3101  4.1263
  169SOPE   C3819114   2.055   0.322   7.580 -0.1540  0.0410 -0.0340
  169SOPE   H8X19115   1.950   0.358   7.581  0.2784  1.5364  2.7163
  169SOPE   H8Y19116   2.052   0.218   7.617  2.4115  0.2237  0.9383
  169SOPE   C3919117   2.142   0.400   7.676 -0.0635  0.0903 -0.5972
  169SOPE   H9X19118   2.248   0.368   7.667 -0.4598 -1.1807 -0.8820
  169SOPE   H9Y19119   2.129   0.375   7.784  0.7163 -0.8944 -0.7128
  169SOPE  C31019120   2.141   0.556   7.678  0.3345  0.2301 -0.2033
  169SOPE  H10X19121   2.033   0.578   7.670 -0.9424 -3.8989  2.4369
  169SOPE  H10Y19122   2.199   0.597   7.593  0.9675  0.4721  0.3307
  169SOPE  C31119123   2.182   0.622   7.808 -0.2390 -0.0302 -0.1030
  169SOPE  H11X19124   2.287   0.593   7.828  0.2425  1.7404  0.1561
  169SOPE  H11Y19125   2.121   0.584   7.893 -0.7747 -1.8803 -1.2453
  169SOPE  C31219126   2.174   0.774   7.793 -0.8055  0.4174  0.7648
  169SOPE  H12X19127   2.204   0.811   7.894  1.2099 -0.9483  0.7171
  169SOPE  H12Y19128   2.072   0.805   7.760 -0.3118  1.1867 -0.0538
  169SOPE  C31319129   2.276   0.824   7.680 -0.2188 -0.2704 -0.4210
  169SOPE  H13X19130   2.241   0.800   7.577  3.3728  1.2712 -2.1708
  169SOPE  H13Y19131   2.360   0.754   7.696 -0.7341 -0.6832  0.5287
  169SOPE  C31419132   2.324   0.967   7.698  0.1253 -0.2975  0.4646
  169SOPE  H14X19133   2.245   1.041   7.672  0.0946 -0.0566  1.2195
  169SOPE  H14Y19134   2.409   0.980   7.628  0.6213 -0.8627  0.9630
  169SOPE  C31519135   2.367   1.002   7.838  0.0796  0.0473  0.5982
  169SOPE  H15X19136   2.444   0.936   7.882  1.6611  1.6055  0.2628
  169SOPE  H15Y19137   2.271   0.989   7.893 -0.6152 -0.3592 -0.6710
  169SOPE  C31619138   2.401   1.153   7.859  0.3921 -0.0885 -0.1145
  169SOPE  H16X19139   2.379   1.227   7.779  2.7887 -0.0312 -0.7891
  169SOPE  H16Y19140   2.512   1.155   7.866  0.5104 -2.5503 -0.5055
  169SOPE  C31719141   2.348   1.212   7.994  0.0372 -0.5948  0.7602
  169SOPE  H17X19142   2.413   1.299   8.017 -0.5860  0.0560  0.1139
  169SOPE  H17Y19143   2.344   1.133   8.073 -1.2363  0.6289  1.9824
  169SOPE  C31819144   2.200   1.253   7.977  0.0209  0.0815 -0.7497
  169SOPE  H18X19145   2.186   1.328   7.898  0.7597 -0.0838 -1.0476
  169SOPE  H18Y19146   2.149   1.285   8.070 -3.6711 -0.6792 -2.3181
  169SOPE  H18Z19147   2.151   1.155   7.955 -0.1564  0.7063 -3.4928
  170SOPE     N19148   3.591   1.794   6.276 -0.7461 -0.5100 -0.1526
  170SOPE   HN119149   3.569   1.797   6.378 -1.5828 -0.4943 -0.3277
  170SOPE   HN219150   3.695   1.797   6.282 -0.7483  3.0836  0.8362
  170SOPE   HN319151   3.556   1.880   6.229 -1.6067 -1.9545 -2.2351
  170SOPE   C1219152   3.554   1.658   6.214 -0.3928 -0.8857 -0.2576
  170SOPE  H12A19153   3.567   1.665   6.104  1.2666 -0.7135 -0.0860
  170SOPE  H12B19154   3.446   1.655   6.239 -0.4854 -1.5503 -0.7281
  170SOPE   C1119155   3.616   1.542   6.278 -0.5742  0.2138 -0.4110
  170SOPE  H11A19156   3.599   1.536   6.388  0.7823 -1.0413 -0.2412
  170SOPE  H11B19157   3.726   1.554   6.276 -0.6853  1.1262 -1.2451
  170SOPE     P19158   3.641   1.283   6.267  0.0013 -0.2583 -0.0283
  170SOPE   O1319159   3.785   1.297   6.285  0.2777  0.4953  0.3092
  170SOPE   O1419160   3.585   1.178   6.184  0.0900  0.2137 -0.2515
  170SOPE   O1219161   3.582   1.419   6.211 -0.3740 -0.7921  0.5658
  170SOPE   O1119162   3.567   1.288   6.404  0.4325 -0.0852  0.0948
  170SOPE    C119163   3.429   1.264   6.429  0.4306 -0.6566  0.7873
  170SOPE    HA19164   3.409   1.174   6.367  2.7389  0.6459 -2.1192
  170SOPE    HB19165   3.373   1.352   6.393  1.1079  0.0049  1.3261
  170SOPE    C219166   3.380   1.256   6.584 -0.2832 -0.1741 -0.4118
  170SOPE    HS19167   3.269   1.265   6.578 -0.3034 -0.0064  0.2016
  170SOPE   O2119168   3.434   1.363   6.658  0.0115  0.1261 -0.0226
  170SOPE   C2119169   3.395   1.482   6.637  0.1305 -0.1114  0.4731
  170SOPE   O2219170   3.290   1.518   6.584 -0.2395 -0.0218  0.1351
  170SOPE   C2219171   3.491   1.590   6.689  0.1009  0.0670  0.4176
  170SOPE   H2R19172   3.442   1.689   6.702 -0.0630 -0.3529  3.9535
  170SOPE   H2S19173   3.588   1.590   6.636  1.1082 -1.5177  2.1270
  170SOPE    C319174   3.409   1.127   6.656  1.0698  0.3591 -0.2449
  170SOPE    HX19175   3.513   1.099   6.630  0.9952  0.3849 -0.5677
  170SOPE    HY19176   3.340   1.043   6.631  0.8612 -0.0762  1.5991
  170SOPE   O3119177   3.416   1.142   6.797  0.0620 -0.1877 -0.3414
  170SOPE   C3119178   3.302   1.142   6.861  0.4316 -0.2817 -0.7752
  170SOPE   O3219179   3.191   1.135   6.810 -0.3007  0.3786 -0.0431
  170SOPE   C3219180   3.326   1.144   7.010 -0.3043 -0.6605 -0.9991
  170SOPE   H2X19181   3.431   1.117   7.035 -1.0149 -4.1363 -1.2292
  170SOPE   H2Y19182   3.262   1.070   7.063  0.0544  0.3798  0.9905
  170SOPE   C2319183   3.528   1.547   6.832 -0.0708  0.0071 -0.1027
  170SOPE   H3R19184   3.576   1.447   6.828  0.7647  0.4114 -0.2862
  170SOPE   H3S19185   3.434   1.540   6.892 -0.7998  0.5800 -1.1559
  170SOPE   C2419186   3.616   1.642   6.913  0.2511 -0.5027 -0.3383
  170SOPE   H4R19187   3.724   1.631   6.889  0.2202  0.9296 -1.1925
  170SOPE   H4S19188   3.598   1.750   6.900  1.5803 -0.0067  1.4865
  170SOPE   C2519189   3.600   1.618   7.067 -0.3264  0.1302 -0.0465
  170SOPE   H5R19190   3.633   1.704   7.130 -3.0486 -0.2817  2.1580
  170SOPE   H5S19191   3.491   1.613   7.091 -0.5133  2.5083 -0.1747
  170SOPE   C2619192   3.675   1.492   7.112  0.3107 -0.4348  0.4498
  170SOPE   H6R19193   3.630   1.401   7.069 -1.4025  0.9378 -0.8167
  170SOPE   H6S19194   3.783   1.509   7.095 -0.1236  1.8511 -0.4647
  170SOPE   C2719195   3.664   1.457   7.258 -0.4477  0.4004 -0.8294
  170SOPE   H7R19196   3.699   1.545   7.317 -1.2122 -0.8528  1.6315
  170SOPE   H7S19197   3.556   1.448   7.283 -0.1936  1.5628  0.8614
  170SOPE   C2819198   3.756   1.344   7.308  0.4783  0.1579 -0.1458
  170SOPE   H8R19199   3.746   1.268   7.227  2.5872  1.0387 -1.3194
  170SOPE   H8S19200   3.858   1.389   7.308  0.2268  0.8573 -2.6253
  170SOPE   C2919201   3.710   1.281   7.433 -0.4197  0.3590 -0.3797
  170SOPE   H9119202   3.616   1.229   7.410 -1.1714  1.5786 -0.2074
  170SOPE  C21019203   3.746   1.308   7.561 -1.0880 -0.1860  0.8812
  170SOPE  H10119204   3.708   1.252   7.648 -1.0041 -0.2614  0.8702
  170SOPE  C21119205   3.862   1.398   7.601  0.8014 -0.0917  0.2874
  170SOPE  H11R19206   3.834   1.495   7.648  1.1243  1.3535 -2.3420
  170SOPE  H11S19207   3.931   1.423   7.518 -2.0904  1.6351 -1.7481
  170SOPE  C21219208   3.954   1.312   7.699 -0.1654 -0.0828  0.6844
  170SOPE  H12R19209   4.048   1.369   7.718 -0.0635  0.2618 -0.7274
  170SOPE  H12S19210   3.974   1.210   7.660  0.1534 -0.0891  0.8585
  170SOPE  C21319211   3.900   1.297   7.844 -0.0609  0.7539  0.1875
  170SOPE  H13R19212   3.803   1.244   7.841  0.8985 -1.0759  0.5032
  170SOPE  H13S19213   3.894   1.402   7.880  2.0792  1.4105 -1.1631
  170SOPE  C21419214   3.994   1.204   7.921 -0.2593 -0.8721 -0.1348
  170SOPE  H14R19215   4.093   1.253   7.934 -0.0481 -1.3862  0.2317
  170SOPE  H14S19216   3.994   1.108   7.865  0.0637 -1.1910  0.4100
  170SOPE  C21519217   3.959   1.186   8.068  0.0092  0.5713  0.1537
  170SOPE  H15R19218   3.853   1.154   8.080  0.3608 -0.3895  0.8019
  170SOPE  H15S19219   3.965   1.281   8.126  0.6513  0.3438  0.4729
  170SOPE  C21619220   4.048   1.082   8.144 -0.8981  0.2164  0.1831
  170SOPE  H16R19221   4.036   0.986   8.088  0.1010 -0.0228  0.3693
  170SOPE  H16S19222   4.017   1.052   8.246  1.0832  0.4444  0.8986
  170SOPE  C21719223   4.200   1.120   8.153 -0.1479 -0.1412  0.1460
  170SOPE  H17R19224   4.223   1.212   8.210  3.0717 -1.2465  0.8562
  170SOPE  H17S19225   4.233   1.130   8.048  0.2871 -1.9502  0.0640
  170SOPE  C21819226   4.280   1.006   8.220  0.6914  0.3747  0.5567
  170SOPE  H18R19227   4.390   1.014   8.212  1.0880 -3.8989 -0.3034
  170SOPE  H18S19228   4.270   0.905   8.175 -1.0929  0.9747 -0.5193
  170SOPE  H18T19229   4.250   1.015   8.326 -0.6538 -1.9031  0.4384
  170SOPE   C3319230   3.289   1.280   7.070 -0.3450  0.6718  0.1338
  170SOPE   H3X19231   3.184   1.314   7.055 -0.0209  2.1585  0.9719
  170SOPE   H3Y19232   3.355   1.355   7.021  0.3499  0.6992  1.0834
  170SOPE   C3419233   3.314   1.288   7.223  0.0854 -0.3035  0.3089
  170SOPE   H4X19234   3.425   1.288   7.234  0.1425  0.9739 -0.0996
  170SOPE   H4Y19235   3.271   1.198   7.273 -2.2299 -0.9332 -2.5499
  170SOPE   C3519236   3.259   1.422   7.266  0.2066  0.4632 -0.0895
  170SOPE   H5X19237   3.150   1.438   7.252  0.1698  0.0686 -0.2879
  170SOPE   H5Y19238   3.312   1.491   7.198  3.0844 -1.4613  0.0355
  170SOPE   C3619239   3.286   1.452   7.414 -0.1529 -0.3767 -0.0617
  170SOPE   H6X19240   3.374   1.398   7.454 -0.4452  0.3801  1.7206
  170SOPE   H6Y19241   3.198   1.416   7.473 -0.1191  0.1681  0.3312
  170SOPE   C3719242   3.295   1.603   7.445 -0.2164 -0.3491 -0.4231
  170SOPE   H7X19243   3.195   1.650   7.434  0.6227  1.2823 -1.5431
  170SOPE   H7Y19244   3.376   1.643   7.380 -0.8619  0.5357 -0.7102
  170SOPE   C3819245   3.337   1.627   7.596 -0.4217  0.7784  0.5076
  170SOPE   H8X19246   3.281   1.562   7.667  0.1705 -0.2535  0.0561
  170SOPE   H8Y19247   3.318   1.729   7.634 -1.2972 -0.0261  2.3638
  170SOPE   C3919248   3.493   1.605   7.604 -0.3283  0.0970  0.4508
  170SOPE   H9X19249   3.536   1.662   7.519  1.6629 -0.2012  1.2034
  170SOPE   H9Y19250   3.526   1.501   7.581  4.7329  1.5351  0.0692
  170SOPE  C31019251   3.553   1.662   7.735  0.0933  0.1997 -0.8985
  170SOPE  H10X19252   3.508   1.763   7.746 -1.3275 -0.5874  1.1431
  170SOPE  H10Y19253   3.661   1.668   7.709  0.2783  0.2722 -0.1141
  170SOPE  C31119254   3.518   1.570   7.850  0.4099 -0.7806  0.0080
  170SOPE  H11X19255   3.529   1.462   7.826  1.1357 -1.1743  1.9098
  170SOPE  H11Y19256   3.408   1.569   7.863  0.5236 -0.4997  1.1151
  170SOPE  C31219257   3.588   1.602   7.982  0.1426  0.5343 -0.6337
  170SOPE  H12X19258   3.551   1.700   8.019 -0.2029 -0.7800  2.9434
  170SOPE  H12Y19259   3.695   1.612   7.955 -0.3554  0.2834 -2.8936
  170SOPE  C31319260   3.560   1.495   8.087  0.3713 -0.3879 -0.3485
  170SOPE  H13X19261   3.578   1.398   8.037 -1.7496 -0.5544 -0.8927
  170SOPE  H13Y19262   3.454   1.494   8.121  0.5458 -0.0238  0.2106
  170SOPE  C31419263   3.644   1.508   8.218  0.2292 -0.2504  0.4208
  170SOPE  H14X19264   3.752   1.523   8.194 -0.0633  1.0750 -0.1432
  170SOPE  H14Y19265   3.630   1.410   8.269  0.1214 -0.2059  0.4765
  170SOPE  C31519266   3.597   1.626   8.309  0.0883  0.0861  0.0066
  170SOPE  H15X19267   3.488   1.607   8.324  0.3286 -0.8906  0.5493
  170SOPE  H15Y19268   3.616   1.731   8.279  1.6840  0.2586  1.4828
  170SOPE  C31619269   3.677   1.636   8.435 -0.0417 -0.1334  0.0789
  170SOPE  H16X19270   3.780   1.620   8.396  0.2670 -2.5725  1.6734
  170SOPE  H16Y19271   3.663   1.554   8.509  3.7611  0.6555  1.9256
  170SOPE  C31719272   3.669   1.766   8.515  0.9650  0.1636 -0.5500
  170SOPE  H17X19273   3.562   1.782   8.544  0.9713  0.3123 -0.6069
  170SOPE  H17Y19274   3.692   1.845   8.440 -0.8599  1.1941 -0.0895
  170SOPE  C31819275   3.757   1.759   8.639 -0.1619  0.8623 -0.8368
  170SOPE  H18X19276   3.767   1.855   8.695 -1.0811 -0.0352  0.9483
  170SOPE  H18Y19277   3.858   1.728   8.607 -0.8985 -1.7187 -0.8655
  170SOPE  H18Z19278   3.720   1.694   8.721  1.9074  2.0608  1.1477
  171SOPE     N19279   0.125   4.483   6.516  0.1762 -0.3726  0.1027
  171SOPE   HN119280   0.133   4.576   6.469 -1.8594  0.1032  0.5660
  171SOPE   HN219281   0.040   4.494   6.575  0.7380  2.2496  0.5824
  171SOPE   HN319282   0.200   4.466   6.586  0.2203 -2.2030 -0.3581
  171SOPE   C1219283   0.121   4.376   6.408 -0.3195  0.7855 -0.1870
  171SOPE  H12A19284   0.212   4.392   6.346 -0.1480  1.2349  0.1750
  171SOPE  H12B19285   0.029   4.387   6.346  0.0079 -1.1244 -1.0740
  171SOPE   C1119286   0.123   4.234   6.464  0.2486  1.3601 -0.1281
  171SOPE  H11A19287   0.195   4.239   6.548  0.1983 -1.8234  0.2151
  171SOPE  H11B19288   0.164   4.158   6.394  0.1747  0.5770  0.6621
  171SOPE     P19289  -0.078   4.074   6.507  0.2281  0.0582 -0.0249
  171SOPE   O1319290  -0.084   4.026   6.367  0.4164 -0.4305 -0.4506
  171SOPE   O1419291  -0.205   4.079   6.582  0.6871 -0.1047 -0.7807
  171SOPE   O1219292  -0.006   4.204   6.519  0.2635 -0.0697  0.0764
  171SOPE   O1119293   0.021   3.993   6.597 -0.7529  0.6131 -0.0582
  171SOPE    C119294  -0.002   3.974   6.737 -0.2402 -0.1315  0.8095
  171SOPE    HA19295  -0.036   4.069   6.785  0.3346  1.7344 -2.1741
  171SOPE    HB19296   0.093   3.943   6.784  1.2294  0.8507 -1.3899
  171SOPE    C219297  -0.109   3.871   6.771 -0.4221 -0.6339  0.1540
  171SOPE    HS19298  -0.206   3.918   6.747  0.4412  1.3297  0.2580
  171SOPE   O2119299  -0.107   3.843   6.910  0.0786 -0.5715  0.5077
  171SOPE   C2119300  -0.148   3.933   6.993 -0.2560  0.5809 -0.1176
  171SOPE   O2219301  -0.202   4.037   6.962  0.4880  0.1068 -0.7000
  171SOPE   C2219302  -0.105   3.886   7.134  1.2527  0.6117 -0.1905
  171SOPE   H2R19303   0.006   3.883   7.136  1.2163 -0.7007  0.9908
  171SOPE   H2S19304  -0.151   3.786   7.145 -1.3520  1.6134 -1.1104
  171SOPE    C319305  -0.097   3.740   6.689 -0.2816  0.0587 -0.5879
  171SOPE    HX19306  -0.103   3.771   6.583  1.8344  3.4676  0.1352
  171SOPE    HY19307  -0.192   3.686   6.710  1.0479 -1.0834  3.3110
  171SOPE   O3119308   0.018   3.662   6.714 -0.1315  0.5058 -0.5411
  171SOPE   C3119309   0.005   3.546   6.780 -0.2560 -1.0687  0.5344
  171SOPE   O3219310  -0.102   3.489   6.804 -0.7559  0.1105  0.5326
  171SOPE   C3219311   0.148   3.495   6.832 -0.3510  0.5534 -0.7151
  171SOPE   H2X19312   0.222   3.572   6.802  0.2881 -0.6990 -2.5038
  171SOPE   H2Y19313   0.174   3.403   6.776  0.1909 -0.5601  1.2740
  171SOPE   C2319314  -0.143   3.982   7.250 -0.2394  0.0062 -0.0854
  171SOPE   H3R19315  -0.253   3.990   7.267 -0.1289  1.4407  0.0901
  171SOPE   H3S19316  -0.105   4.081   7.214 -1.1002  1.1758  2.0241
  171SOPE   C2419317  -0.092   3.934   7.385 -0.2988 -0.0391 -0.4184
  171SOPE   H4R19318  -0.125   3.828   7.383 -2.6759  0.5953  1.3894
  171SOPE   H4S19319   0.019   3.936   7.388 -0.3225 -0.0651  0.7943
  171SOPE   C2519320  -0.156   4.009   7.497  0.1566 -0.0981 -0.1607
  171SOPE   H5R19321  -0.121   4.114   7.494 -0.0543 -0.0324 -0.4593
  171SOPE   H5S19322  -0.265   4.018   7.477  0.2109 -3.3440 -2.8542
  171SOPE   C2619323  -0.133   3.938   7.629  0.2468 -0.2658  0.2923
  171SOPE   H6R19324  -0.163   3.831   7.627  1.3862 -0.5909 -0.7154
  171SOPE   H6S19325  -0.024   3.941   7.649  0.1652  2.3152  0.6693
  171SOPE   C2719326  -0.196   4.012   7.744 -0.3166  0.2906 -0.8807
  171SOPE   H7R19327  -0.166   4.118   7.757  0.3247 -0.1160  1.4818
  171SOPE   H7S19328  -0.305   4.006   7.721 -0.4201  0.7269 -0.5331
  171SOPE   C2819329  -0.185   3.925   7.876  0.2656 -0.5187  0.2075
  171SOPE   H8R19330  -0.218   3.821   7.854 -1.6138  0.4306 -1.8459
  171SOPE   H8S19331  -0.075   3.917   7.889 -0.0271 -0.5537  3.6063
  171SOPE   C2919332  -0.255   3.979   8.006 -0.3318  0.0016 -0.1470
  171SOPE   H9119333  -0.329   4.057   7.983 -2.4049 -1.7022  0.2774
  171SOPE  C21019334  -0.247   3.924   8.123  0.0384 -0.3617 -0.3562
  171SOPE  H10119335  -0.291   3.981   8.207 -0.8762 -2.2325  0.4984
  171SOPE  C21119336  -0.171   3.796   8.157 -0.1104  0.0327  0.6552
  171SOPE  H11R19337  -0.106   3.763   8.074 -0.3014 -0.2963  0.6363
  171SOPE  H11S19338  -0.250   3.718   8.160  1.9241 -2.1172  1.0631
  171SOPE  C21219339  -0.090   3.805   8.283 -0.1322  0.1871  0.5381
  171SOPE  H12R19340  -0.047   3.702   8.284  2.1564  0.6944 -5.0578
  171SOPE  H12S19341  -0.156   3.823   8.370 -0.3831 -0.6733  0.5285
  171SOPE  C21319342   0.010   3.919   8.279  0.3974 -0.3909 -0.3940
  171SOPE  H13R19343  -0.020   4.017   8.235  1.7850  1.0639  1.6887
  171SOPE  H13S19344   0.081   3.879   8.204 -0.7585  0.0073 -1.7571
  171SOPE  C21419345   0.082   3.952   8.417  0.0115 -0.1401  0.6301
  171SOPE  H14R19346   0.123   3.856   8.454  0.0291 -1.0247 -1.5220
  171SOPE  H14S19347   0.014   3.995   8.493  0.6476  2.8743 -0.3456
  171SOPE  C21519348   0.192   4.060   8.406  0.2136 -0.5240 -0.8100
  171SOPE  H15R19349   0.159   4.152   8.353 -1.9696 -0.0900  1.1287
  171SOPE  H15S19350   0.284   4.017   8.363  1.1878  0.5348  0.1545
  171SOPE  C21619351   0.226   4.114   8.555 -0.0085  0.0029  0.0739
  171SOPE  H16R19352   0.247   4.030   8.625 -1.6398  1.6481  2.7337
  171SOPE  H16S19353   0.133   4.163   8.593 -1.4216 -0.3168 -2.7557
  171SOPE  C21719354   0.339   4.213   8.559 -0.0334  0.0458  0.5542
  171SOPE  H17R19355   0.357   4.252   8.661  2.7803  4.3403 -1.2856
  171SOPE  H17S19356   0.307   4.297   8.493  0.1574 -0.7417 -0.5604
  171SOPE  C21819357   0.475   4.161   8.509 -0.3253 -0.3556 -0.4578
  171SOPE  H18R19358   0.551   4.238   8.537  1.0823 -1.5297 -0.9191
  171SOPE  H18S19359   0.473   4.142   8.400 -0.8380  1.1671 -0.7428
  171SOPE  H18T19360   0.508   4.067   8.557  0.5075  0.8319  1.4232
  171SOPE   C3319361   0.160   3.457   6.986 -0.7290 -0.3478  0.0611
  171SOPE   H3X19362   0.262   3.416   6.999 -0.6532 -1.3660 -2.9075
  171SOPE   H3Y19363   0.094   3.369   7.004 -1.7679  0.6872  1.6128
  171SOPE   C3419364   0.132   3.568   7.089 -0.3726  0.0364  0.4692
  171SOPE   H4X19365   0.027   3.605   7.080 -0.3352  0.7630  2.5217
  171SOPE   H4Y19366   0.202   3.652   7.073  0.4729 -0.5131  1.1763
  171SOPE   C3519367   0.155   3.524   7.233  0.8047  0.5249  0.1415
  171SOPE   H5X19368   0.262   3.506   7.255  0.8621 -0.3694 -0.7984
  171SOPE   H5Y19369   0.104   3.425   7.242  0.6317  0.6374  0.3991
  171SOPE   C3619370   0.110   3.633   7.332 -0.3636 -0.6084 -0.0865
  171SOPE   H6X19371   0.009   3.670   7.303  0.0055 -0.2631 -0.9639
  171SOPE   H6Y19372   0.186   3.713   7.317 -0.5919 -0.6369 -1.5473
  171SOPE   C3719373   0.104   3.590   7.476  0.1648 -0.2699  0.5229
  171SOPE   H7X19374   0.110   3.678   7.544  0.4749 -1.4732  2.1186
  171SOPE   H7Y19375   0.206   3.548   7.492  0.1996  0.5459  2.8740
  171SOPE   C3819376  -0.013   3.493   7.510  0.7499  0.5657 -0.1537
  171SOPE   H8X19377   0.027   3.390   7.514 -0.7568 -0.0424  0.0570
  171SOPE   H8Y19378  -0.099   3.506   7.441 -0.0929  0.4335  0.8429
  171SOPE   C3919379  -0.078   3.536   7.641 -0.0699 -0.1303 -0.1964
  171SOPE   H9X19380  -0.181   3.494   7.638 -0.1965 -0.0218  1.5307
  171SOPE   H9Y19381  -0.085   3.647   7.643  0.0791 -0.1266  1.5592
  171SOPE  C31019382   0.011   3.491   7.753 -0.1261  0.4021  1.1220
  171SOPE  H10X19383   0.117   3.511   7.726 -0.2121 -0.5835 -0.0377
  171SOPE  H10Y19384  -0.008   3.384   7.775 -2.2995  1.1706  3.4711
  171SOPE  C31119385  -0.015   3.557   7.887 -0.4395 -0.5561 -0.8618
  171SOPE  H11X19386  -0.122   3.583   7.897 -0.0066  0.8697  0.4732
  171SOPE  H11Y19387   0.064   3.634   7.899 -0.5039 -0.8285  2.3702
  171SOPE  C31219388   0.011   3.460   8.005 -0.0393 -0.2045  0.2984
  171SOPE  H12X19389  -0.059   3.373   8.002 -0.7366  0.3467 -2.5823
  171SOPE  H12Y19390  -0.005   3.522   8.095 -1.6182 -0.4110  0.1953
  171SOPE  C31319391   0.150   3.384   8.000 -0.2981 -0.2124 -0.1640
  171SOPE  H13X19392   0.233   3.448   7.962 -0.2810 -0.0551  0.1381
  171SOPE  H13Y19393   0.142   3.312   7.916  0.2732 -0.7529  0.2422
  171SOPE  C31419394   0.206   3.326   8.132  0.4494  0.2862  0.2858
  171SOPE  H14X19395   0.130   3.257   8.176  1.3703 -1.1755 -0.3416
  171SOPE  H14Y19396   0.216   3.409   8.205 -2.1669  1.5003 -0.6132
  171SOPE  C31519397   0.333   3.247   8.110  0.2665  0.4485  0.7464
  171SOPE  H15X19398   0.395   3.303   8.037 -1.8219 -0.0654 -1.5382
  171SOPE  H15Y19399   0.317   3.147   8.065 -0.5074 -0.1734  2.3104
  171SOPE  C31619400   0.407   3.222   8.246  0.2339 -0.4857 -0.1458
  171SOPE  H16X19401   0.331   3.175   8.312 -1.4108  2.2068  0.0202
  171SOPE  H16Y19402   0.444   3.318   8.287  3.5694 -1.1282 -1.3535
  171SOPE  C31719403   0.534   3.136   8.239 -0.1614  0.9995  0.0358
  171SOPE  H17X19404   0.563   3.107   8.342  1.1779  0.1951 -0.5336
  171SOPE  H17Y19405   0.612   3.210   8.212 -0.8535  0.7678 -2.9252
  171SOPE  C31819406   0.551   3.010   8.150  0.1532 -0.0912 -0.7265
  171SOPE  H18X19407   0.505   3.028   8.050 -1.1899  2.6148  0.2683
  171SOPE  H18Y19408   0.500   2.932   8.210  1.1127  0.0029  0.2410
  171SOPE  H18Z19409   0.657   2.979   8.139  0.0167 -0.5104 -0.8745
  172SOPE     N19410   1.511   5.128   6.114  0.0292  0.8637 -0.4272
  172SOPE   HN119411   1.592   5.091   6.167 -0.4958  1.3036  0.7226
  172SOPE   HN219412   1.421   5.099   6.158  0.5904  1.7219  1.4243
  172SOPE   HN319413   1.513   5.092   6.017  1.2374  0.4469 -0.2571
  172SOPE   C1219414   1.509   5.281   6.106  0.1096  0.6287  0.0744
  172SOPE  H12A19415   1.421   5.314   6.047  0.7508  2.5648  0.1522
  172SOPE  H12B19416   1.609   5.316   6.074 -0.2178  0.7010 -0.9119
  172SOPE   C1119417   1.491   5.339   6.246 -0.3781 -0.2901 -1.1078
  172SOPE  H11A19418   1.512   5.447   6.241 -1.7534  0.2036  1.5921
  172SOPE  H11B19419   1.558   5.285   6.316  0.5702 -0.6295 -2.2562
  172SOPE     P19420   1.311   5.376   6.433 -0.1379 -0.8852 -0.2550
  172SOPE   O1319421   1.209   5.281   6.485  0.1250 -0.7818  0.0930
  172SOPE   O1419422   1.279   5.516   6.411  0.4285  0.0189  0.0550
  172SOPE   O1219423   1.356   5.315   6.297  0.8788 -0.1542 -0.1146
  172SOPE   O1119424   1.432   5.366   6.525 -0.4129  0.2425  0.6465
  172SOPE    C119425   1.494   5.244   6.551  0.6846  0.4285 -0.3463
  172SOPE    HA19426   1.603   5.256   6.566  0.3028  0.9276  2.4971
  172SOPE    HB19427   1.479   5.167   6.472  1.9913 -0.0995 -0.1000
  172SOPE    C219428   1.459   5.183   6.683  0.2068  1.1415  0.0783
  172SOPE    HS19429   1.354   5.147   6.676  0.1578  1.0930  0.9344
  172SOPE   O2119430   1.469   5.268   6.792  0.0220  0.5085  0.4253
  172SOPE   C2119431   1.362   5.293   6.852 -0.1185 -0.4143  0.3456
  172SOPE   O2219432   1.260   5.224   6.846  0.0252 -0.9715 -0.4654
  172SOPE   C2219433   1.375   5.425   6.936 -0.4525  0.0225  0.3164
  172SOPE   H2R19434   1.384   5.511   6.866  1.9843 -1.0597 -0.8233
  172SOPE   H2S19435   1.472   5.422   6.990 -0.5676  0.3396  0.5448
  172SOPE    C319436   1.549   5.056   6.713 -0.0261  0.0290 -0.1698
  172SOPE    HX19437   1.652   5.096   6.719 -0.8866  2.7571 -1.7465
  172SOPE    HY19438   1.543   4.996   6.619 -0.3624 -0.6185  0.2532
  172SOPE   O3119439   1.503   4.988   6.830 -0.3267  0.4178 -0.3362
  172SOPE   C3119440   1.395   4.907   6.812 -1.0074 -0.7081  0.1832
  172SOPE   O3219441   1.336   4.891   6.706 -0.1100  0.3485  0.2524
  172SOPE   C3219442   1.349   4.860   6.945 -0.1180 -0.2440 -0.0212
  172SOPE   H2X19443   1.299   4.762   6.928 -1.6341  0.1005  2.0861
  172SOPE   H2Y19444   1.274   4.932   6.982  0.2991 -0.3423  1.0552
  172SOPE   C2319445   1.263   5.462   7.031  0.1843  0.9114 -0.4726
  172SOPE   H3R19446   1.166   5.433   6.985  0.1366  0.1474  0.0803
  172SOPE   H3S19447   1.261   5.571   7.054  1.0995  0.5973  1.3122
  172SOPE   C2419448   1.269   5.416   7.177  0.0289 -0.1637 -0.7099
  172SOPE   H4R19449   1.243   5.308   7.177 -1.4533  0.1740 -0.2934
  172SOPE   H4S19450   1.368   5.414   7.227 -0.5861  0.1363  0.5789
  172SOPE   C2519451   1.177   5.486   7.272  0.5629 -0.8490 -0.0515
  172SOPE   H5R19452   1.205   5.591   7.250  0.2575 -0.9573 -1.0055
  172SOPE   H5S19453   1.072   5.478   7.238  0.0472  2.8783  0.2705
  172SOPE   C2619454   1.196   5.439   7.413 -0.7374 -0.0058  0.5774
  172SOPE   H6R19455   1.172   5.331   7.420 -2.2863  0.2521 -0.1533
  172SOPE   H6S19456   1.302   5.456   7.441 -0.7293 -1.7417  1.7657
  172SOPE   C2719457   1.113   5.520   7.509  0.2096  0.5197 -0.4000
  172SOPE   H7R19458   1.009   5.519   7.471  0.1549 -2.0278 -0.3952
  172SOPE   H7S19459   1.108   5.475   7.611 -0.6816 -0.1764 -0.7376
  172SOPE   C2819460   1.172   5.659   7.529  0.3990 -0.2565  0.4145
  172SOPE   H8R19461   1.268   5.648   7.584  1.8112 -1.6639 -2.1184
  172SOPE   H8S19462   1.211   5.702   7.434  0.0387  0.4177  0.5685
  172SOPE   C2919463   1.077   5.758   7.598  0.6982 -0.8613 -0.4916
  172SOPE   H9119464   1.019   5.824   7.532 -0.7081  1.3594  2.6827
  172SOPE  C21019465   1.054   5.774   7.730  0.0120  0.4288  0.3295
  172SOPE  H10119466   0.988   5.859   7.754  0.0569  0.5983 -0.1349
  172SOPE  C21119467   1.115   5.700   7.843 -0.1132 -0.4653  0.3147
  172SOPE  H11R19468   1.147   5.763   7.929 -1.6604  0.4652  0.2347
  172SOPE  H11S19469   1.209   5.652   7.809  0.3442  1.7098 -1.7033
  172SOPE  C21219470   1.029   5.588   7.903 -0.2617  0.1781  0.0123
  172SOPE  H12R19471   1.032   5.492   7.846 -0.2056 -1.3419  2.4101
  172SOPE  H12S19472   0.924   5.623   7.908  0.3111  3.0160 -3.6548
  172SOPE  C21319473   1.082   5.544   8.038 -0.4882  0.2618 -0.1947
  172SOPE  H13R19474   1.095   5.636   8.100 -2.3124 -0.2004  0.9445
  172SOPE  H13S19475   1.182   5.504   8.012 -1.1718 -1.6531 -0.0424
  172SOPE  C21419476   0.998   5.434   8.111 -0.3793 -0.2586 -0.0435
  172SOPE  H14R19477   0.997   5.344   8.046 -1.3446 -0.9292  0.8807
  172SOPE  H14S19478   0.893   5.469   8.121 -0.4875  1.2472 -4.3285
  172SOPE  C21519479   1.045   5.394   8.250  0.2236  0.3287  0.4425
  172SOPE  H15R19480   1.150   5.360   8.243 -0.6860 -2.9371  0.8809
  172SOPE  H15S19481   0.986   5.302   8.272  1.3792 -0.0397  2.1886
  172SOPE  C21619482   1.020   5.513   8.352 -0.5505 -0.4592 -0.4463
  172SOPE  H16R19483   1.071   5.604   8.314  3.5075 -2.0817  0.6694
  172SOPE  H16S19484   1.075   5.490   8.445  0.6125 -0.8577 -1.2167
  172SOPE  C21719485   0.875   5.542   8.393  0.5423  0.1782  0.2306
  172SOPE  H17R19486   0.838   5.440   8.418 -0.9746  0.9859  1.4800
  172SOPE  H17S19487   0.821   5.586   8.307 -1.8415 -0.9765  1.0273
  172SOPE  C21819488   0.845   5.628   8.514 -0.1577 -0.2218  0.2023
  172SOPE  H18R19489   0.864   5.734   8.490 -1.0857  0.5362  2.5295
  172SOPE  H18S19490   0.917   5.602   8.594  0.7204 -1.6230 -0.9822
  172SOPE  H18T19491   0.738   5.621   8.546 -1.0474  4.4360 -1.0387
  172SOPE   C3319492   1.459   4.857   7.057 -1.0640 -0.2283  0.1119
  172SOPE   H3X19493   1.517   4.952   7.054 -0.2676 -0.6734  1.0160
  172SOPE   H3Y19494   1.535   4.783   7.024 -0.8813  0.4567 -1.0563
  172SOPE   C3419495   1.418   4.821   7.204 -0.1564 -0.0977 -1.0113
  172SOPE   H4X19496   1.504   4.784   7.265 -0.5487  1.6431  0.7151
  172SOPE   H4Y19497   1.344   4.738   7.199 -0.7836  0.4334 -0.7186
  172SOPE   C3519498   1.376   4.948   7.276  0.3848 -0.2420 -0.1507
  172SOPE   H5X19499   1.290   4.988   7.219  0.0339 -2.6736 -1.4280
  172SOPE   H5Y19500   1.450   5.030   7.289  1.5513 -1.3718  0.5100
  172SOPE   C3619501   1.329   4.928   7.421  0.8660 -0.5874 -0.0782
  172SOPE   H6X19502   1.413   4.886   7.481  2.6502 -0.1837 -2.1468
  172SOPE   H6Y19503   1.243   4.858   7.432 -2.4566  3.2012  0.0097
  172SOPE   C3719504   1.261   5.060   7.478 -0.7852  0.1720  0.5087
  172SOPE   H7X19505   1.176   5.090   7.412  0.9548  1.4839 -1.2500
  172SOPE   H7Y19506   1.337   5.140   7.491  2.1033 -2.5427  1.4930
  172SOPE   C3819507   1.225   5.042   7.626  0.1174  0.3908  0.4251
  172SOPE   H8X19508   1.318   5.028   7.685  0.0817 -0.7748  0.2194
  172SOPE   H8Y19509   1.167   4.948   7.641  2.3861 -0.8406  2.2044
  172SOPE   C3919510   1.161   5.181   7.671  0.9520  0.0567 -0.3600
  172SOPE   H9X19511   1.063   5.201   7.622  0.2614 -0.2745  0.8384
  172SOPE   H9Y19512   1.228   5.268   7.652  0.5861  1.2173  2.9754
  172SOPE  C31019513   1.121   5.179   7.818 -0.0467  0.4365  0.0948
  172SOPE  H10X19514   1.034   5.113   7.842 -0.4329  0.5944 -0.8484
  172SOPE  H10Y19515   1.092   5.281   7.852 -0.0006  1.2050 -2.0310
  172SOPE  C31119516   1.248   5.143   7.897 -0.5172 -0.5813 -0.5509
  172SOPE  H11X19517   1.342   5.183   7.853 -0.9498 -0.0561 -1.0176
  172SOPE  H11Y19518   1.251   5.033   7.914 -0.7975 -0.3289  1.3972
  172SOPE  C31219519   1.238   5.204   8.038 -0.6330 -0.8544 -0.1903
  172SOPE  H12X19520   1.139   5.173   8.078 -0.5899  0.0869  0.6988
  172SOPE  H12Y19521   1.238   5.315   8.037  1.2914 -0.8094  0.4571
  172SOPE  C31319522   1.360   5.161   8.122  0.3457 -0.3095 -0.2490
  172SOPE  H13X19523   1.447   5.225   8.099  0.7662  0.1332  2.2953
  172SOPE  H13Y19524   1.377   5.054   8.097  0.3721  0.1617 -2.3673
  172SOPE  C31419525   1.328   5.170   8.276  0.2525  0.1211  0.0391
  172SOPE  H14X19526   1.225   5.131   8.291 -0.5157  1.1793 -1.9785
  172SOPE  H14Y19527   1.323   5.270   8.324  1.3907  0.1091  0.2091
  172SOPE  C31519528   1.435   5.090   8.348  0.5579  0.5459 -0.9621
  172SOPE  H15X19529   1.535   5.138   8.351  0.9161 -0.1566  2.1965
  172SOPE  H15Y19530   1.439   4.988   8.303 -3.6731 -0.0943 -0.3611
  172SOPE  C31619531   1.406   5.071   8.501 -0.0124 -0.1523  0.2698
  172SOPE  H16X19532   1.389   5.173   8.543 -2.0276  0.3213 -1.5193
  172SOPE  H16Y19533   1.491   5.025   8.555 -0.1559  2.2377  2.8020
  172SOPE  C31719534   1.290   4.977   8.538 -0.0165  0.7989 -0.7239
  172SOPE  H17X19535   1.335   4.876   8.540  2.4041  1.7845  1.4164
  172SOPE  H17Y19536   1.204   4.976   8.468 -0.9215  0.7453  0.3685
  172SOPE  C31819537   1.220   5.006   8.670  0.1852  0.0729  0.0525
  172SOPE  H18X19538   1.296   5.025   8.749 -0.5628  3.1276  0.1757
  172SOPE  H18Y19539   1.154   4.928   8.713  0.2011  0.1678  0.2494
  172SOPE  H18Z19540   1.160   5.099   8.675 -1.2712 -0.7616 -1.0928
  173SAPI   C1219541   1.669   1.797  10.452 -0.5593  0.0127  1.0574
  173SAPI    H219542   1.661   1.907  10.435  0.8894  0.0943  0.8093
  173SAPI    O219543   1.581   1.744  10.348 -0.2266  0.8318 -0.0675
  173SAPI   HO219544   1.496   1.730  10.391 -0.0505 -1.9448 -0.3923
  173SAPI   C1319545   1.813   1.758  10.434  0.1895 -0.6996  0.3140
  173SAPI    H319546   1.872   1.799  10.519  0.6141  0.4936 -0.5296
  173SAPI    O319547   1.863   1.810  10.310 -0.4811 -0.5217  0.4126
  173SAPI   HO319548   1.821   1.772  10.232  0.5357  2.2947 -1.6892
  173SAPI   C1419549   1.830   1.609  10.444  0.9827 -0.2380 -0.4445
  173SAPI    H419550   1.764   1.560  10.369  0.3516  0.9750 -0.7080
  173SAPI    O419551   1.961   1.570  10.413  0.0388 -0.6973 -0.0126
  173SAPI   HO419552   1.955   1.497  10.350  1.1442 -0.9155  0.1134
  173SAPI   C1519553   1.774   1.563  10.576  0.4702 -0.2905 -0.5822
  173SAPI    H519554   1.841   1.618  10.646  2.5384 -3.2679 -0.0359
  173SAPI    O519555   1.806   1.430  10.614 -0.7075  0.1290 -0.0456
  173SAPI   HO519556   1.760   1.366  10.559 -1.4674  0.1166  0.5845
  173SAPI   C1619557   1.627   1.605  10.603  0.2318  0.1827 -0.3840
  173SAPI    H619558   1.571   1.555  10.521 -1.0148  0.4496  0.2792
  173SAPI    O619559   1.574   1.563  10.734  0.5765 -0.0971 -0.0595
  173SAPI   HO619560   1.479   1.574  10.740  0.3453 -2.1062  0.7920
  173SAPI   C1119561   1.616   1.754  10.586 -0.5896 -0.5279  0.3407
  173SAPI    H119562   1.679   1.802  10.664 -0.0701 -2.6755  1.3300
  173SAPI     P19563   1.434   1.932  10.675  0.0924  0.3468  0.1485
  173SAPI   O1319564   1.529   1.976  10.780  0.1842 -0.2868 -0.0027
  173SAPI   O1419565   1.300   1.895  10.730  0.9431 -0.1946 -0.5188
  173SAPI   O1219566   1.479   1.793  10.607  0.0521  0.3032  1.0938
  173SAPI   O1119567   1.428   2.041  10.564  0.2473 -0.0071  0.2267
  173SAPI    C119568   1.331   2.044  10.457  0.6222  0.3442 -0.2565
  173SAPI    HA19569   1.349   1.946  10.408  1.4533 -1.3205  3.0808
  173SAPI    HB19570   1.228   2.042  10.501  0.2605 -0.6358 -1.1068
  173SAPI    C219571   1.349   2.154  10.357  0.3498  0.3500 -0.2913
  173SAPI    HS19572   1.294   2.123  10.265  4.9429 -2.4807 -2.4387
  173SAPI   O2119573   1.487   2.161  10.323  0.3140 -0.0654 -0.1709
  173SAPI   C2119574   1.525   2.070  10.234 -0.3475  0.0871  0.8371
  173SAPI   O2219575   1.452   1.988  10.175  0.1428 -1.0690 -0.7617
  173SAPI   C2219576   1.673   2.087  10.193  0.0278  0.1015  0.9953
  173SAPI   H2R19577   1.684   2.188  10.150  0.3485 -0.5953 -0.6515
  173SAPI   H2S19578   1.737   2.074  10.284  1.6153 -1.8973 -0.2993
  173SAPI    C319579   1.296   2.292  10.404  0.2148 -0.1233 -0.6697
  173SAPI    HX19580   1.357   2.322  10.492 -0.8873 -1.3303  0.5505
  173SAPI    HY19581   1.189   2.289  10.433 -0.2533  2.4489 -1.8685
  173SAPI   O3119582   1.312   2.389  10.297  0.5997  0.1857  0.3048
  173SAPI   C3119583   1.412   2.473  10.306 -0.6522 -0.3844  0.0436
  173SAPI   O3219584   1.486   2.493  10.403  0.2757  0.0579 -0.3062
  173SAPI   C3219585   1.415   2.556  10.177  0.8009 -0.0712  0.4127
  173SAPI   H2X19586   1.512   2.609  10.166  1.1095 -0.6653  0.2075
  173SAPI   H2Y19587   1.342   2.640  10.179  0.3587 -0.4533  0.5234
  173SAPI   C2319588   1.731   1.979  10.095  0.3608 -0.3254  0.0366
  173SAPI   H3R19589   1.691   1.877  10.116  0.4626 -1.1278 -3.1541
  173SAPI   H3S19590   1.842   1.982  10.099  0.6483 -4.7026 -0.3065
  173SAPI   C2419591   1.693   2.019   9.951 -0.0171  0.3330 -0.0879
  173SAPI   H4R19592   1.583   2.032   9.956  0.1966  2.0820  0.6483
  173SAPI   H4S19593   1.717   1.934   9.883 -2.2535 -2.0862  1.9708
  173SAPI   C2519594   1.750   2.147   9.895 -0.0206 -0.0638  0.0060
  173SAPI   H5R19595   1.723   2.231   9.961 -1.3518 -2.4331  2.6777
  173SAPI   C2619596   1.813   2.169   9.780  0.5723  0.6052 -0.1869
  173SAPI   H6R19597   1.836   2.276   9.768  0.5806  0.5296 -0.8810
  173SAPI   C2719598   1.847   2.062   9.676  0.2932  0.1672 -0.2731
  173SAPI   H7R19599   1.751   2.037   9.627 -0.3872 -1.3663  1.7164
  173SAPI   H7S19600   1.877   1.965   9.722 -2.0417 -0.1029  0.7946
  173SAPI   C2819601   1.962   2.122   9.601  0.4802 -0.8288 -0.5558
  173SAPI   H8R19602   2.053   2.081   9.648  1.5548  2.4497  0.4959
  173SAPI   C2919603   1.967   2.173   9.474  0.3726 -0.3138 -0.2296
  173SAPI   H9R19604   2.060   2.217   9.436 -0.9514  2.5329 -0.4532
  173SAPI  C21019605   1.844   2.196   9.391 -0.4531 -0.0480 -0.4803
  173SAPI  H10R19606   1.856   2.288   9.330  1.0077  0.0875 -0.0152
  173SAPI  H10S19607   1.760   2.211   9.463  0.3494  3.1907 -0.0678
  173SAPI  C21119608   1.817   2.063   9.315 -0.3693 -1.0064 -0.2008
  173SAPI  H11R19609   1.755   1.987   9.366 -1.8839 -0.2492 -0.8315
  173SAPI  C21219610   1.843   2.045   9.180  0.5559  0.0084  0.0603
  173SAPI  H12R19611   1.834   1.945   9.136 -1.2221  0.1556  0.0215
  173SAPI  C21319612   1.893   2.143   9.073  1.0999 -0.2955 -0.8552
  173SAPI  H13R19613   1.985   2.107   9.023  0.5477 -3.4348  0.1481
  173SAPI  H13S19614   1.914   2.234   9.133 -0.3956 -2.4037  3.2701
  173SAPI  C21419615   1.785   2.193   8.988  0.5443 -0.4134  0.9980
  173SAPI  H14R19616   1.690   2.216   9.039 -1.2368 -0.2905 -2.1419
  173SAPI  C21519617   1.797   2.217   8.855  0.0974 -0.8018 -0.0549
  173SAPI  H15R19618   1.715   2.274   8.809  0.6024  1.7784  2.0029
  173SAPI  C21619619   1.917   2.199   8.776 -0.1551 -0.5008  0.3846
  173SAPI  H16R19620   1.920   2.095   8.737  0.3097 -0.2402 -0.2868
  173SAPI  H16S19621   2.010   2.221   8.832 -0.8447  0.7176  1.0855
  173SAPI  C21719622   1.928   2.294   8.653  0.3161  0.7458 -0.0654
  173SAPI  H17R19623   1.846   2.283   8.579 -0.3511 -3.4765  1.0250
  173SAPI  H17S19624   2.026   2.278   8.603 -0.2430  0.9644 -1.2691
  173SAPI  C21819625   1.928   2.449   8.687  0.3058 -0.0328  0.4440
  173SAPI  H18R19626   2.009   2.465   8.760  0.4359 -0.6572  0.4431
  173SAPI  H18S19627   1.835   2.479   8.741  0.5931 -1.3451  1.7250
  173SAPI  C21919628   1.944   2.530   8.568  0.5913 -0.1527 -0.0838
  173SAPI  H19R19629   1.861   2.527   8.494 -0.1398 -0.4375  0.7248
  173SAPI  H19S19630   2.028   2.489   8.507 -0.0168 -0.2389 -0.8846
  173SAPI  C22019631   1.990   2.676   8.599  0.7379  0.0132  0.9258
  173SAPI  H20R19632   2.089   2.672   8.649  1.2602  1.5616  0.0581
  173SAPI  H20S19633   1.902   2.719   8.653 -0.3676 -0.0352 -0.7632
  173SAPI  H20T19634   2.004   2.735   8.506  0.4458 -0.0043  0.8689
  173SAPI   C3319635   1.411   2.466  10.044  0.0895  0.1018  0.2537
  173SAPI   H3X19636   1.308   2.432  10.023  1.0237 -2.4619 -0.5804
  173SAPI   H3Y19637   1.477   2.378  10.059 -0.0194  0.0422  0.3755
  173SAPI   C3419638   1.436   2.560   9.925 -0.3414  0.5807 -0.6862
  173SAPI   H4X19639   1.535   2.610   9.929 -1.1477  2.2576 -0.4802
  173SAPI   H4Y19640   1.365   2.646   9.924  0.2440  1.1331  1.1176
  173SAPI   C3519641   1.415   2.497   9.790 -0.0547 -0.8887  0.1658
  173SAPI   H5X19642   1.379   2.585   9.731  0.5715 -0.4265  0.4598
  173SAPI   H5Y19643   1.342   2.414   9.779 -0.3968 -0.2800 -3.7807
  173SAPI   C3619644   1.539   2.427   9.734 -0.5614 -0.3799 -0.4997
  173SAPI   H6X19645   1.549   2.325   9.776  1.0391  0.2226  0.6736
  173SAPI   H6Y19646   1.622   2.496   9.759 -1.5224  0.7103 -0.2016
  173SAPI   C3719647   1.537   2.428   9.582 -0.2726 -0.0610 -0.7027
  173SAPI   H7X19648   1.430   2.408   9.561 -0.4905 -0.0163  0.3133
  173SAPI   H7Y19649   1.588   2.335   9.548 -0.4796 -0.3970 -0.0988
  173SAPI   C3819650   1.607   2.549   9.521 -0.4751 -0.4313  0.8610
  173SAPI   H8X19651   1.716   2.531   9.508 -0.4676  0.0578  0.1848
  173SAPI   H8Y19652   1.600   2.637   9.589  0.3567 -0.2523  0.7287
  173SAPI   C3919653   1.545   2.619   9.399  0.8713 -0.5670 -0.0716
  173SAPI   H9X19654   1.596   2.717   9.388  1.3839 -0.7339  0.7496
  173SAPI   H9Y19655   1.436   2.643   9.407  1.1716  1.2577 -0.9396
  173SAPI  C31019656   1.549   2.525   9.283 -0.1400  0.0239  0.3438
  173SAPI  H10X19657   1.492   2.430   9.293  2.5394 -1.8471 -1.0706
  173SAPI  H10Y19658   1.654   2.490   9.271 -0.4341 -2.1762  3.1497
  173SAPI  C31119659   1.497   2.590   9.155  0.3974  0.2071 -0.0293
  173SAPI  H11X19660   1.547   2.689   9.150  0.3660  0.3716  1.9780
  173SAPI  H11Y19661   1.388   2.615   9.155  0.5058  1.0204 -2.6294
  173SAPI  C31219662   1.515   2.495   9.035  0.4812 -0.2555 -0.1773
  173SAPI  H12X19663   1.543   2.398   9.081 -0.5052 -1.7376 -2.5294
  173SAPI  H12Y19664   1.591   2.536   8.965 -0.1478  0.1812 -0.6157
  173SAPI  C31319665   1.389   2.464   8.957 -0.0668  0.1316  0.2054
  173SAPI  H13X19666   1.349   2.564   8.930  2.7939  1.0173 -1.1303
  173SAPI  H13Y19667   1.319   2.415   9.028 -0.6259  2.0323  1.0223
  173SAPI  C31419668   1.402   2.380   8.832 -0.3976  0.2420 -0.2451
  173SAPI  H14X19669   1.299   2.383   8.789 -1.1394 -0.5446  1.3861
  173SAPI  H14Y19670   1.434   2.277   8.861  0.8558  0.8742  0.7069
  173SAPI  C31519671   1.497   2.439   8.723  0.1024  0.1727 -0.1388
  173SAPI  H15X19672   1.602   2.438   8.757  0.9044  0.9683 -2.3987
  173SAPI  H15Y19673   1.489   2.550   8.714 -0.3256  0.2100  0.5797
  173SAPI  C31619674   1.487   2.370   8.587 -0.3606  0.2744  0.0798
  173SAPI  H16X19675   1.382   2.398   8.564  0.2512  1.4223 -1.5528
  173SAPI  H16Y19676   1.503   2.260   8.587 -0.6680  0.2152  1.3251
  173SAPI  C31719677   1.582   2.427   8.482 -0.3232  0.4014  0.3071
  173SAPI  H17X19678   1.689   2.413   8.510 -0.7518  0.3802  2.0641
  173SAPI  H17Y19679   1.564   2.537   8.483  1.0026  0.7052 -2.1682
  173SAPI  C31819680   1.567   2.357   8.347  0.5725 -0.2296 -0.0896
  173SAPI  H18X19681   1.471   2.391   8.303  0.1996  0.8348  1.4748
  173SAPI  H18Y19682   1.558   2.246   8.350 -1.8022 -0.0900 -0.3184
  173SAPI  H18Z19683   1.647   2.390   8.277 -1.2005  0.9936 -1.6643
  174SAPI   C1219684   4.049   5.932  10.791 -0.0779 -0.5519  0.7408
  174SAPI    H219685   4.154   5.965  10.778 -0.5383  0.4051 -0.8866
  174SAPI    O219686   4.040   5.800  10.744  0.5533  0.0371  0.0440
  174SAPI   HO219687   4.052   5.802  10.649 -0.0390  0.1373 -0.0357
  174SAPI   C1319688   3.993   5.948  10.935  0.1630 -0.6988  0.1183
  174SAPI    H319689   3.996   6.058  10.946 -1.9067 -0.3539 -1.8741
  174SAPI    O319690   4.063   5.892  11.045 -0.0520  0.1741  0.9363
  174SAPI   HO319691   4.040   5.944  11.122 -2.6939 -1.4215  1.3516
  174SAPI   C1419692   3.847   5.898  10.930 -0.7127 -0.6246 -0.0736
  174SAPI    H419693   3.853   5.794  10.890  1.5818 -0.5204 -0.0937
  174SAPI    O419694   3.777   5.901  11.049 -0.2115  0.4509  0.0526
  174SAPI   HO419695   3.690   5.862  11.035 -0.3360  1.5900 -3.3126
  174SAPI   C1519696   3.771   5.988  10.837  0.2167 -0.2443  1.1343
  174SAPI    H519697   3.787   6.090  10.877 -2.2860  0.0651  1.4576
  174SAPI    O519698   3.632   5.955  10.828 -0.0584 -0.0063  0.1541
  174SAPI   HO519699   3.589   6.033  10.792 -0.6828 -0.7104 -0.6557
  174SAPI   C1619700   3.825   5.983  10.698  0.3842  0.1853  0.2212
  174SAPI    H619701   3.815   5.876  10.668 -1.2281  0.3052  0.2310
  174SAPI    O619702   3.752   6.073  10.612 -0.4925  0.3840 -0.3254
  174SAPI   HO619703   3.823   6.112  10.561 -0.2659  1.6792  0.9434
  174SAPI   C1119704   3.970   6.030  10.702  0.5537 -0.4192  0.0324
  174SAPI    H119705   3.978   6.131  10.748 -1.0963 -1.0155  1.7888
  174SAPI     P19706   4.103   6.150  10.496  0.2096  0.1128 -0.0682
  174SAPI   O1319707   4.163   6.110  10.370  0.1769 -0.1821  0.2440
  174SAPI   O1419708   4.176   6.243  10.582 -0.4873 -0.9180 -0.1178
  174SAPI   O1219709   4.039   6.026  10.572  0.2342 -0.0303 -0.0812
  174SAPI   O1119710   3.969   6.223  10.458 -0.9997  0.1039  0.6533
  174SAPI    C119711   3.889   6.193  10.343  0.0650 -0.1440  0.1141
  174SAPI    HA19712   3.866   6.085  10.333 -0.0561 -0.0365 -0.8729
  174SAPI    HB19713   3.795   6.252  10.345 -0.4409 -0.9647  1.0442
  174SAPI    C219714   3.958   6.217  10.202  0.4262 -0.2807 -0.5570
  174SAPI    HS19715   4.049   6.153  10.195  0.2261 -0.4149 -2.2642
  174SAPI   O2119716   3.985   6.352  10.196  0.2666 -0.3464 -0.0283
  174SAPI   C2119717   4.100   6.383  10.139  0.2514  0.1707  0.0800
  174SAPI   O2219718   4.196   6.311  10.126 -0.5806 -0.0089  0.0612
  174SAPI   C2219719   4.093   6.534  10.102  0.5945  0.5961 -0.4216
  174SAPI   H2R19720   4.002   6.557  10.043 -0.2072  0.6039  0.7641
  174SAPI   H2S19721   4.062   6.589  10.194  0.6322  0.0860 -0.0995
  174SAPI    C319722   3.870   6.172  10.087  0.0512 -0.2620  0.2055
  174SAPI    HX19723   3.774   6.228  10.086 -0.6509 -1.3816  1.3004
  174SAPI    HY19724   3.842   6.065  10.099  0.5126 -0.1376  3.1892
  174SAPI   O3119725   3.940   6.192   9.962  0.0216 -0.5666  0.9452
  174SAPI   C3119726   3.995   6.086   9.913 -0.6785 -0.1110  0.3199
  174SAPI   O3219727   3.973   5.971   9.944 -0.2697 -0.0468  0.0018
  174SAPI   C3219728   4.095   6.131   9.796  0.1091 -0.2564  0.7603
  174SAPI   H2X19729   4.170   6.196   9.846 -1.6539  1.5514  1.1749
  174SAPI   H2Y19730   4.045   6.200   9.725  0.8927 -1.7285 -1.3296
  174SAPI   C2319731   4.225   6.582  10.036  0.1614 -0.2107 -0.6847
  174SAPI   H3R19732   4.309   6.552  10.102 -1.3466  0.7671  1.8017
  174SAPI   H3S19733   4.210   6.691  10.021 -1.2777 -0.6067 -2.5326
  174SAPI   C2419734   4.247   6.532   9.896  0.0459  0.0221 -1.0125
  174SAPI   H4R19735   4.282   6.426   9.902  2.0537  0.7333  2.2150
  174SAPI   H4S19736   4.339   6.580   9.855  0.3020 -0.7850 -1.4093
  174SAPI   C2519737   4.134   6.540   9.797  0.5885 -0.7559 -0.0710
  174SAPI   H5R19738   4.036   6.517   9.842  1.0825 -3.6035 -0.2406
  174SAPI   C2619739   4.154   6.551   9.667 -0.1431  0.5516 -0.2852
  174SAPI   H6R19740   4.070   6.550   9.595 -0.1607  2.0166 -0.3009
  174SAPI   C2719741   4.285   6.576   9.596  0.0220  0.5406 -0.3570
  174SAPI   H7R19742   4.322   6.481   9.553 -0.5060 -0.2369  0.8400
  174SAPI   H7S19743   4.368   6.606   9.663  0.1607  0.1425 -0.3447
  174SAPI   C2819744   4.288   6.694   9.495  0.0814 -0.5735  0.0713
  174SAPI   H8R19745   4.321   6.783   9.550 -0.1155 -0.6942  0.3913
  174SAPI   C2919746   4.275   6.703   9.359 -0.2205 -0.3129 -0.7650
  174SAPI   H9R19747   4.262   6.805   9.320 -1.9463 -0.2866 -0.1892
  174SAPI  C21019748   4.244   6.593   9.259  0.0499 -0.0530 -0.2753
  174SAPI  H10R19749   4.165   6.633   9.192 -2.2482 -0.6122  1.9693
  174SAPI  H10S19750   4.201   6.508   9.316  0.4057  0.9246  1.5517
  174SAPI  C21119751   4.375   6.556   9.195  0.1870  0.0325 -0.2337
  174SAPI  H11R19752   4.460   6.536   9.262  2.1112  0.8179 -2.3356
  174SAPI  C21219753   4.410   6.561   9.070 -0.0885  0.1457  0.1707
  174SAPI  H12R19754   4.508   6.515   9.051  0.3506  0.0617  2.3948
  174SAPI  C21319755   4.320   6.604   8.960 -0.2914  0.4644  0.2296
  174SAPI  H13R19756   4.393   6.657   8.895  1.5051  0.2736  1.9920
  174SAPI  H13S19757   4.251   6.684   8.994  0.7585  1.7479 -0.5381
  174SAPI  C21419758   4.242   6.493   8.902  0.4860  0.7090 -0.1165
  174SAPI  H14R19759   4.270   6.400   8.953 -3.4989 -1.5197 -1.5457
  174SAPI  C21519760   4.174   6.490   8.791  0.3797  0.8937  0.4170
  174SAPI  H15R19761   4.128   6.397   8.753  1.5287 -0.1198  1.4255
  174SAPI  C21619762   4.170   6.601   8.686  0.0941 -0.1709 -0.1849
  174SAPI  H16R19763   4.206   6.697   8.729 -0.2031  0.0350 -0.3954
  174SAPI  H16S19764   4.065   6.610   8.652  0.5413 -0.1881 -1.6562
  174SAPI  C21719765   4.266   6.571   8.571 -0.5644  0.0744  0.4077
  174SAPI  H17R19766   4.209   6.508   8.499  0.2013 -0.6777  0.4514
  174SAPI  H17S19767   4.357   6.514   8.601  0.1835  1.4411  0.8197
  174SAPI  C21819768   4.326   6.700   8.498 -0.3128  0.1615  0.1371
  174SAPI  H18R19769   4.354   6.784   8.565  1.5658  1.4634 -2.1070
  174SAPI  H18S19770   4.247   6.724   8.423 -1.8894 -1.2576  1.2664
  174SAPI  C21919771   4.446   6.665   8.406  0.4425  0.0348 -0.0766
  174SAPI  H19R19772   4.439   6.721   8.311 -1.3602  2.2078  1.2093
  174SAPI  H19S19773   4.442   6.557   8.381 -0.9587 -0.2330  1.1152
  174SAPI  C22019774   4.582   6.718   8.468 -0.4733 -0.9521  0.6607
  174SAPI  H20R19775   4.560   6.820   8.505  0.5362  0.2828 -1.8677
  174SAPI  H20S19776   4.671   6.719   8.401  0.1403 -0.0268  1.4704
  174SAPI  H20T19777   4.612   6.662   8.559  1.5585  1.4707  1.5970
  174SAPI   C3319778   4.150   6.010   9.723 -0.2537 -0.0399  0.1859
  174SAPI   H3X19779   4.071   5.951   9.672 -0.2899  0.2042 -0.0465
  174SAPI   H3Y19780   4.207   5.951   9.798  0.4525  2.2659  1.5745
  174SAPI   C3419781   4.246   6.039   9.607  0.2473 -0.8025  0.2817
  174SAPI   H4X19782   4.293   5.947   9.565  2.0832  0.5817 -0.8341
  174SAPI   H4Y19783   4.323   6.106   9.650 -1.2626  0.7493  0.6611
  174SAPI   C3519784   4.167   6.113   9.494  0.0587 -0.4920  0.7538
  174SAPI   H5X19785   4.113   6.201   9.536 -0.5928  1.1752 -3.0939
  174SAPI   H5Y19786   4.094   6.046   9.444 -0.7211  1.2325 -0.5197
  174SAPI   C3619787   4.258   6.174   9.383  0.0580  0.8151  0.3310
  174SAPI   H6X19788   4.351   6.218   9.424  0.0899  0.7093  0.3723
  174SAPI   H6Y19789   4.201   6.263   9.347 -1.7300 -0.8028 -1.0752
  174SAPI   C3719790   4.264   6.079   9.255 -0.0374 -0.1197  0.3800
  174SAPI   H7X19791   4.168   6.022   9.252 -0.7336  1.0027  0.5833
  174SAPI   H7Y19792   4.348   6.009   9.272  0.9978  0.5686 -1.6364
  174SAPI   C3819793   4.297   6.152   9.124  0.0289  0.9196  0.1643
  174SAPI   H8X19794   4.401   6.191   9.130 -0.7880  3.5648 -1.2895
  174SAPI   H8Y19795   4.230   6.239   9.103 -3.1287 -1.7786 -2.1406
  174SAPI   C3919796   4.289   6.055   9.001  0.3419  0.0959 -0.8609
  174SAPI   H9X19797   4.197   5.993   9.006  1.2062 -1.2147 -0.7075
  174SAPI   H9Y19798   4.374   5.985   9.018  0.1424  0.1529  0.5247
  174SAPI  C31019799   4.298   6.129   8.877 -0.0097  0.2149 -0.0946
  174SAPI  H10X19800   4.400   6.173   8.871 -0.6978  1.7518 -1.4576
  174SAPI  H10Y19801   4.233   6.219   8.878 -2.3273 -1.3636  0.9740
  174SAPI  C31119802   4.261   6.031   8.758 -0.4309 -0.8116  0.0756
  174SAPI  H11X19803   4.159   5.989   8.770  0.2516 -2.1164  1.6392
  174SAPI  H11Y19804   4.335   5.948   8.759  0.8994  0.3198 -0.8508
  174SAPI  C31219805   4.268   6.093   8.614 -0.1730 -0.6465 -0.3694
  174SAPI  H12X19806   4.374   6.120   8.595 -0.2347  0.0452  0.2157
  174SAPI  H12Y19807   4.219   6.192   8.626  0.5056 -0.4828  1.2994
  174SAPI  C31319808   4.210   6.002   8.507 -0.4433  0.2490  0.5500
  174SAPI  H13X19809   4.101   6.022   8.503 -0.2889  1.0410  0.0862
  174SAPI  H13Y19810   4.228   5.896   8.532  2.1414  0.4467 -0.1802
  174SAPI  C31419811   4.277   6.031   8.367  1.0070 -0.2435  0.2792
  174SAPI  H14X19812   4.384   6.044   8.391  0.3244  0.5623  3.2936
  174SAPI  H14Y19813   4.245   6.131   8.331  2.8104  0.6817  1.1477
  174SAPI  C31519814   4.241   5.930   8.261 -0.7111  0.2188 -0.6560
  174SAPI  H15X19815   4.143   5.954   8.215 -0.3463  2.5307 -0.3483
  174SAPI  H15Y19816   4.241   5.832   8.313  0.3822 -0.2594 -1.4997
  174SAPI  C31619817   4.346   5.931   8.144  0.2094  0.4670 -0.2391
  174SAPI  H16X19818   4.326   5.848   8.072  0.9333 -0.3508  0.4803
  174SAPI  H16Y19819   4.449   5.902   8.176 -0.3726  0.2162  1.5212
  174SAPI  C31719820   4.370   6.067   8.070  0.7438 -0.5367 -0.0829
  174SAPI  H17X19821   4.395   6.145   8.145 -1.5129  0.2282 -0.0465
  174SAPI  H17Y19822   4.274   6.102   8.026  1.2885 -0.3283 -1.1325
  174SAPI  C31819823   4.473   6.063   7.952 -0.3198 -0.2484 -0.4648
  174SAPI  H18X19824   4.532   6.154   7.927  1.0838 -1.2825 -1.0620
  174SAPI  H18Y19825   4.421   6.036   7.857  1.6410 -1.0116 -1.3887
  174SAPI  H18Z19826   4.549   5.984   7.964  0.4614  0.5750  0.1457
  175SAPI   C1219827   1.600   3.463   6.287 -0.8253 -0.7070 -0.4171
  175SAPI    H219828   1.603   3.359   6.326 -0.0333  0.1480  1.9827
  175SAPI    O219829   1.510   3.545   6.363 -0.4440  0.3125  0.0982
  175SAPI   HO219830   1.439   3.537   6.298  0.2451  1.3353 -0.8291
  175SAPI   C1319831   1.746   3.515   6.307 -0.4089 -0.0683 -0.6721
  175SAPI    H319832   1.810   3.446   6.248 -1.8626 -0.7976 -1.4646
  175SAPI    O319833   1.786   3.506   6.441 -0.9053 -0.3577  0.0298
  175SAPI   HO319834   1.832   3.588   6.463  0.0444 -1.3059  1.7612
  175SAPI   C1419835   1.760   3.655   6.249  0.5771  0.1759 -0.3133
  175SAPI    H419836   1.683   3.724   6.290  1.0770  1.1372 -0.9328
  175SAPI    O419837   1.890   3.715   6.282  0.1405 -0.1439 -0.1612
  175SAPI   HO419838   1.875   3.810   6.291  1.3009 -0.0954  1.9678
  175SAPI   C1519839   1.730   3.653   6.098  0.5143  0.4289  0.6309
  175SAPI    H519840   1.800   3.580   6.050  0.7160  1.5231 -0.7932
  175SAPI    O519841   1.752   3.780   6.030  0.5507  1.0869 -0.5166
  175SAPI   HO519842   1.844   3.807   6.042  1.1513 -1.2049  0.5944
  175SAPI   C1619843   1.587   3.604   6.077 -0.3523 -0.0397  0.4107
  175SAPI    H619844   1.520   3.669   6.137  0.7801 -1.0458  2.9075
  175SAPI    O619845   1.554   3.599   5.939  0.2253  0.5674  0.2806
  175SAPI   HO619846   1.459   3.593   5.929  0.4249 -0.5725 -1.3053
  175SAPI   C1119847   1.562   3.464   6.136 -0.2673  0.2765  0.3091
  175SAPI    H119848   1.627   3.392   6.080  0.2718  1.4392 -0.5962
  175SAPI     P19849   1.372   3.270   6.106  0.4620  0.2157  0.1861
  175SAPI   O1319850   1.477   3.200   6.026  0.0856  0.5200 -0.2016
  175SAPI   O1419851   1.236   3.269   6.045 -0.0052 -0.8978  0.1518
  175SAPI   O1219852   1.430   3.424   6.121 -0.4653 -0.1516 -0.5265
  175SAPI   O1119853   1.354   3.212   6.252 -0.0901  0.6879 -0.9164
  175SAPI    C119854   1.261   3.284   6.337 -0.5497 -0.8803 -0.1731
  175SAPI    HA19855   1.293   3.389   6.352 -1.6799 -0.6368  0.6636
  175SAPI    HB19856   1.164   3.268   6.284  0.5405 -1.3636 -2.1434
  175SAPI    C219857   1.246   3.223   6.476 -0.3059 -0.1467  0.3886
  175SAPI    HS19858   1.178   3.293   6.529 -0.4688  0.2734 -0.3730
  175SAPI   O2119859   1.373   3.216   6.540 -0.2070 -0.1453 -0.0809
  175SAPI   C2119860   1.419   3.321   6.611 -0.1685  0.0334 -0.0037
  175SAPI   O2219861   1.352   3.419   6.650  0.6301 -0.2475  0.6265
  175SAPI   C2219862   1.575   3.309   6.636 -0.0994 -0.1140 -0.0092
  175SAPI   H2R19863   1.588   3.205   6.600 -1.4911 -0.8339  1.4248
  175SAPI   H2S19864   1.625   3.381   6.568 -0.6900 -0.2327 -0.5786
  175SAPI    C319865   1.163   3.093   6.465 -0.2032  0.3487  0.0581
  175SAPI    HX19866   1.229   3.013   6.424 -0.5900 -0.5514  1.1203
  175SAPI    HY19867   1.091   3.116   6.384  0.0316  1.1076  0.0565
  175SAPI   O3119868   1.103   3.055   6.588  0.4693 -0.0642 -0.1849
  175SAPI   C3119869   1.019   2.954   6.564 -0.0496  0.7730  0.0893
  175SAPI   O3219870   1.012   2.888   6.461 -0.4673 -0.0946 -0.3559
  175SAPI   C3219871   0.919   2.938   6.675  0.2894  0.3043  0.0703
  175SAPI   H2X19872   0.822   2.911   6.627  0.7363  0.6562 -1.0642
  175SAPI   H2Y19873   0.917   3.024   6.746 -4.6034 -0.0163  0.6959
  175SAPI   C2319874   1.600   3.333   6.790  0.4454 -0.2304  0.2250
  175SAPI   H3R19875   1.526   3.275   6.851  0.5382  2.7552  3.4856
  175SAPI   H3S19876   1.594   3.437   6.826  0.3417 -0.7861  1.9174
  175SAPI   C2419877   1.735   3.282   6.845 -0.8638 -0.3046  0.4160
  175SAPI   H4R19878   1.745   3.175   6.819 -0.6987 -0.5236  1.3419
  175SAPI   H4S19879   1.738   3.293   6.956 -0.4832 -0.0114  0.3805
  175SAPI   C2519880   1.861   3.355   6.789  0.6365  0.1461  0.2909
  175SAPI   H5R19881   1.865   3.344   6.679 -3.0129  2.3508 -0.2285
  175SAPI   C2619882   1.947   3.444   6.854 -0.3030 -0.2481 -0.1608
  175SAPI   H6R19883   2.023   3.493   6.791 -0.7890  1.9044  0.8708
  175SAPI   C2719884   1.945   3.480   7.001 -0.0848  0.1870  0.6260
  175SAPI   H7R19885   1.844   3.504   7.041  0.9453  0.6054  3.1916
  175SAPI   H7S19886   1.994   3.579   7.011  0.6872  0.2371 -2.6393
  175SAPI   C2819887   2.014   3.373   7.086 -0.0714  0.5779  0.1683
  175SAPI   H8R19888   2.058   3.289   7.030 -1.2540  0.4514 -0.6003
  175SAPI   C2919889   2.024   3.367   7.216 -0.4607  0.6791  0.6865
  175SAPI   H9R19890   2.071   3.275   7.254  1.3953  0.7676 -1.2090
  175SAPI  C21019891   1.968   3.467   7.314 -0.5335  0.1428  0.5296
  175SAPI  H10R19892   1.928   3.552   7.254 -0.3144 -1.3021 -1.8064
  175SAPI  H10S19893   2.046   3.498   7.387 -0.5843 -0.8616  1.0247
  175SAPI  C21119894   1.858   3.419   7.401 -0.3014  0.6202  0.2611
  175SAPI  H11R19895   1.785   3.349   7.357 -0.0696 -0.5281  1.6096
  175SAPI  C21219896   1.833   3.450   7.529 -0.0626 -0.2894 -0.3701
  175SAPI  H12R19897   1.749   3.398   7.577  0.4924  1.4770  2.7618
  175SAPI  C21319898   1.904   3.552   7.622 -0.0329 -0.3108  0.3352
  175SAPI  H13R19899   1.859   3.653   7.618  2.6546  0.9645 -0.1827
  175SAPI  H13S19900   2.004   3.564   7.574 -0.5670 -0.0555 -0.7390
  175SAPI  C21419901   1.910   3.500   7.767  0.5608 -0.4988  0.2769
  175SAPI  H14R19902   1.961   3.403   7.777 -1.0394 -1.5115 -0.8535
  175SAPI  C21519903   1.864   3.567   7.876 -0.8459 -0.1212  0.0985
  175SAPI  H15R19904   1.865   3.511   7.971 -1.3235  0.1802  0.2836
  175SAPI  C21619905   1.811   3.707   7.883 -0.0927  0.6724  0.4154
  175SAPI  H16R19906   1.819   3.777   7.797 -1.2724  0.3290  0.0001
  175SAPI  H16S19907   1.871   3.743   7.969  0.2569 -0.9674  0.8924
  175SAPI  C21719908   1.659   3.720   7.924 -0.5001  0.2441  0.2588
  175SAPI  H17R19909   1.608   3.673   7.837  1.9770 -1.1722 -0.5195
  175SAPI  H17S19910   1.639   3.829   7.928  1.4157  0.6040  1.2177
  175SAPI  C21819911   1.629   3.658   8.065  0.2255  0.0984  0.7087
  175SAPI  H18R19912   1.658   3.550   8.061  1.0054  0.3097  0.5030
  175SAPI  H18S19913   1.519   3.657   8.077 -0.0515 -3.3392 -0.7104
  175SAPI  C21919914   1.687   3.730   8.192 -0.0142 -0.5525  0.4898
  175SAPI  H19R19915   1.663   3.837   8.178  2.9779  0.1989  0.3699
  175SAPI  H19S19916   1.798   3.732   8.199  0.0382 -0.5830 -0.3096
  175SAPI  C22019917   1.632   3.682   8.323  0.6518  0.1533 -0.0175
  175SAPI  H20R19918   1.522   3.698   8.334  0.8731  0.5004  2.4415
  175SAPI  H20S19919   1.662   3.731   8.419 -1.3011  0.1299  0.6640
  175SAPI  H20T19920   1.641   3.572   8.331  0.4810  0.1004 -0.5208
  175SAPI   C3319921   0.961   2.812   6.767  0.0683  0.2941  0.0643
  175SAPI   H3X19922   1.071   2.810   6.783  0.1051 -0.1750 -0.2131
  175SAPI   H3Y19923   0.940   2.718   6.712  0.7623 -0.1571  0.5636
  175SAPI   C3419924   0.885   2.799   6.894 -0.9436 -0.0748  0.2648
  175SAPI   H4X19925   0.873   2.692   6.920 -0.0274 -0.7073 -1.7359
  175SAPI   H4Y19926   0.786   2.844   6.874 -0.4217  0.8822 -0.2823
  175SAPI   C3519927   0.954   2.868   7.013  0.4285  0.0877  0.5270
  175SAPI   H5X19928   0.920   2.973   7.004 -1.2807 -0.5062 -0.2798
  175SAPI   H5Y19929   1.064   2.859   6.999  0.4827 -1.4180  1.6057
  175SAPI   C3619930   0.904   2.813   7.146 -0.5460  0.3084  0.9144
  175SAPI   H6X19931   0.890   2.703   7.154 -0.6278  0.0019 -2.1446
  175SAPI   H6Y19932   0.804   2.853   7.173 -0.5939 -0.7255  2.3978
  175SAPI   C3719933   0.991   2.861   7.257  0.1926 -0.6368 -0.0790
  175SAPI   H7X19934   0.998   2.971   7.264 -0.2293 -0.6311  0.2896
  175SAPI   H7Y19935   1.094   2.820   7.245  1.4769  1.8058  1.7759
  175SAPI   C3819936   0.953   2.817   7.399 -0.4083  0.1185  0.2166
  175SAPI   H8X19937   0.952   2.706   7.409  1.7676  0.0945  0.4678
  175SAPI   H8Y19938   0.849   2.854   7.411 -0.6608 -0.8618  1.2109
  175SAPI   C3919939   1.044   2.878   7.504 -1.1245  0.7065 -0.2449
  175SAPI   H9X19940   1.035   2.988   7.514 -0.3928  0.7201  0.2966
  175SAPI   H9Y19941   1.150   2.855   7.483 -0.9958  1.2557 -0.2142
  175SAPI  C31019942   1.018   2.811   7.640  0.5864  0.0038 -0.6377
  175SAPI  H10X19943   1.040   2.702   7.628  2.6261  0.5386 -2.3775
  175SAPI  H10Y19944   0.913   2.822   7.675  0.9326 -2.3704  1.5171
  175SAPI  C31119945   1.102   2.871   7.750 -0.7158 -0.0124  0.5965
  175SAPI  H11X19946   1.105   2.982   7.741 -1.5650 -0.0734 -0.9336
  175SAPI  H11Y19947   1.209   2.846   7.738 -1.0634 -1.2863 -0.0787
  175SAPI  C31219948   1.052   2.844   7.894 -0.6781 -0.0512  1.0176
  175SAPI  H12X19949   1.062   2.736   7.916  2.3989 -0.4683 -1.6767
  175SAPI  H12Y19950   0.942   2.862   7.890 -0.7465 -0.6056 -0.1296
  175SAPI  C31319951   1.124   2.930   7.998 -0.0096  0.3846  0.0344
  175SAPI  H13X19952   1.107   3.037   7.977 -2.6272  0.2475  1.1036
  175SAPI  H13Y19953   1.235   2.922   7.991 -0.1090  0.6539 -2.6387
  175SAPI  C31419954   1.085   2.898   8.138 -0.1570  0.3437  0.0737
  175SAPI  H14X19955   0.989   2.842   8.135  0.4654 -0.7289 -2.0877
  175SAPI  H14Y19956   1.069   2.996   8.189 -0.7655  0.9742 -1.2701
  175SAPI  C31519957   1.195   2.811   8.216  0.4513 -0.1716 -0.1573
  175SAPI  H15X19958   1.284   2.875   8.236 -0.2223  1.0270 -0.8397
  175SAPI  H15Y19959   1.203   2.733   8.138  0.2941  0.3939 -0.7519
  175SAPI  C31619960   1.131   2.770   8.349  0.4440 -0.0506 -0.1295
  175SAPI  H16X19961   1.023   2.759   8.323  0.2847 -2.3159  1.2164
  175SAPI  H16Y19962   1.137   2.859   8.415 -1.5839  2.4878 -3.0793
  175SAPI  C31719963   1.187   2.640   8.403 -0.4143 -0.4724 -0.3560
  175SAPI  H17X19964   1.289   2.660   8.444 -1.6483 -1.6560  3.8416
  175SAPI  H17Y19965   1.203   2.567   8.321 -1.9241 -2.6779  1.1989
  175SAPI  C31819966   1.109   2.588   8.523  0.1231 -0.1138 -0.3991
  175SAPI  H18X19967   1.158   2.497   8.563 -0.2439 -0.4102 -0.6074
  175SAPI  H18Y19968   1.009   2.559   8.484 -0.5672  0.1963  1.0677
  175SAPI  H18Z19969   1.102   2.674   8.592 -0.4037 -1.6092  1.4969
  176SAPI   C1219970   0.004   3.282   6.153 -0.3822  0.1403  0.2041
  176SAPI    H219971   0.034   3.194   6.092  2.9852  1.9450 -1.0126
  176SAPI    O219972   0.094   3.388   6.111  0.4147 -0.0518 -0.2745
  176SAPI   HO219973   0.174   3.369   6.160 -0.1145  1.0931  1.1162
  176SAPI   C1319974  -0.145   3.320   6.130 -0.0427 -0.1326  0.3391
  176SAPI    H319975  -0.196   3.230   6.170 -0.0538 -1.6506 -2.7817
  176SAPI    O319976  -0.176   3.329   5.986 -0.5715  0.2695  0.1924
  176SAPI   HO319977  -0.167   3.417   5.949 -3.3080  0.0442 -1.2533
  176SAPI   C1419978  -0.191   3.437   6.222 -0.1515  0.2484  0.2241
  176SAPI    H419979  -0.126   3.523   6.195 -1.2155  1.7416  2.1177
  176SAPI    O419980  -0.329   3.477   6.207 -0.0368  0.4808 -0.8698
  176SAPI   HO419981  -0.385   3.403   6.181  0.4397  0.6825 -2.6138
  176SAPI   C1519982  -0.162   3.400   6.364  0.1363  0.0127 -0.1029
  176SAPI    H519983  -0.212   3.306   6.394 -0.2623 -0.2721 -1.5630
  176SAPI    O519984  -0.207   3.507   6.450 -0.3618 -0.7842  0.2180
  176SAPI   HO519985  -0.190   3.480   6.541  1.9264  1.8309  0.6886
  176SAPI   C1619986  -0.013   3.376   6.380 -0.0586  0.1633  0.4766
  176SAPI    H619987   0.048   3.465   6.350  1.8097 -1.2026  0.0522
  176SAPI    O619988   0.012   3.350   6.523 -0.4012  0.0839 -0.1749
  176SAPI   HO619989   0.098   3.308   6.533  0.8198  2.6886  1.4945
  176SAPI   C1119990   0.025   3.255   6.298  0.3257 -0.2917  0.3359
  176SAPI    H119991  -0.040   3.168   6.323  0.1936 -0.0503  0.8508
  176SAPI     P19992   0.227   3.078   6.337 -0.2272 -0.6154  0.0206
  176SAPI   O1319993   0.366   3.105   6.338 -0.4787 -0.3388 -0.1862
  176SAPI   O1419994   0.174   2.980   6.242  0.0483 -0.4546  0.7399
  176SAPI   O1219995   0.160   3.220   6.314 -0.2977  0.3920 -0.3327
  176SAPI   O1119996   0.174   3.046   6.479 -0.0513 -0.4740 -0.1481
  176SAPI    C119997   0.118   2.921   6.522 -0.1887 -0.0087  0.2878
  176SAPI    HA19998   0.028   2.890   6.465  0.9744 -0.0023 -1.6593
  176SAPI    HB19999   0.187   2.834   6.517 -1.2357 -0.8355 -0.0669
  176SAPI    C220000   0.088   2.902   6.670 -0.1228  0.3655 -0.3459
  176SAPI    HS20001   0.018   2.983   6.700  1.9198  1.4448  1.8288
  176SAPI   O2120002   0.207   2.920   6.744 -0.0735 -0.1319 -0.5893
  176SAPI   C2120003   0.262   3.043   6.747  0.0630  0.2629 -0.6205
  176SAPI   O2220004   0.201   3.147   6.734  0.0997  0.5072 -0.0650
  176SAPI   C2220005   0.409   3.015   6.762  0.4243 -0.5134 -0.3409
  176SAPI   H2R20006   0.461   2.938   6.702  0.9356 -0.8804  0.5559
  176SAPI   H2S20007   0.455   3.109   6.725 -0.1126 -0.2975 -0.4680
  176SAPI    C320008   0.026   2.761   6.699 -0.0007 -0.0252  0.2655
  176SAPI    HX20009   0.106   2.692   6.665  0.6614  0.3441  1.0386
  176SAPI    HY20010  -0.062   2.758   6.631 -0.8997 -0.0740  1.4037
  176SAPI   O3120011  -0.022   2.737   6.837  0.0711  0.1264 -0.2188
  176SAPI   C3120012   0.064   2.676   6.910 -0.9159  0.2617 -0.7055
  176SAPI   O3220013   0.173   2.634   6.881 -0.3752 -0.0755 -0.0759
  176SAPI   C3220014   0.005   2.673   7.055 -0.8266 -0.4192 -0.3218
  176SAPI   H2X20015  -0.099   2.712   7.056 -0.6063  0.2202  1.8458
  176SAPI   H2Y20016   0.062   2.751   7.109 -4.0105  2.9076 -1.3457
  176SAPI   C2320017   0.459   3.008   6.909  0.5876 -0.0413 -0.0830
  176SAPI   H3R20018   0.438   3.099   6.969  0.9149  1.0250 -1.5236
  176SAPI   H3S20019   0.569   2.993   6.899  0.3533 -0.4532 -2.8481
  176SAPI   C2420020   0.392   2.887   6.986 -0.0373 -0.5001 -0.5060
  176SAPI   H4R20021   0.383   2.797   6.921  0.0761 -2.4896  2.0853
  176SAPI   H4S20022   0.292   2.924   7.017 -0.0534 -0.9101 -0.0439
  176SAPI   C2520023   0.472   2.830   7.106 -0.1948 -0.6772 -0.4077
  176SAPI   H5R20024   0.573   2.792   7.084  0.2636  0.4283 -0.2837
  176SAPI   C2620025   0.433   2.833   7.236  0.9165  0.6265  0.8723
  176SAPI   H6R20026   0.485   2.777   7.315  0.1171  0.2300  1.1336
  176SAPI   C2720027   0.301   2.890   7.285 -0.6103 -0.5094  0.1523
  176SAPI   H7R20028   0.269   2.841   7.379  0.7913  0.8012  1.3462
  176SAPI   H7S20029   0.217   2.861   7.217 -0.3454  1.7529 -1.2626
  176SAPI   C2820030   0.287   3.038   7.297 -0.3312 -0.1779 -0.0547
  176SAPI   H8R20031   0.231   3.083   7.214 -2.2135 -2.4689 -0.1366
  176SAPI   C2920032   0.335   3.112   7.398 -0.1831  0.1899  0.4130
  176SAPI   H9R20033   0.330   3.222   7.394  1.1031  0.2587  0.4915
  176SAPI  C21020034   0.410   3.058   7.519 -0.2387  0.4562  0.0732
  176SAPI  H10R20035   0.519   3.077   7.514  0.5389 -2.7382  1.8311
  176SAPI  H10S20036   0.407   2.947   7.522  1.0878  0.4247  1.7479
  176SAPI  C21120037   0.353   3.100   7.656 -0.5351 -0.0032 -0.7356
  176SAPI  H11R20038   0.249   3.069   7.676 -0.3902 -0.0814 -0.0743
  176SAPI  C21220039   0.408   3.177   7.749 -0.1699 -0.0343  0.2252
  176SAPI  H12R20040   0.351   3.196   7.841 -2.5723 -2.8656 -0.5704
  176SAPI  C21320041   0.544   3.250   7.752  0.1771  0.0815 -0.4088
  176SAPI  H13R20042   0.541   3.344   7.812  2.1939  0.6048 -1.0332
  176SAPI  H13S20043   0.558   3.280   7.646 -2.5122 -1.0227 -1.1415
  176SAPI  C21420044   0.669   3.159   7.783  1.1061  0.1344 -0.4246
  176SAPI  H14R20045   0.680   3.068   7.722 -0.7256  0.4507 -1.3091
  176SAPI  C21520046   0.761   3.190   7.871 -0.0302 -0.1253  0.0285
  176SAPI  H15R20047   0.835   3.109   7.878  0.3065  0.2080  0.3292
  176SAPI  C21620048   0.782   3.303   7.969  0.0577 -0.0468 -0.0478
  176SAPI  H16R20049   0.790   3.256   8.070  0.0699  0.6550  0.2834
  176SAPI  H16S20050   0.689   3.364   7.963 -0.8855 -1.1731  1.9693
  176SAPI  C21720051   0.904   3.380   7.929 -0.0069 -0.1905  0.3357
  176SAPI  H17R20052   0.889   3.437   7.834  0.9181  0.7108  0.6999
  176SAPI  H17S20053   0.993   3.317   7.912  1.3180  2.0674 -1.7847
  176SAPI  C21820054   0.950   3.494   8.023  0.4602  0.3922 -0.2057
  176SAPI  H18R20055   0.862   3.562   8.036  0.2310 -0.3446  2.9515
  176SAPI  H18S20056   1.029   3.544   7.963  0.0457  0.9268 -0.3158
  176SAPI  C21920057   0.994   3.435   8.156  0.4343 -0.6783 -0.4397
  176SAPI  H19R20058   1.070   3.354   8.146  0.1437 -1.0409  0.2408
  176SAPI  H19S20059   0.901   3.388   8.195  1.2207  0.9122  3.8894
  176SAPI  C22020060   1.035   3.527   8.264 -0.5285  1.0688  0.0951
  176SAPI  H20R20061   0.955   3.604   8.274 -1.6347  0.3949 -2.5104
  176SAPI  H20S20062   1.126   3.580   8.229  0.4868 -0.3454  0.5593
  176SAPI  H20T20063   1.064   3.476   8.358  3.6536  0.5625 -1.2654
  176SAPI   C3320064   0.010   2.531   7.115 -0.5142  0.0628  0.5975
  176SAPI   H3X20065   0.117   2.502   7.121  0.3672  3.0371  1.3663
  176SAPI   H3Y20066  -0.044   2.464   7.046 -0.3548  1.0018 -0.4728
  176SAPI   C3420067  -0.054   2.512   7.257 -0.1226  0.8249 -0.2111
  176SAPI   H4X20068  -0.029   2.410   7.294 -3.9831 -0.6294 -1.1510
  176SAPI   H4Y20069  -0.164   2.526   7.252 -0.0496  1.1932 -0.9767
  176SAPI   C3520070  -0.001   2.615   7.360 -0.0418  0.2832 -0.6358
  176SAPI   H5X20071  -0.043   2.717   7.342  1.6376  1.1856  0.3322
  176SAPI   H5Y20072   0.108   2.632   7.344  0.2155  2.9234  2.7572
  176SAPI   C3620073  -0.016   2.592   7.520 -0.6655  0.1091 -0.0771
  176SAPI   H6X20074   0.021   2.492   7.551 -4.4999 -1.4229 -0.0049
  176SAPI   H6Y20075  -0.123   2.606   7.544 -0.7533  1.5216 -1.1304
  176SAPI   C3720076   0.069   2.688   7.602 -0.1463 -0.0418  0.3458
  176SAPI   H7X20077   0.028   2.790   7.586  0.5260  0.3259  0.8878
  176SAPI   H7Y20078   0.178   2.672   7.587  0.3965  1.5846  2.1008
  176SAPI   C3820079   0.058   2.675   7.760  0.1130 -0.1157 -0.5146
  176SAPI   H8X20080   0.079   2.571   7.792 -0.0108  0.3578  1.1766
  176SAPI   H8Y20081  -0.049   2.702   7.777 -0.3252 -1.3468 -1.1729
  176SAPI   C3920082   0.142   2.771   7.846 -1.0840 -0.2806  0.2500
  176SAPI   H9X20083   0.108   2.872   7.817 -2.0126 -0.7997 -0.5564
  176SAPI   H9Y20084   0.246   2.773   7.807 -0.2725  0.1606  2.3018
  176SAPI  C31020085   0.140   2.745   7.995  0.7735  0.2315  0.1086
  176SAPI  H10X20086   0.205   2.658   8.017 -1.0027 -1.2193 -0.0900
  176SAPI  H10Y20087   0.037   2.716   8.024  1.0834 -0.6682  0.3485
  176SAPI  C31120088   0.173   2.871   8.079  0.6117 -0.2779  0.2369
  176SAPI  H11X20089   0.083   2.937   8.078 -0.1538 -1.3138 -0.5740
  176SAPI  H11Y20090   0.260   2.926   8.036 -0.2137  1.7924  1.0773
  176SAPI  C31220091   0.203   2.827   8.224 -0.1443 -0.0178  0.5463
  176SAPI  H12X20092   0.253   2.911   8.277 -0.2551 -0.6091  1.6259
  176SAPI  H12Y20093   0.284   2.754   8.202  0.7389  1.4429 -1.3158
  176SAPI  C31320094   0.092   2.755   8.310 -0.2382  0.0145  0.9518
  176SAPI  H13X20095   0.147   2.676   8.366 -1.0509 -0.8064  0.6228
  176SAPI  H13Y20096   0.028   2.697   8.240 -1.5349  1.1066  1.2089
  176SAPI  C31420097   0.011   2.849   8.397  0.1254 -0.0130  0.1817
  176SAPI  H14X20098  -0.051   2.910   8.328  1.4842  0.5518 -0.5795
  176SAPI  H14Y20099   0.084   2.918   8.444 -0.9933  1.2304  0.1662
  176SAPI  C31520100  -0.066   2.771   8.500  0.0050 -0.2518 -0.2282
  176SAPI  H15X20101  -0.011   2.686   8.545 -1.2291 -1.2290 -0.4872
  176SAPI  H15Y20102  -0.149   2.712   8.455  1.0897 -2.9867  1.1735
  176SAPI  C31620103  -0.119   2.860   8.615  0.5919 -0.2123 -0.1002
  176SAPI  H16X20104  -0.206   2.920   8.579  1.2087  0.3478 -0.6915
  176SAPI  H16Y20105  -0.038   2.932   8.640 -1.3652  2.3072 -0.6307
  176SAPI  C31720106  -0.176   2.788   8.741 -0.9888 -0.0313  0.6755
  176SAPI  H17X20107  -0.194   2.868   8.815  0.6256  1.3132 -0.3206
  176SAPI  H17Y20108  -0.100   2.722   8.788 -1.1713 -0.3320  0.5524
  176SAPI  C31820109  -0.309   2.716   8.727 -0.2372  0.8526 -0.1258
  176SAPI  H18X20110  -0.340   2.658   8.817  0.8568  1.0479  0.3992
  176SAPI  H18Y20111  -0.299   2.659   8.632 -0.0675  0.9620 -0.1763
  176SAPI  H18Z20112  -0.388   2.786   8.695 -1.2468 -0.2861 -0.1946
  177SLPC     N20113   0.149   3.603  10.932  0.1697  0.1643  1.5939
  177SLPC   C1320114   0.057   3.532  11.029 -0.2141  0.0994  0.4631
  177SLPC  H13A20115   0.102   3.440  11.064 -2.5632 -0.3927  2.4621
  177SLPC  H13B20116   0.018   3.595  11.107 -1.7287 -0.5045  0.2120
  177SLPC  H13C20117  -0.028   3.483  10.985 -0.3333  0.1448  0.6427
  177SLPC   C1420118   0.274   3.637  11.007  0.4648 -0.4825 -0.1272
  177SLPC  H14A20119   0.306   3.555  11.070  0.9872 -0.0691  0.1534
  177SLPC  H14B20120   0.360   3.659  10.946  1.1322  0.4116  1.0865
  177SLPC  H14C20121   0.259   3.721  11.074  0.5768 -0.0620 -0.6254
  177SLPC   C1520122   0.089   3.739  10.901  0.1097  0.8983 -0.3751
  177SLPC  H15A20123   0.153   3.799  10.838  0.6424  0.3261 -0.3900
  177SLPC  H15B20124  -0.003   3.725  10.846  0.2117 -1.5259 -0.0246
  177SLPC  H15C20125   0.060   3.793  10.990 -1.0339  1.8445 -1.2817
  177SLPC   C1220126   0.187   3.524  10.804  0.1392 -0.3864 -0.0295
  177SLPC  H12A20127   0.096   3.490  10.756  0.1569  0.4035 -0.6299
  177SLPC  H12B20128   0.233   3.433  10.841 -1.3910 -0.2459  2.4956
  177SLPC   C1120129   0.264   3.599  10.690 -0.0349 -0.1233 -0.0840
  177SLPC  H11A20130   0.266   3.525  10.608  1.3884  2.1747 -2.2612
  177SLPC  H11B20131   0.367   3.612  10.730 -0.5248  2.6121  0.4834
  177SLPC     P20132   0.292   3.812  10.553  0.2951 -0.4602 -0.4975
  177SLPC   O1320133   0.227   3.942  10.562 -0.1911  0.6038  0.1155
  177SLPC   O1420134   0.443   3.803  10.585  0.0956  0.4689 -0.3262
  177SLPC   O1220135   0.212   3.717  10.653 -0.2722 -0.1456 -0.0074
  177SLPC   O1120136   0.264   3.740  10.423  0.1220  0.1100 -0.6564
  177SLPC    C120137   0.358   3.653  10.365  0.1117  0.0139 -0.3469
  177SLPC    HA20138   0.412   3.602  10.448 -0.4587 -1.5521 -0.9027
  177SLPC    HB20139   0.305   3.570  10.313  0.2844  0.7876 -1.8138
  177SLPC    C220140   0.457   3.707  10.263 -0.7169  0.1766 -0.1667
  177SLPC    HS20141   0.498   3.803  10.302 -0.6203 -0.4312  1.2776
  177SLPC   O2120142   0.384   3.741  10.150  0.3986 -0.1906  0.1167
  177SLPC   C2120143   0.435   3.833  10.075  0.6752  0.1010 -0.0569
  177SLPC   O2220144   0.536   3.899  10.093 -0.0745  0.2265  0.0720
  177SLPC   C2220145   0.351   3.851   9.938 -0.1148  0.4948 -0.2590
  177SLPC   H2R20146   0.340   3.750   9.892 -1.5492  0.3602  0.3279
  177SLPC   H2S20147   0.256   3.892   9.977  0.6598  1.5659  0.5534
  177SLPC    C320148   0.586   3.622  10.242 -0.0515 -0.0790  0.4065
  177SLPC    HX20149   0.622   3.611  10.347 -0.4496  0.4579  0.6015
  177SLPC    HY20150   0.669   3.677  10.192  2.3187 -0.9617  3.0894
  177SLPC   O3120151   0.564   3.491  10.180 -0.0098  0.3952  0.5611
  177SLPC   C3120152   0.544   3.492  10.046 -0.4930  0.3561  0.2984
  177SLPC   O3220153   0.559   3.581   9.964  0.1095 -0.8360 -0.8989
  177SLPC   C3220154   0.509   3.343  10.012 -0.0858 -0.2101  0.3624
  177SLPC   H2X20155   0.421   3.325  10.077 -1.1942  1.2358 -0.6794
  177SLPC   H2Y20156   0.598   3.282  10.039  0.3466  0.9669  1.7007
  177SLPC   C2320157   0.430   3.933   9.836  0.7202  0.1459 -0.2087
  177SLPC   H3R20158   0.536   3.901   9.836  0.9409  0.7566  1.7675
  177SLPC   H3S20159   0.431   4.040   9.866 -1.3781  0.0804  0.2652
  177SLPC   C2420160   0.382   3.931   9.692  0.5684  0.1235  0.0143
  177SLPC   H4R20161   0.272   3.948   9.690  0.4346 -0.5836  0.6022
  177SLPC   H4S20162   0.393   3.826   9.657  2.4997  0.4935 -0.5989
  177SLPC   C2520163   0.442   4.038   9.599  0.2539  0.3089 -0.0686
  177SLPC   H5R20164   0.403   4.137   9.633  3.3573  1.4148  0.6644
  177SLPC   H5S20165   0.407   4.030   9.494  2.3158  0.4958 -0.8147
  177SLPC   C2620166   0.591   4.067   9.609 -0.9446  0.3622  0.1673
  177SLPC   H6R20167   0.647   3.972   9.628 -1.1364 -0.1233 -1.5206
  177SLPC   H6S20168   0.619   4.114   9.705  1.3766  0.7480 -0.6353
  177SLPC   C2720169   0.653   4.144   9.498 -0.4844 -0.5666 -0.2412
  177SLPC   H7R20170   0.642   4.076   9.411  1.0637 -0.2740 -0.7036
  177SLPC   H7S20171   0.763   4.159   9.509 -0.7500 -0.4770  3.3366
  177SLPC   C2820172   0.587   4.277   9.456  0.2707  0.1069 -0.0184
  177SLPC   H8R20173   0.479   4.254   9.450  0.5639 -1.0729 -1.8494
  177SLPC   H8S20174   0.625   4.312   9.357  0.4969  1.5067  0.5409
  177SLPC   C2920175   0.602   4.389   9.555 -0.2394 -0.4212 -0.2610
  177SLPC   H9R20176   0.585   4.354   9.658  1.7907  0.1746  0.3165
  177SLPC  C21020177   0.643   4.521   9.539  0.3616  0.4472 -0.1334
  177SLPC  H10R20178   0.649   4.577   9.634  0.3675 -1.1873  0.8748
  177SLPC  C21120179   0.689   4.581   9.417  0.6410  0.4470 -0.6184
  177SLPC  H11R20180   0.775   4.645   9.443  1.5678 -1.6928  2.1388
  177SLPC  H11S20181   0.733   4.506   9.347  0.9621 -0.2776  0.3342
  177SLPC  C21220182   0.576   4.652   9.345  0.5169  0.1373 -0.1074
  177SLPC  H12R20183   0.486   4.590   9.331  1.4480 -1.2007 -0.4685
  177SLPC  C21320184   0.577   4.776   9.300  0.4642 -0.2665  0.1286
  177SLPC  H13R20185   0.494   4.806   9.235  1.3797  1.4893 -0.2987
  177SLPC  C21420186   0.699   4.872   9.316 -0.1028  0.2512  0.2493
  177SLPC  H14R20187   0.769   4.851   9.232 -0.0985 -0.6857  0.4659
  177SLPC  H14S20188   0.755   4.854   9.410  2.9536 -3.1509 -1.9162
  177SLPC  C21520189   0.639   5.012   9.292 -0.1818  0.8454 -0.6341
  177SLPC  H15R20190   0.710   5.086   9.335  2.3399 -1.1213 -1.1402
  177SLPC  H15S20191   0.547   5.019   9.353 -0.8252 -2.3915 -1.0935
  177SLPC  C21620192   0.622   5.046   9.142 -0.1859 -0.1886 -0.0747
  177SLPC  H16R20193   0.557   4.967   9.099  1.9652 -1.4708 -1.1342
  177SLPC  H16S20194   0.717   5.033   9.087 -0.5465 -0.8167 -0.5619
  177SLPC  C21720195   0.560   5.184   9.113 -0.1157 -0.8377 -0.3713
  177SLPC  H17R20196   0.643   5.233   9.059 -0.0122  0.5880  1.0268
  177SLPC  H17S20197   0.560   5.231   9.214 -3.2154 -0.9456 -0.2022
  177SLPC  C21820198   0.424   5.195   9.042  0.1090  0.4762  0.3332
  177SLPC  H18R20199   0.387   5.298   9.063  0.4279  0.2541  2.2210
  177SLPC  H18S20200   0.360   5.116   9.086  0.1280 -0.8674 -1.9066
  177SLPC  H18T20201   0.440   5.163   8.937  0.0912 -2.3704  1.1278
  177SLPC   C3320202   0.456   3.319   9.871 -0.0206  0.3597 -0.4938
  177SLPC   H3X20203   0.531   3.351   9.796  0.1380  0.5036 -0.2748
  177SLPC   H3Y20204   0.365   3.381   9.860 -1.6529 -1.8844 -0.3000
  177SLPC   C3420205   0.414   3.174   9.843  0.1433 -0.2846  0.2590
  177SLPC   H4X20206   0.313   3.149   9.883 -0.1783  0.6955  0.0867
  177SLPC   H4Y20207   0.469   3.108   9.914  0.8462  0.9626  0.9125
  177SLPC   C3520208   0.425   3.134   9.692  0.2155 -0.2001  0.8010
  177SLPC   H5X20209   0.390   3.029   9.689 -0.1077 -0.0854  0.5193
  177SLPC   H5Y20210   0.528   3.146   9.653  0.2694 -0.7657  0.7715
  177SLPC   C3620211   0.343   3.214   9.597 -0.0910  0.7090 -0.5897
  177SLPC   H6X20212   0.355   3.320   9.629  1.8001  0.3172  0.1104
  177SLPC   H6Y20213   0.235   3.188   9.590 -0.1738 -1.4514  4.3788
  177SLPC   C3720214   0.388   3.192   9.456 -0.7101 -0.4918 -0.1441
  177SLPC   H7X20215   0.376   3.084   9.434  0.0778 -1.1817  2.5290
  177SLPC   H7Y20216   0.497   3.213   9.453 -0.1588 -3.1013 -1.3817
  177SLPC   C3820217   0.317   3.291   9.362  0.4014 -0.2019  0.0691
  177SLPC   H8X20218   0.353   3.393   9.388  1.0214  0.0958 -1.7937
  177SLPC   H8Y20219   0.207   3.288   9.377  0.3408  0.9906 -0.0286
  177SLPC   C3920220   0.354   3.253   9.219 -0.4795 -0.0304 -0.3966
  177SLPC   H9X20221   0.306   3.156   9.195 -0.5585 -0.1158  0.0878
  177SLPC   H9Y20222   0.465   3.243   9.214 -0.4663  0.1872 -0.5324
  177SLPC  C31020223   0.307   3.366   9.132 -0.4547 -0.0588  0.9356
  177SLPC  H10X20224   0.347   3.465   9.163  0.5567  0.4050 -1.5608
  177SLPC  H10Y20225   0.197   3.371   9.127 -0.5320 -1.9320 -1.7752
  177SLPC  C31120226   0.355   3.349   8.981  0.0917 -0.1170  0.6980
  177SLPC  H11X20227   0.312   3.265   8.922  0.7741 -1.1508  1.6282
  177SLPC  H11Y20228   0.465   3.335   8.980  0.1693 -0.3129 -2.9498
  177SLPC  C31220229   0.313   3.475   8.905  0.7118  0.1735  0.5251
  177SLPC  H12X20230   0.392   3.547   8.936  3.1989 -1.5466 -1.3419
  177SLPC  H12Y20231   0.212   3.509   8.937  1.7538  0.3230  4.0719
  177SLPC  C31320232   0.338   3.466   8.751  0.6206  0.4077  0.1219
  177SLPC  H13X20233   0.246   3.414   8.717  1.5360 -0.3883 -1.2558
  177SLPC  H13Y20234   0.430   3.407   8.730  2.4581  2.4128  1.9437
  177SLPC  C31420235   0.360   3.600   8.673 -0.5853 -0.3285  0.0930
  177SLPC  H14X20236   0.459   3.647   8.695  0.0264 -0.0424 -2.9078
  177SLPC  H14Y20237   0.284   3.666   8.719 -2.3519 -1.7160 -0.7169
  177SLPC  C31520238   0.310   3.608   8.530 -0.0885  0.0368  0.4410
  177SLPC  H15X20239   0.306   3.714   8.496 -3.6128 -0.1232 -0.0304
  177SLPC  H15Y20240   0.215   3.552   8.526  0.5219 -0.9595 -0.8000
  177SLPC  C31620241   0.402   3.530   8.435 -0.5813  0.1546 -0.2919
  177SLPC  H16X20242   0.363   3.542   8.331 -0.9728  1.1847 -0.0363
  177SLPC  H16Y20243   0.427   3.424   8.459  0.1031  0.5132  0.6360
  177SLPC  C31720244   0.546   3.589   8.433 -0.1067 -0.2230  0.2340
  177SLPC  H17X20245   0.598   3.565   8.528  0.8878  0.6142 -0.0796
  177SLPC  H17Y20246   0.542   3.699   8.421  0.4269 -0.1523  0.6906
  177SLPC  C31820247   0.636   3.536   8.319  0.6298  0.7990 -0.0391
  177SLPC  H18X20248   0.651   3.426   8.313 -0.6365  0.6774 -1.7898
  177SLPC  H18Y20249   0.737   3.583   8.309  2.1704 -2.1864  0.3146
  177SLPC  H18Z20250   0.581   3.556   8.225 -2.3412 -0.1498  1.3917
  178SLPC     N20251   1.509   4.438  11.272 -0.8268  0.5150  0.7612
  178SLPC   C1320252   1.462   4.290  11.251  0.0602 -0.7191  0.4479
  178SLPC  H13A20253   1.498   4.257  11.155 -0.8199 -1.3018  0.3042
  178SLPC  H13B20254   1.504   4.225  11.327  0.4633 -2.3711 -1.1276
  178SLPC  H13C20255   1.354   4.283  11.254 -0.1673  1.7901  0.9247
  178SLPC   C1420256   1.655   4.429  11.313 -0.5408 -0.4115  0.0659
  178SLPC  H14A20257   1.676   4.372  11.403  1.8795  2.4351  1.4726
  178SLPC  H14B20258   1.701   4.370  11.236 -0.9436  0.7028 -1.0623
  178SLPC  H14C20259   1.706   4.523  11.325  1.5110 -1.3714 -0.6946
  178SLPC   C1520260   1.418   4.503  11.367 -0.0239  0.1465  0.1898
  178SLPC  H15A20261   1.314   4.504  11.338  0.2933  0.0838 -1.0058
  178SLPC  H15B20262   1.438   4.459  11.464 -1.3766 -0.9626  0.0067
  178SLPC  H15C20263   1.447   4.605  11.388 -3.0615  0.8383  1.5242
  178SLPC   C1220264   1.501   4.500  11.136  0.4689  0.3874  0.8256
  178SLPC  H12A20265   1.518   4.607  11.142  0.7058  0.3541  0.7873
  178SLPC  H12B20266   1.402   4.488  11.094  1.0152 -0.4043 -0.3017
  178SLPC   C1120267   1.599   4.462  11.024  0.0300 -0.4222 -0.1409
  178SLPC  H11A20268   1.702   4.481  11.060 -0.4844 -1.0633  1.7720
  178SLPC  H11B20269   1.569   4.531  10.942 -1.9862 -2.0003 -0.8209
  178SLPC     P20270   1.470   4.279  10.874 -0.1337 -0.2730 -0.0285
  178SLPC   O1320271   1.471   4.128  10.874  0.6040 -0.8377 -0.1735
  178SLPC   O1420272   1.346   4.350  10.923 -0.1337  0.0998 -0.0530
  178SLPC   O1220273   1.575   4.325  10.978 -0.5770 -0.1041 -0.1117
  178SLPC   O1120274   1.514   4.357  10.742  0.3005  0.3273 -0.5923
  178SLPC    C120275   1.643   4.322  10.687  1.2516  0.1738 -0.3683
  178SLPC    HA20276   1.705   4.407  10.650 -0.1791  0.3312 -2.5474
  178SLPC    HB20277   1.715   4.263  10.748 -0.4950 -0.1661  1.4731
  178SLPC    C220278   1.625   4.231  10.550  0.4318 -0.4920 -0.5532
  178SLPC    HS20279   1.564   4.141  10.574 -0.5571  0.3449  0.2173
  178SLPC   O2120280   1.757   4.199  10.505 -0.3208  0.1584  0.2946
  178SLPC   C2120281   1.763   4.119  10.406 -0.2868  0.0371  0.9099
  178SLPC   O2220282   1.676   4.045  10.358 -0.4553 -0.5744  0.3974
  178SLPC   C2220283   1.910   4.127  10.370 -0.6618 -0.3606 -0.4624
  178SLPC   H2R20284   1.931   4.228  10.328  1.1173  1.3647  3.9408
  178SLPC   H2S20285   1.971   4.118  10.462 -0.3432 -0.4177 -0.6751
  178SLPC    C320286   1.547   4.327  10.454 -0.1649 -0.3246  0.6506
  178SLPC    HX20287   1.606   4.420  10.464 -0.5250 -0.1222  0.9364
  178SLPC    HY20288   1.444   4.331  10.497 -1.0336 -1.7155 -1.1247
  178SLPC   O3120289   1.527   4.294  10.312 -0.1695 -0.2696  0.1262
  178SLPC   C3120290   1.449   4.189  10.283  0.3509  0.8220 -0.1425
  178SLPC   O3220291   1.380   4.135  10.366 -0.0186  0.1182  0.5594
  178SLPC   C3220292   1.468   4.148  10.132  1.0838  0.4599  0.1860
  178SLPC   H2X20293   1.415   4.050  10.128 -1.2944  1.6901 -0.5422
  178SLPC   H2Y20294   1.574   4.134  10.103  0.6931  0.8150 -1.5700
  178SLPC   C2320295   1.961   4.022  10.261 -0.1053 -0.1135  1.1047
  178SLPC   H3R20296   1.946   3.919  10.299 -1.0321  0.0589  1.2238
  178SLPC   H3S20297   2.068   4.042  10.238  0.0441 -1.5109  0.4993
  178SLPC   C2420298   1.885   4.033  10.127  0.6838 -0.6632  0.8826
  178SLPC   H4R20299   1.885   4.140  10.097  0.8966 -0.6826  0.8119
  178SLPC   H4S20300   1.781   4.001  10.150  0.7017 -1.9694 -0.7463
  178SLPC   C2520301   1.950   3.948  10.017  0.2783 -0.3755  0.9981
  178SLPC   H5R20302   2.000   3.860  10.061 -0.9525 -0.3804  2.4650
  178SLPC   H5S20303   2.030   4.000   9.959 -0.2759 -0.3217  0.2560
  178SLPC   C2620304   1.840   3.907   9.916  0.3273 -0.1604  0.7480
  178SLPC   H6R20305   1.779   3.994   9.882 -0.6731 -0.0678  2.6795
  178SLPC   H6S20306   1.778   3.837   9.976  1.0605  0.2026  1.9517
  178SLPC   C2720307   1.902   3.837   9.793  0.2015 -0.3073 -0.0549
  178SLPC   H7R20308   1.992   3.788   9.837 -1.1884 -0.0182  3.4021
  178SLPC   H7S20309   1.945   3.909   9.719  1.2657  0.3016  1.1193
  178SLPC   C2820310   1.817   3.723   9.724 -0.2685 -0.8568 -0.2140
  178SLPC   H8R20311   1.786   3.651   9.803 -3.7214 -0.0295 -0.6589
  178SLPC   H8S20312   1.882   3.670   9.651  0.1386  0.2904 -0.7111
  178SLPC   C2920313   1.694   3.785   9.674  0.3964  0.1485  0.1643
  178SLPC   H9R20314   1.645   3.843   9.754 -0.4792  0.2149 -0.4037
  178SLPC  C21020315   1.642   3.783   9.552 -0.4815  0.3743  0.4063
  178SLPC  H10R20316   1.548   3.837   9.531 -1.1045 -0.6958  0.3714
  178SLPC  C21120317   1.678   3.718   9.418  0.4231 -0.4328  0.3326
  178SLPC  H11R20318   1.596   3.651   9.384  1.2790 -1.5126  0.3389
  178SLPC  H11S20319   1.778   3.670   9.425  0.9744  0.7944  1.4950
  178SLPC  C21220320   1.681   3.843   9.332  0.1923 -0.1706  0.6664
  178SLPC  H12R20321   1.775   3.898   9.347 -0.2314  0.6326  0.4550
  178SLPC  C21320322   1.586   3.903   9.249 -0.0661 -0.4216 -0.7112
  178SLPC  H13R20323   1.611   3.999   9.203 -2.5888  0.3882 -0.5393
  178SLPC  C21420324   1.446   3.861   9.218  0.2118 -0.9557 -0.4836
  178SLPC  H14R20325   1.426   3.760   9.260  1.7688 -0.4115  1.7203
  178SLPC  H14S20326   1.423   3.862   9.109 -1.5752  2.2109 -0.2077
  178SLPC  C21520327   1.347   3.959   9.284  0.0329 -0.3487 -0.0675
  178SLPC  H15R20328   1.361   4.059   9.239 -1.4789  0.0843  0.3432
  178SLPC  H15S20329   1.379   3.969   9.390 -0.3626  0.2536  0.0004
  178SLPC  C21620330   1.203   3.905   9.271 -0.3328 -0.3072 -1.2818
  178SLPC  H16R20331   1.185   3.805   9.316 -2.4166  0.5949  0.0447
  178SLPC  H16S20332   1.176   3.913   9.164  0.2345 -0.7818 -1.4655
  178SLPC  C21720333   1.094   4.005   9.339  0.1207 -0.0876  0.4448
  178SLPC  H17R20334   0.994   3.966   9.309  2.0874 -4.1158 -1.5689
  178SLPC  H17S20335   1.106   4.104   9.288  0.2289 -0.5501 -0.4559
  178SLPC  C21820336   1.104   4.019   9.492  0.1253 -0.4642  0.0983
  178SLPC  H18R20337   1.076   3.919   9.533  2.7049 -0.5978  1.7304
  178SLPC  H18S20338   1.033   4.099   9.522  2.3708  0.5966  3.0149
  178SLPC  H18T20339   1.201   4.048   9.537 -0.3292  0.1051  0.7243
  178SLPC   C3320340   1.390   4.246  10.032 -0.5052 -0.1477  0.7679
  178SLPC   H3X20341   1.421   4.349  10.055 -1.7925  0.4558 -0.0635
  178SLPC   H3Y20342   1.281   4.233  10.051 -0.4832 -1.2248  0.2523
  178SLPC   C3420343   1.422   4.202   9.881  0.0588 -0.3123  0.4522
  178SLPC   H4X20344   1.364   4.276   9.822  0.0416 -0.4261  0.3260
  178SLPC   H4Y20345   1.372   4.103   9.872 -0.9451  0.2628 -0.5527
  178SLPC   C3520346   1.567   4.198   9.829 -0.0049 -0.8687  0.2717
  178SLPC   H5X20347   1.631   4.132   9.893 -0.0479 -0.5896  0.6029
  178SLPC   H5Y20348   1.611   4.299   9.836  0.4049 -1.1155  1.4122
  178SLPC   C3620349   1.579   4.137   9.691 -0.1877 -0.0452 -0.2056
  178SLPC   H6X20350   1.544   4.032   9.683 -0.2743  0.1002 -2.6174
  178SLPC   H6Y20351   1.687   4.150   9.666  0.4846  0.9340  2.7949
  178SLPC   C3720352   1.518   4.213   9.574 -0.1847  0.5467  0.4951
  178SLPC   H7X20353   1.408   4.217   9.587 -0.0976 -0.9634  2.0415
  178SLPC   H7Y20354   1.544   4.170   9.475  0.2519  1.2953  0.2758
  178SLPC   C3820355   1.583   4.351   9.568 -0.5524  0.8074 -0.0087
  178SLPC   H8X20356   1.693   4.353   9.557 -0.3900 -1.1788  0.7180
  178SLPC   H8Y20357   1.575   4.405   9.665 -0.5864  0.5923  0.1105
  178SLPC   C3920358   1.517   4.444   9.469 -0.0470  0.2218  0.4082
  178SLPC   H9X20359   1.573   4.540   9.471 -0.2004  0.4309  4.5786
  178SLPC   H9Y20360   1.416   4.473   9.507  0.4686  2.3877  0.3040
  178SLPC  C31020361   1.513   4.379   9.327 -0.2852  0.1794 -0.0647
  178SLPC  H10X20362   1.448   4.290   9.329  0.4688 -0.3838  1.8064
  178SLPC  H10Y20363   1.609   4.336   9.293 -0.7884  2.1118 -4.5255
  178SLPC  C31120364   1.479   4.471   9.212 -0.2279 -1.2089  0.4389
  178SLPC  H11X20365   1.567   4.534   9.185  0.0088 -1.2066  1.1936
  178SLPC  H11Y20366   1.406   4.545   9.253 -0.1242 -0.6655 -0.3308
  178SLPC  C31220367   1.436   4.383   9.095 -0.6864  0.1355  0.0987
  178SLPC  H12X20368   1.357   4.431   9.032 -1.3898 -0.2147  0.6953
  178SLPC  H12Y20369   1.389   4.289   9.131  1.8539 -0.0663  3.3892
  178SLPC  C31320370   1.558   4.360   9.005  0.3117 -0.3103  0.2202
  178SLPC  H13X20371   1.634   4.309   9.067  0.3993 -0.3513  0.0793
  178SLPC  H13Y20372   1.601   4.461   8.986  4.3570 -1.2984  3.0603
  178SLPC  C31420373   1.516   4.290   8.873 -0.3017 -0.5535 -0.2297
  178SLPC  H14X20374   1.590   4.303   8.791  0.3951 -2.9597 -0.0479
  178SLPC  H14Y20375   1.419   4.333   8.840 -0.7341 -1.9856 -0.9051
  178SLPC  C31520376   1.515   4.140   8.907  0.7045  0.0344  0.0685
  178SLPC  H15X20377   1.613   4.125   8.957  0.4796  0.9860  0.8354
  178SLPC  H15Y20378   1.440   4.119   8.987  0.1164  2.3059  0.1774
  178SLPC  C31620379   1.492   4.048   8.791  1.0276 -0.5373  0.6746
  178SLPC  H16X20380   1.584   4.038   8.728  1.4505  0.5915  1.0772
  178SLPC  H16Y20381   1.421   4.094   8.719 -0.6506 -1.5075  1.6660
  178SLPC  C31720382   1.444   3.914   8.826  0.5532  0.1105 -0.3050
  178SLPC  H17X20383   1.348   3.912   8.883  0.8895 -0.9147  0.2473
  178SLPC  H17Y20384   1.518   3.861   8.889  0.8202  1.7928  0.8601
  178SLPC  C31820385   1.430   3.829   8.705 -0.6183  0.2992 -0.2399
  178SLPC  H18X20386   1.536   3.820   8.674 -0.0389  0.4862  1.5677
  178SLPC  H18Y20387   1.353   3.863   8.633 -2.1362 -1.0234  0.6860
  178SLPC  H18Z20388   1.396   3.725   8.728 -0.3359  0.3241  0.3012
  179SLPC     N20389   1.581   1.161  10.729 -0.6226  0.2473 -0.0282
  179SLPC   C1320390   1.559   1.224  10.866  0.1022 -0.2494  0.5597
  179SLPC  H13A20391   1.594   1.327  10.871 -0.3784 -0.0803  0.4668
  179SLPC  H13B20392   1.453   1.224  10.883  0.1038  1.2852  0.7843
  179SLPC  H13C20393   1.606   1.162  10.941  0.0840 -1.3122 -0.2984
  179SLPC   C1420394   1.513   1.024  10.730  0.3037 -0.3883 -0.0142
  179SLPC  H14A20395   1.510   0.969  10.637 -0.3864 -3.1183  1.4942
  179SLPC  H14B20396   1.564   0.959  10.799  2.4812  0.3034 -0.8777
  179SLPC  H14C20397   1.410   1.043  10.756  0.0648  0.0290 -1.2130
  179SLPC   C1520398   1.725   1.140  10.695 -0.4293 -0.0601  0.5543
  179SLPC  H15A20399   1.774   1.070  10.762  0.9213 -0.1344 -0.4505
  179SLPC  H15B20400   1.729   1.105  10.593  2.1753  0.2233  0.4873
  179SLPC  H15C20401   1.780   1.233  10.694  0.8880 -0.7175  3.1011
  179SLPC   C1220402   1.519   1.244  10.625 -0.3366  0.0411 -0.1887
  179SLPC  H12A20403   1.549   1.348  10.634 -2.6871  0.7426  0.2163
  179SLPC  H12B20404   1.413   1.261  10.634 -0.3749 -0.1061 -0.3595
  179SLPC   C1120405   1.559   1.215  10.482  0.0083  0.3132 -0.5051
  179SLPC  H11A20406   1.490   1.278  10.423  0.7213  0.8828 -0.7513
  179SLPC  H11B20407   1.534   1.111  10.452 -3.1625  0.6217  0.6580
  179SLPC     P20408   1.746   1.253  10.307 -0.0207 -0.1787 -0.5576
  179SLPC   O1320409   1.668   1.359  10.235  0.1664  0.5575  0.2677
  179SLPC   O1420410   1.894   1.271  10.292  0.2340 -0.2667 -0.1862
  179SLPC   O1220411   1.696   1.258  10.459 -0.5123  0.6555 -0.0801
  179SLPC   O1120412   1.710   1.114  10.241 -0.0945 -0.1183 -0.4424
  179SLPC    C120413   1.693   1.120  10.100 -0.4058  0.0211  0.6897
  179SLPC    HA20414   1.595   1.166  10.072  1.0339  1.7980 -1.9313
  179SLPC    HB20415   1.771   1.172  10.040 -1.1691 -1.3990 -1.6699
  179SLPC    C220416   1.693   0.970  10.050 -0.7320 -0.2156  0.1698
  179SLPC    HS20417   1.792   0.925  10.071  0.7484  2.4391 -0.7279
  179SLPC   O2120418   1.652   0.975   9.915 -0.3818  0.7546  0.3157
  179SLPC   C2120419   1.704   0.878   9.832 -0.4504  0.5259 -0.6752
  179SLPC   O2220420   1.785   0.793   9.860  0.4477  1.0778 -0.6043
  179SLPC   C2220421   1.648   0.908   9.693  0.2783  0.1645  0.0524
  179SLPC   H2R20422   1.548   0.951   9.710 -0.1644 -1.3861  1.6034
  179SLPC   H2S20423   1.723   0.980   9.652 -0.3572  2.1948  2.2537
  179SLPC    C320424   1.584   0.886  10.125  0.1148  0.4842  0.4387
  179SLPC    HX20425   1.492   0.947  10.137 -1.3072 -1.6251  0.6551
  179SLPC    HY20426   1.606   0.861  10.231 -2.4784  0.5822  1.0573
  179SLPC   O3120427   1.563   0.761  10.050 -0.2711  0.4840  0.5593
  179SLPC   C3120428   1.642   0.660  10.089  0.5018 -0.2337 -0.6408
  179SLPC   O3220429   1.723   0.676  10.178 -0.1063  0.4495 -0.0432
  179SLPC   C3220430   1.610   0.526  10.020  0.3449 -0.7059  0.1622
  179SLPC   H2X20431   1.599   0.560   9.915 -0.8595 -1.0543  0.1647
  179SLPC   H2Y20432   1.516   0.479  10.054 -1.3752  2.2617 -0.1420
  179SLPC   C2320433   1.636   0.785   9.603 -0.1763 -0.0971  0.4348
  179SLPC   H3R20434   1.593   0.713   9.676  0.5397 -0.4506  0.5184
  179SLPC   H3S20435   1.732   0.741   9.570 -0.4304 -2.1895  2.2664
  179SLPC   C2420436   1.534   0.810   9.488  0.1281  0.0442  0.2857
  179SLPC   H4R20437   1.439   0.859   9.517 -0.3395  0.9184 -2.3694
  179SLPC   H4S20438   1.511   0.709   9.448 -2.4559  0.7536 -0.1719
  179SLPC   C2520439   1.609   0.900   9.377  0.4965 -0.8383 -0.2195
  179SLPC   H5R20440   1.712   0.858   9.377  0.1012 -1.8480 -1.4769
  179SLPC   H5S20441   1.620   1.008   9.402  0.4447 -0.5802 -1.2677
  179SLPC   C2620442   1.531   0.879   9.242  0.3350  0.7531 -0.8577
  179SLPC   H6R20443   1.449   0.954   9.240  1.1892  1.7621  0.2615
  179SLPC   H6S20444   1.500   0.773   9.243 -0.2499  0.9140 -1.5277
  179SLPC   C2720445   1.632   0.912   9.131 -0.2235  0.1944  0.4673
  179SLPC   H7R20446   1.734   0.875   9.157  0.8798  1.7769 -1.3158
  179SLPC   H7S20447   1.650   1.022   9.129 -0.9392  0.3702  2.0892
  179SLPC   C2820448   1.617   0.855   8.985 -0.7413 -0.1820  0.4263
  179SLPC   H8R20449   1.604   0.745   8.994 -0.9592 -0.1435  0.6076
  179SLPC   H8S20450   1.720   0.877   8.949 -0.4519  2.9031  2.7200
  179SLPC   C2920451   1.514   0.927   8.897  0.7356  0.3525  0.6415
  179SLPC   H9R20452   1.463   1.013   8.942  3.5184  2.3435  0.2723
  179SLPC  C21020453   1.488   0.899   8.766  0.0777 -0.0539 -0.7588
  179SLPC  H10R20454   1.415   0.966   8.719  0.9155  0.5552 -1.2082
  179SLPC  C21120455   1.556   0.806   8.679 -0.3321  0.5374 -0.2986
  179SLPC  H11R20456   1.619   0.745   8.746 -1.5061  1.6864  1.9696
  179SLPC  H11S20457   1.634   0.866   8.627  1.4519  0.0651  1.6768
  179SLPC  C21220458   1.483   0.713   8.592 -0.3444 -0.6296  0.1080
  179SLPC  H12R20459   1.454   0.620   8.643 -1.2919  0.4745  1.6922
  179SLPC  C21320460   1.443   0.740   8.468  0.4227  0.4790 -0.7630
  179SLPC  H13R20461   1.369   0.670   8.427 -1.4277  0.1568  2.6988
  179SLPC  C21420462   1.457   0.870   8.396  0.2640 -0.3953 -0.6047
  179SLPC  H14R20463   1.474   0.852   8.288  1.5800 -1.4323 -0.2577
  179SLPC  H14S20464   1.538   0.930   8.444  0.5498 -2.0643  1.1325
  179SLPC  C21520465   1.328   0.959   8.407  0.0304  0.0888 -0.3476
  179SLPC  H15R20466   1.323   0.990   8.514 -0.7838  2.0309 -0.8988
  179SLPC  H15S20467   1.234   0.910   8.373  0.2123  0.7053 -1.8014
  179SLPC  C21620468   1.337   1.085   8.316 -0.4550 -0.0478  0.0044
  179SLPC  H16R20469   1.434   1.139   8.318 -0.5260  0.0694  0.5707
  179SLPC  H16S20470   1.275   1.164   8.364  1.0845 -0.2544  2.5242
  179SLPC  C21720471   1.318   1.068   8.167 -0.1571 -0.1322 -0.1148
  179SLPC  H17R20472   1.361   0.968   8.142  1.2628  0.4775 -0.2078
  179SLPC  H17S20473   1.367   1.149   8.108 -1.2483 -0.4941 -1.5815
  179SLPC  C21820474   1.172   1.061   8.125  0.2400  0.2193 -0.1553
  179SLPC  H18R20475   1.116   1.155   8.147  1.1046  1.2018 -1.9447
  179SLPC  H18S20476   1.124   0.976   8.177 -0.3171  0.0814 -0.8918
  179SLPC  H18T20477   1.181   1.053   8.015  2.5517 -1.0303  0.0659
  179SLPC   C3320478   1.725   0.422  10.034  0.2611 -0.3307 -0.2500
  179SLPC   H3X20479   1.746   0.403  10.142  1.6041 -0.2059 -0.4654
  179SLPC   H3Y20480   1.827   0.464  10.018 -0.4040  1.0036 -1.1279
  179SLPC   C3420481   1.703   0.280   9.975  0.0797  0.4313 -0.4088
  179SLPC   H4X20482   1.596   0.258   9.958  0.6733 -2.7644 -0.5487
  179SLPC   H4Y20483   1.742   0.218  10.058  5.9528  3.0672 -0.6940
  179SLPC   C3520484   1.775   0.251   9.845 -0.0227 -0.8236 -0.1473
  179SLPC   H5X20485   1.748   0.145   9.824  1.5406 -1.2856  0.0364
  179SLPC   H5Y20486   1.883   0.258   9.870  0.2463  2.2766 -1.7948
  179SLPC   C3620487   1.735   0.354   9.738  0.2556  0.4584  0.0340
  179SLPC   H6X20488   1.742   0.455   9.782 -1.1785  0.3762  0.4801
  179SLPC   H6Y20489   1.631   0.330   9.708  0.4284  0.8162 -0.8930
  179SLPC   C3720490   1.818   0.334   9.605 -0.2824  0.2132 -0.5293
  179SLPC   H7X20491   1.815   0.227   9.573 -1.0682 -0.3687  1.3348
  179SLPC   H7Y20492   1.915   0.376   9.640 -0.4521 -0.9053  1.5035
  179SLPC   C3820493   1.773   0.431   9.494  0.4084  0.9657 -0.0332
  179SLPC   H8X20494   1.765   0.533   9.539  1.0191  0.0253  2.3551
  179SLPC   H8Y20495   1.672   0.401   9.461  0.4715  0.7413 -0.0242
  179SLPC   C3920496   1.865   0.444   9.372 -1.0332 -0.4614 -0.0941
  179SLPC   H9X20497   1.896   0.338   9.359  0.4143 -0.1416  0.4732
  179SLPC   H9Y20498   1.955   0.500   9.406  0.0657 -1.7210 -0.8461
  179SLPC  C31020499   1.804   0.509   9.252  0.7480 -0.4506  0.0183
  179SLPC  H10X20500   1.877   0.570   9.195 -0.6047  0.3759 -0.9136
  179SLPC  H10Y20501   1.716   0.570   9.282 -0.6125 -1.9950 -0.6552
  179SLPC  C31120502   1.737   0.401   9.156 -0.5766 -0.1311 -0.6026
  179SLPC  H11X20503   1.659   0.339   9.206 -0.0863 -0.9140 -0.7831
  179SLPC  H11Y20504   1.814   0.325   9.129 -0.7628 -0.0762 -1.3298
  179SLPC  C31220505   1.674   0.458   9.034  0.0585  0.0060 -0.5271
  179SLPC  H12X20506   1.744   0.517   8.970 -1.0762  1.6300 -0.3599
  179SLPC  H12Y20507   1.609   0.538   9.076 -0.4276 -1.9255  2.6789
  179SLPC  C31320508   1.591   0.363   8.940  0.0922 -0.4016 -0.4973
  179SLPC  H13X20509   1.655   0.284   8.896 -0.4115 -0.0409 -1.9325
  179SLPC  H13Y20510   1.545   0.420   8.857 -1.5952 -0.8002  0.1262
  179SLPC  C31420511   1.472   0.287   9.005 -0.3007 -0.5721 -0.0302
  179SLPC  H14X20512   1.416   0.350   9.077  0.8838  0.1673  0.2649
  179SLPC  H14Y20513   1.514   0.210   9.073  1.6693  1.0166  0.6713
  179SLPC  C31520514   1.380   0.212   8.908 -0.5052  0.2803  0.0199
  179SLPC  H15X20515   1.329   0.291   8.849 -3.7131 -1.4580  0.2757
  179SLPC  H15Y20516   1.317   0.149   8.974  2.3142  0.9106  3.6391
  179SLPC  C31620517   1.460   0.127   8.810  0.7202  0.2754  0.2310
  179SLPC  H16X20518   1.516   0.195   8.743  1.1346 -1.1447 -0.9007
  179SLPC  H16Y20519   1.379   0.071   8.759 -0.5091  0.9731  1.3527
  179SLPC  C31720520   1.553   0.026   8.876 -0.4790 -0.5031  0.2489
  179SLPC  H17X20521   1.631   0.080   8.933 -1.6420  1.1852  0.2971
  179SLPC  H17Y20522   1.603  -0.032   8.796  0.9656  1.5445 -0.3992
  179SLPC  C31820523   1.471  -0.071   8.961 -0.0919 -0.0610  0.1067
  179SLPC  H18X20524   1.435  -0.024   9.055 -1.9506 -0.5633 -0.3062
  179SLPC  H18Y20525   1.532  -0.159   8.992 -0.2671 -0.7067 -1.2891
  179SLPC  H18Z20526   1.384  -0.107   8.901 -0.2096 -1.2152  0.9236
  180SLPC     N20527   3.712   3.566  10.875 -0.6408 -0.0719 -0.2006
  180SLPC   C1320528   3.595   3.632  10.935  0.5647  0.6010 -0.0976
  180SLPC  H13A20529   3.516   3.640  10.863  0.3727  1.4710  0.1978
  180SLPC  H13B20530   3.565   3.567  11.015 -0.9224  0.2708 -0.8935
  180SLPC  H13C20531   3.609   3.727  10.984 -0.8155  1.1105 -0.6513
  180SLPC   C1420532   3.671   3.438  10.817 -0.0586 -0.0895 -0.0388
  180SLPC  H14A20533   3.762   3.394  10.779  2.1607  2.9780  1.2915
  180SLPC  H14B20534   3.623   3.372  10.888 -0.6669  0.0298 -0.3345
  180SLPC  H14C20535   3.606   3.458  10.734 -0.5099  0.1105  0.3593
  180SLPC   C1520536   3.810   3.540  10.989  0.5733 -0.5171 -0.1927
  180SLPC  H15A20537   3.760   3.514  11.081  0.4263  0.6922  0.0954
  180SLPC  H15B20538   3.884   3.467  10.962  0.9576 -0.2096  0.0123
  180SLPC  H15C20539   3.868   3.626  11.020  0.5476 -0.7570  0.5329
  180SLPC   C1220540   3.779   3.650  10.766  0.0949 -0.8778  0.2830
  180SLPC  H12A20541   3.863   3.602  10.718 -0.2131 -0.5391 -0.6193
  180SLPC  H12B20542   3.815   3.734  10.824 -2.3784  0.0885  0.5250
  180SLPC   C1120543   3.682   3.705  10.651  0.0865  0.3509 -0.2257
  180SLPC  H11A20544   3.603   3.629  10.636  1.0216 -0.3809 -1.6467
  180SLPC  H11B20545   3.734   3.729  10.556 -0.1540 -1.0405 -0.7204
  180SLPC     P20546   3.683   3.967  10.680 -0.4973 -0.1351  0.5220
  180SLPC   O1320547   3.653   4.065  10.789  0.1210 -0.4378 -0.1561
  180SLPC   O1420548   3.827   3.950  10.660  0.3276 -0.0648 -0.1279
  180SLPC   O1220549   3.619   3.823  10.705 -0.2870  0.4940  0.4767
  180SLPC   O1120550   3.618   4.015  10.548  0.1080  0.2531  0.1243
  180SLPC    C120551   3.667   3.987  10.417 -0.3191 -0.4466  0.4981
  180SLPC    HA20552   3.702   3.882  10.404 -0.0067 -0.5170  1.8094
  180SLPC    HB20553   3.581   3.995  10.347  0.9793 -0.9628 -1.2176
  180SLPC    C220554   3.783   4.079  10.366  0.1542  0.3949 -0.0856
  180SLPC    HS20555   3.801   4.147  10.453  1.0038  0.7764 -0.5524
  180SLPC   O2120556   3.727   4.147  10.249  0.6303 -0.0961  0.2992
  180SLPC   C2120557   3.788   4.260  10.228 -0.3725  0.2776 -0.2496
  180SLPC   O2220558   3.855   4.321  10.307 -0.3129 -0.3444  0.1386
  180SLPC   C2220559   3.774   4.303  10.083 -0.0267 -0.0978 -0.6206
  180SLPC   H2R20560   3.714   4.395  10.090  0.1255 -0.0787  0.6351
  180SLPC   H2S20561   3.878   4.325  10.051  0.4925 -1.1664  0.2383
  180SLPC    C320562   3.910   4.003  10.323  0.4476 -0.1325  0.1796
  180SLPC    HX20563   3.872   3.950  10.234  0.4274 -1.3907  0.9086
  180SLPC    HY20564   3.926   3.921  10.396  1.3610 -0.4706 -0.3798
  180SLPC   O3120565   4.024   4.087  10.300 -0.0568  0.1360  0.6023
  180SLPC   C3120566   4.084   4.147  10.403  0.1723 -0.1464  0.0979
  180SLPC   O3220567   4.042   4.152  10.519 -0.4150 -0.0251 -0.0943
  180SLPC   C3220568   4.213   4.211  10.358  0.0312  0.2456 -0.2794
  180SLPC   H2X20569   4.294   4.136  10.366  0.5489  0.3558 -3.3635
  180SLPC   H2Y20570   4.238   4.288  10.435 -0.5693 -0.0171  0.1890
  180SLPC   C2320571   3.719   4.204   9.970  0.1698  0.2179 -0.3549
  180SLPC   H3R20572   3.618   4.176  10.007 -1.2380  4.5721 -0.2169
  180SLPC   H3S20573   3.784   4.115   9.959  1.2433  0.8984  0.2109
  180SLPC   C2420574   3.695   4.277   9.839  0.6905  0.2703  0.6363
  180SLPC   H4R20575   3.644   4.374   9.852 -2.0879 -1.2408  1.9093
  180SLPC   H4S20576   3.613   4.237   9.776 -0.0483  2.3829  0.1879
  180SLPC   C2520577   3.825   4.304   9.751  0.2743 -0.2780 -0.6940
  180SLPC   H5R20578   3.879   4.209   9.731  0.1484 -0.9645  1.8352
  180SLPC   H5S20579   3.895   4.372   9.804  1.3301 -1.9570  0.1421
  180SLPC   C2620580   3.795   4.372   9.614 -0.5369 -0.5631  0.9714
  180SLPC   H6R20581   3.892   4.370   9.559 -1.0731 -1.3706  0.0258
  180SLPC   H6S20582   3.769   4.479   9.632  2.4217  0.3574  0.3363
  180SLPC   C2720583   3.685   4.308   9.528 -0.4661  0.4564 -0.6582
  180SLPC   H7R20584   3.592   4.364   9.551 -1.4302 -0.3986 -2.2453
  180SLPC   H7S20585   3.684   4.198   9.547 -1.1105  0.1917 -2.0803
  180SLPC   C2820586   3.702   4.337   9.384  0.5525 -0.2581  0.5251
  180SLPC   H8R20587   3.799   4.289   9.358  0.6929  1.2538 -2.0758
  180SLPC   H8S20588   3.718   4.447   9.382  2.4702 -0.4360  2.2291
  180SLPC   C2920589   3.589   4.297   9.300  0.4136  0.0383  0.7015
  180SLPC   H9R20590   3.489   4.305   9.343 -0.6756 -1.7023 -1.3023
  180SLPC  C21020591   3.600   4.255   9.176  0.0066  0.0449 -0.1019
  180SLPC  H10R20592   3.503   4.225   9.134  0.2683 -3.1246  1.2475
  180SLPC  C21120593   3.723   4.239   9.090 -0.1235 -0.2689 -0.1586
  180SLPC  H11R20594   3.769   4.139   9.076  0.4180  0.1436 -1.4748
  180SLPC  H11S20595   3.807   4.294   9.139  1.1654 -1.2926 -1.1517
  180SLPC  C21220596   3.689   4.296   8.952  0.8018 -0.2981  0.5270
  180SLPC  H12R20597   3.664   4.403   8.943 -1.6680 -0.8652 -0.2542
  180SLPC  C21320598   3.662   4.227   8.833 -0.1696  0.3973 -0.0818
  180SLPC  H13R20599   3.662   4.288   8.742 -2.7780  0.1850 -0.2932
  180SLPC  C21420600   3.675   4.080   8.810  0.6674  0.0070 -0.3680
  180SLPC  H14R20601   3.588   4.024   8.849  0.8598  0.4640  0.7345
  180SLPC  H14S20602   3.760   4.050   8.876 -0.0129  0.6233  0.8062
  180SLPC  C21520603   3.715   4.046   8.660  0.0895  0.6163 -0.0175
  180SLPC  H15R20604   3.807   4.109   8.652 -0.8055  2.2540  1.7002
  180SLPC  H15S20605   3.631   4.068   8.591 -0.6815 -3.1244 -0.4535
  180SLPC  C21620606   3.761   3.904   8.618  0.5675 -0.3033 -0.9430
  180SLPC  H16R20607   3.676   3.835   8.632 -2.4340  3.3066  0.4128
  180SLPC  H16S20608   3.846   3.872   8.683  0.6553 -0.4887 -1.1512
  180SLPC  C21720609   3.800   3.904   8.470  0.5301  0.1105  0.0897
  180SLPC  H17R20610   3.899   3.951   8.454  0.2697 -0.0052 -2.1140
  180SLPC  H17S20611   3.723   3.962   8.414  1.5456  0.2187 -1.2329
  180SLPC  C21820612   3.811   3.758   8.419  0.2916 -0.8374 -0.3142
  180SLPC  H18R20613   3.884   3.712   8.489  0.8811  2.9349  1.8290
  180SLPC  H18S20614   3.855   3.747   8.317  1.8456 -2.6870  0.4823
  180SLPC  H18T20615   3.718   3.698   8.432 -1.1324  1.3305  0.0530
  180SLPC   C3320616   4.215   4.270  10.217  0.1248 -0.5115  0.3609
  180SLPC   H3X20617   4.132   4.344  10.207 -0.7235 -1.5443 -0.5964
  180SLPC   H3Y20618   4.193   4.193  10.139 -0.1432 -0.1075  0.0307
  180SLPC   C3420619   4.343   4.347  10.183  0.4932  0.2765 -0.3492
  180SLPC   H4X20620   4.438   4.290  10.187  0.2785 -0.2142 -1.5843
  180SLPC   H4Y20621   4.363   4.415  10.268 -0.4598 -1.3348  1.2189
  180SLPC   C3520622   4.342   4.434  10.055 -0.0561 -0.1601  0.0181
  180SLPC   H5X20623   4.434   4.497  10.059  0.4196 -0.7055  5.3239
  180SLPC   H5Y20624   4.249   4.495  10.051 -0.1910 -0.2355  1.3399
  180SLPC   C3620625   4.342   4.366   9.920 -0.2833  0.5957  0.6539
  180SLPC   H6X20626   4.241   4.324   9.898 -0.0293  0.8694 -1.1893
  180SLPC   H6Y20627   4.408   4.276   9.921 -2.0284 -0.7962 -1.2650
  180SLPC   C3720628   4.376   4.453   9.799 -0.6529 -0.5693 -0.3971
  180SLPC   H7X20629   4.484   4.475   9.801 -0.5350 -0.9946  2.3709
  180SLPC   H7Y20630   4.326   4.552   9.803  1.1980  0.3850  0.3921
  180SLPC   C3820631   4.362   4.378   9.664 -0.0503 -0.6609  0.6223
  180SLPC   H8X20632   4.257   4.366   9.632  0.3566 -2.3167 -0.2398
  180SLPC   H8Y20633   4.401   4.274   9.655  0.0109 -0.4636 -2.5269
  180SLPC   C3920634   4.429   4.453   9.547 -0.0760  0.9558 -1.5097
  180SLPC   H9X20635   4.539   4.436   9.556 -0.2947 -0.5368 -1.5239
  180SLPC   H9Y20636   4.406   4.562   9.541 -0.1762  0.9890 -0.6375
  180SLPC  C31020637   4.402   4.400   9.406 -0.0707 -0.6424 -0.2424
  180SLPC  H10X20638   4.294   4.414   9.387  0.2060 -0.0548 -1.4683
  180SLPC  H10Y20639   4.426   4.292   9.397 -0.1634 -0.6822 -0.0261
  180SLPC  C31120640   4.476   4.478   9.299 -0.1455 -0.1550 -0.1323
  180SLPC  H11X20641   4.581   4.475   9.334 -0.5219  1.8833  1.3301
  180SLPC  H11Y20642   4.445   4.584   9.298 -1.7169 -0.5332  2.1982
  180SLPC  C31220643   4.464   4.407   9.163 -0.2649 -0.2728  0.1025
  180SLPC  H12X20644   4.493   4.302   9.183 -1.7662 -1.1306 -1.8481
  180SLPC  H12Y20645   4.536   4.457   9.094 -2.1019 -1.6988 -3.0871
  180SLPC  C31320646   4.326   4.419   9.099 -0.4842 -0.5389  0.5664
  180SLPC  H13X20647   4.318   4.518   9.050 -2.5918  0.4831  2.7855
  180SLPC  H13Y20648   4.247   4.409   9.177  0.1673 -0.8048  1.2031
  180SLPC  C31420649   4.296   4.309   8.995  0.0739 -0.0730  0.2415
  180SLPC  H14X20650   4.278   4.211   9.043 -1.6934 -1.3105 -2.6940
  180SLPC  H14Y20651   4.382   4.310   8.923  0.6128  0.8579  0.8739
  180SLPC  C31520652   4.165   4.352   8.927  0.0688  0.5059 -0.5222
  180SLPC  H15X20653   4.180   4.434   8.854  0.5330  1.9621  1.1348
  180SLPC  H15Y20654   4.100   4.385   9.011 -0.7720 -0.4124 -0.7837
  180SLPC  C31620655   4.095   4.240   8.856  0.5206 -0.0001 -0.3995
  180SLPC  H16X20656   3.990   4.265   8.828  0.0336 -1.7919 -0.3022
  180SLPC  H16Y20657   4.084   4.163   8.936  1.9979  0.9290  0.7480
  180SLPC  C31720658   4.171   4.208   8.733  0.9096 -0.5354 -0.4097
  180SLPC  H17X20659   4.163   4.097   8.722 -1.6696 -0.6345  1.5608
  180SLPC  H17Y20660   4.275   4.245   8.747  1.0168  0.1146 -2.5878
  180SLPC  C31820661   4.113   4.282   8.606  0.2419  0.0489 -0.3742
  180SLPC  H18X20662   4.186   4.272   8.522  2.1284  2.6277  0.8135
  180SLPC  H18Y20663   4.113   4.392   8.620 -2.2298  0.2505 -1.4831
  180SLPC  H18Z20664   4.012   4.244   8.580  1.3355 -1.6281 -2.5301
  181SLPC     N20665   0.045   5.524  10.898 -0.5127  0.0100  0.2014
  181SLPC   C1320666  -0.076   5.491  10.825 -0.5742 -1.0299 -0.0790
  181SLPC  H13A20667  -0.144   5.437  10.889 -0.1135 -2.1369 -0.5061
  181SLPC  H13B20668  -0.129   5.580  10.791  0.0920 -1.1020 -1.3694
  181SLPC  H13C20669  -0.055   5.429  10.740  1.6444 -0.0401 -0.3264
  181SLPC   C1420670   0.098   5.400  10.970 -0.6882 -0.7433  0.5190
  181SLPC  H14A20671   0.097   5.327  10.890 -1.2388  0.7014 -0.8334
  181SLPC  H14B20672   0.190   5.408  11.027 -0.3815  1.6597 -0.1826
  181SLPC  H14C20673   0.031   5.365  11.047 -1.6702  0.3668  0.2012
  181SLPC   C1520674  -0.003   5.627  11.002 -0.1965  0.7631  0.2654
  181SLPC  H15A20675   0.077   5.659  11.067  0.5204  2.2518 -1.2801
  181SLPC  H15B20676  -0.041   5.710  10.945 -2.2912 -1.1327 -1.2909
  181SLPC  H15C20677  -0.075   5.589  11.073 -0.2775 -2.4012 -1.3048
  181SLPC   C1220678   0.136   5.590  10.793  0.2728 -0.3525 -0.0971
  181SLPC  H12A20679   0.081   5.676  10.758 -1.1411 -1.4389 -0.6297
  181SLPC  H12B20680   0.145   5.514  10.716 -0.4136 -2.8344  2.1370
  181SLPC   C1120681   0.274   5.631  10.845  0.7623 -0.2754  0.2355
  181SLPC  H11A20682   0.339   5.640  10.755  0.9149 -1.1722  0.2459
  181SLPC  H11B20683   0.329   5.562  10.913  1.4911 -1.5756 -1.5859
  181SLPC     P20684   0.270   5.899  10.840 -0.0558 -0.0614 -0.3916
  181SLPC   O1320685   0.226   6.001  10.941  0.0971  0.3439  0.4784
  181SLPC   O1420686   0.410   5.915  10.788  0.2135 -0.4052 -0.1956
  181SLPC   O1220687   0.264   5.759  10.915  0.0754  0.1768 -0.3308
  181SLPC   O1120688   0.167   5.889  10.721 -0.0150  1.3145  0.5183
  181SLPC    C120689   0.160   5.996  10.625  0.1570  0.1782  1.1844
  181SLPC    HA20690   0.057   6.038  10.621  0.0752 -0.0244 -2.3885
  181SLPC    HB20691   0.228   6.082  10.642 -1.1154  1.1535  1.4712
  181SLPC    C220692   0.194   5.946  10.479 -0.3705  0.1763 -0.3572
  181SLPC    HS20693   0.240   6.028  10.420 -0.0465 -0.8713 -1.5912
  181SLPC   O2120694   0.075   5.898  10.409 -0.2543  0.0342  0.0523
  181SLPC   C2120695  -0.013   5.986  10.376  0.0370  0.1249 -0.8066
  181SLPC   O2220696  -0.001   6.109  10.396 -0.1108  0.3794  0.0720
  181SLPC   C2220697  -0.134   5.909  10.313  0.5156  0.5111 -0.6521
  181SLPC   H2R20698  -0.103   5.829  10.243  0.7776 -1.3444  1.4583
  181SLPC   H2S20699  -0.191   5.860  10.395  0.5985  0.2531 -0.7461
  181SLPC    C320700   0.295   5.827  10.488 -0.1353 -0.0121  0.1834
  181SLPC    HX20701   0.258   5.755  10.564  0.6637 -2.4609 -1.6418
  181SLPC    HY20702   0.396   5.865  10.512  0.6090 -1.3452 -0.7298
  181SLPC   O3120703   0.289   5.756  10.364 -0.2840 -0.6460  0.1442
  181SLPC   C3120704   0.408   5.689  10.342 -0.3247 -0.8868  0.2173
  181SLPC   O3220705   0.500   5.685  10.417  0.0390 -0.0225 -0.1750
  181SLPC   C3220706   0.393   5.604  10.218  0.3313  0.5399 -0.1523
  181SLPC   H2X20707   0.285   5.607  10.193  0.1034 -1.3919  0.4386
  181SLPC   H2Y20708   0.431   5.502  10.237 -1.5753 -0.2296 -0.2780
  181SLPC   C2320709  -0.240   5.999  10.257  0.4411  0.4264 -0.0641
  181SLPC   H3R20710  -0.266   6.084  10.324 -1.0773 -0.2032  0.1854
  181SLPC   H3S20711  -0.333   5.940  10.238  1.4389 -0.4615 -2.7339
  181SLPC   C2420712  -0.209   6.050  10.107  0.2367  0.7008 -0.2692
  181SLPC   H4R20713  -0.103   6.086  10.107 -0.1914  2.0157  0.0541
  181SLPC   H4S20714  -0.282   6.130  10.086  0.6863  1.0358 -0.5847
  181SLPC   C2520715  -0.220   5.953   9.990 -0.2568 -0.3537 -0.5064
  181SLPC   H5R20716  -0.299   5.881  10.017 -1.7650  0.7339 -1.8318
  181SLPC   H5S20717  -0.135   5.886   9.966 -1.2874 -1.6976 -0.4691
  181SLPC   C2620718  -0.265   6.020   9.859  0.2387 -0.0701  0.1477
  181SLPC   H6R20719  -0.189   6.100   9.846  0.5628 -0.5520 -1.0813
  181SLPC   H6S20720  -0.370   6.056   9.862  0.7704  1.6922 -0.8549
  181SLPC   C2720721  -0.255   5.927   9.732 -0.9179 -0.0822  0.1237
  181SLPC   H7R20722  -0.327   5.843   9.744  1.5434 -2.3214  0.1966
  181SLPC   H7S20723  -0.150   5.890   9.732 -0.1170  1.8951 -2.6084
  181SLPC   C2820724  -0.271   5.993   9.590  0.4310  0.5384 -0.4263
  181SLPC   H8R20725  -0.377   6.027   9.589  0.2667  0.1509  1.1431
  181SLPC   H8S20726  -0.258   5.913   9.514 -1.5983  1.1837 -1.5332
  181SLPC   C2920727  -0.173   6.106   9.558  0.9167  0.0249 -0.5105
  181SLPC   H9R20728  -0.134   6.163   9.644 -1.0217  2.7940 -1.3406
  181SLPC  C21020729  -0.108   6.116   9.440  0.1028 -0.4960  0.6716
  181SLPC  H10R20730  -0.053   6.208   9.413 -1.4193  0.2713 -0.0032
  181SLPC  C21120731  -0.124   6.033   9.312 -0.1967  0.0863  0.2779
  181SLPC  H11R20732  -0.144   5.927   9.340  1.1225 -0.3183 -0.2556
  181SLPC  H11S20733  -0.033   6.041   9.250 -0.2591 -1.5011 -0.0577
  181SLPC  C21220734  -0.257   6.082   9.240 -0.3080  0.0443  0.2155
  181SLPC  H12R20735  -0.351   6.093   9.297 -1.0429  2.1027 -1.2671
  181SLPC  C21320736  -0.275   6.092   9.105  0.5949 -0.1200 -0.6727
  181SLPC  H13R20737  -0.378   6.116   9.075 -0.4029 -2.5089  0.6375
  181SLPC  C21420738  -0.172   6.064   8.994 -0.3438 -0.0262 -0.5917
  181SLPC  H14R20739  -0.220   5.996   8.920  0.0708 -0.5044 -0.4301
  181SLPC  H14S20740  -0.075   6.029   9.035  0.7176 -1.0774 -3.7056
  181SLPC  C21520741  -0.130   6.195   8.918 -0.1429 -0.7202 -0.0249
  181SLPC  H15R20742  -0.035   6.191   8.861 -1.7327  1.5383 -3.1752
  181SLPC  H15S20743  -0.114   6.274   8.994  0.0811 -0.6643 -0.1308
  181SLPC  C21620744  -0.240   6.232   8.826  0.1699  0.1731 -0.1420
  181SLPC  H16R20745  -0.225   6.337   8.795  1.6427 -0.1271 -0.5179
  181SLPC  H16S20746  -0.342   6.239   8.870 -0.0043  1.0465 -0.6571
  181SLPC  C21720747  -0.254   6.156   8.699  0.3066 -0.0324 -0.0016
  181SLPC  H17R20748  -0.289   6.051   8.714  0.5040 -0.2155 -0.7947
  181SLPC  H17S20749  -0.161   6.139   8.641 -0.9058 -1.3445 -1.6813
  181SLPC  C21820750  -0.365   6.208   8.603 -0.3560  0.0982  0.1655
  181SLPC  H18R20751  -0.380   6.316   8.625  0.9223  0.5914 -1.2237
  181SLPC  H18S20752  -0.455   6.151   8.632 -1.2426  0.5734 -1.5521
  181SLPC  H18T20753  -0.351   6.188   8.495 -1.3627  1.8590 -0.3299
  181SLPC   C3320754   0.458   5.660  10.088  0.8514  1.1635 -0.1475
  181SLPC   H3X20755   0.568   5.662  10.103  0.8151 -0.6883  0.5757
  181SLPC   H3Y20756   0.422   5.764  10.069  0.5109  0.6043 -2.9221
  181SLPC   C3420757   0.437   5.570   9.967  0.6201  0.3929 -0.2408
  181SLPC   H4X20758   0.327   5.569   9.950  0.6338 -1.1705 -0.3605
  181SLPC   H4Y20759   0.466   5.463   9.969 -1.1283 -0.1089  0.7030
  181SLPC   C3520760   0.512   5.635   9.846  0.4687  0.6761  0.1836
  181SLPC   H5X20761   0.617   5.671   9.860  1.5473 -1.6628 -1.3366
  181SLPC   H5Y20762   0.456   5.725   9.814 -3.3411 -1.4476  0.3453
  181SLPC   C3620763   0.516   5.543   9.724 -0.3397 -0.3985 -0.0563
  181SLPC   H6X20764   0.411   5.510   9.707 -0.2831 -0.8478  0.4616
  181SLPC   H6Y20765   0.582   5.458   9.752 -1.0956 -0.1553  2.7574
  181SLPC   C3720766   0.564   5.616   9.600  0.2525 -0.2795 -0.3339
  181SLPC   H7X20767   0.670   5.646   9.615  0.3039  0.1925 -1.5339
  181SLPC   H7Y20768   0.515   5.715   9.590  1.1403  0.0609 -1.7703
  181SLPC   C3820769   0.553   5.527   9.473  0.0715 -0.0156  0.4305
  181SLPC   H8X20770   0.444   5.515   9.456  0.1118  0.4622 -0.1976
  181SLPC   H8Y20771   0.605   5.430   9.489 -1.0385 -0.5780  0.7686
  181SLPC   C3920772   0.616   5.607   9.355  0.7337  0.5234 -0.6705
  181SLPC   H9X20773   0.723   5.628   9.380  0.0443  2.4229  0.8853
  181SLPC   H9Y20774   0.566   5.706   9.345 -0.3105  0.1945  0.9201
  181SLPC  C31020775   0.592   5.554   9.214  0.4839 -0.1613  0.0480
  181SLPC  H10X20776   0.485   5.525   9.202  0.4716 -0.5037  0.8890
  181SLPC  H10Y20777   0.654   5.461   9.215 -0.3085 -0.6972  0.4558
  181SLPC  C31120778   0.634   5.656   9.112 -0.0425  0.1723 -0.1727
  181SLPC  H11X20779   0.739   5.685   9.136 -0.3207  1.0265  0.0474
  181SLPC  H11Y20780   0.579   5.753   9.114 -0.4099 -0.0024 -1.2088
  181SLPC  C31220781   0.638   5.602   8.966  0.3922  0.1283  0.0279
  181SLPC  H12X20782   0.530   5.596   8.942  0.2691 -0.2542  0.6547
  181SLPC  H12Y20783   0.678   5.499   8.957  2.5003  0.9772 -0.8925
  181SLPC  C31320784   0.715   5.680   8.860  0.1482 -0.1892 -0.5962
  181SLPC  H13X20785   0.714   5.632   8.760  1.2599 -0.3987 -0.5220
  181SLPC  H13Y20786   0.819   5.681   8.900 -0.6414  0.2564  1.5986
  181SLPC  C31420787   0.670   5.825   8.833  0.6601  0.4821  0.3643
  181SLPC  H14X20788   0.615   5.865   8.921 -0.7694  0.5521 -0.5422
  181SLPC  H14Y20789   0.588   5.823   8.759  1.4030  1.0025 -0.4927
  181SLPC  C31520790   0.779   5.924   8.794  0.1626 -0.2744  0.1980
  181SLPC  H15X20791   0.729   6.020   8.766  0.8826 -0.9336 -3.9624
  181SLPC  H15Y20792   0.818   5.901   8.693 -1.2980  1.2541 -0.7827
  181SLPC  C31620793   0.880   5.964   8.910 -0.0145 -0.7247 -1.4008
  181SLPC  H16X20794   0.906   5.875   8.972  1.6990  1.5911  1.4542
  181SLPC  H16Y20795   0.836   6.024   8.993  1.6581 -0.7088 -0.4750
  181SLPC  C31720796   0.997   6.053   8.857  0.6449  0.4969 -0.0413
  181SLPC  H17X20797   1.044   6.003   8.770 -0.5101  1.3010 -1.1717
  181SLPC  H17Y20798   1.069   6.048   8.941  0.3303 -0.8233  0.1710
  181SLPC  C31820799   0.959   6.199   8.837  0.8223  0.2108 -0.4631
  181SLPC  H18X20800   0.889   6.206   8.752  0.3854 -0.6681 -0.1829
  181SLPC  H18Y20801   1.047   6.263   8.815  0.1593  1.5376  0.5616
  181SLPC  H18Z20802   0.908   6.238   8.928 -0.3358 -0.8294 -0.6422
  182SLPC     N20803   5.244   4.114  10.908  0.2308  0.4478 -0.0732
  182SLPC   C1320804   5.324   4.235  10.923 -0.2058 -1.1151  0.1832
  182SLPC  H13A20805   5.407   4.236  10.993 -0.2769  1.4495  0.3116
  182SLPC  H13B20806   5.385   4.247  10.834  1.7321  2.1425  1.7578
  182SLPC  H13C20807   5.264   4.323  10.941 -1.3881 -2.3179  2.5421
  182SLPC   C1420808   5.119   4.138  10.837  0.2728 -0.6840  0.1739
  182SLPC  H14A20809   5.065   4.223  10.875 -0.7726  0.3410 -3.2707
  182SLPC  H14B20810   5.128   4.150  10.730  0.2521 -4.1658 -0.3464
  182SLPC  H14C20811   5.050   4.057  10.855 -0.7569  0.3647  1.1361
  182SLPC   C1520812   5.205   4.068  11.049  0.8538  0.0955 -0.5744
  182SLPC  H15A20813   5.200   4.154  11.114 -0.6962 -0.9783  0.8200
  182SLPC  H15B20814   5.104   4.030  11.046  0.6513  0.5918 -0.1117
  182SLPC  H15C20815   5.271   3.990  11.087 -1.9912 -1.5665  1.3270
  182SLPC   C1220816   5.320   3.998  10.842 -0.3001  0.2356  0.3356
  182SLPC  H12A20817   5.252   3.917  10.822  0.1975  0.1890 -1.3487
  182SLPC  H12B20818   5.397   3.954  10.904  0.7365  0.4497 -0.7480
  182SLPC   C1120819   5.405   4.030  10.714 -0.0139 -0.2433  0.2640
  182SLPC  H11A20820   5.353   4.094  10.640  0.3556  0.1731  0.3633
  182SLPC  H11B20821   5.430   3.939  10.655  0.9639 -0.3321  0.7972
  182SLPC     P20822   5.655   4.030  10.792 -0.8034 -0.1527  0.1255
  182SLPC   O1320823   5.764   4.132  10.822  0.0452  0.7465  0.1147
  182SLPC   O1420824   5.626   3.949  10.908  0.3573 -0.3544  0.0699
  182SLPC   O1220825   5.522   4.100  10.755  0.3467 -0.6061  0.7549
  182SLPC   O1120826   5.677   3.936  10.671  0.3557  0.0775  0.5542
  182SLPC    C120827   5.783   3.843  10.659 -0.4733 -0.1373  0.2172
  182SLPC    HA20828   5.826   3.830  10.760 -1.1666  0.0111  0.5373
  182SLPC    HB20829   5.747   3.744  10.621 -1.4899 -0.0674  0.9662
  182SLPC    C220830   5.890   3.879  10.561  0.0947  0.5993 -0.0532
  182SLPC    HS20831   5.943   3.971  10.595  0.4774 -0.1049  1.2989
  182SLPC   O2120832   5.830   3.884  10.428 -0.0511 -0.3536 -0.6960
  182SLPC   C2120833   5.799   4.000  10.385  0.2599  0.4537 -0.4506
  182SLPC   O2220834   5.831   4.110  10.424 -0.4671  0.0711  0.2822
  182SLPC   C2220835   5.721   3.985  10.250  0.0449  0.6990  0.7389
  182SLPC   H2R20836   5.791   4.005  10.165  0.1955  0.9337  0.9151
  182SLPC   H2S20837   5.691   3.878  10.251 -0.9800  0.9710  0.3126
  182SLPC    C320838   5.996   3.763  10.541  0.9751  0.2787  1.0846
  182SLPC    HX20839   5.939   3.684  10.487  0.4575  1.5604 -0.3380
  182SLPC    HY20840   6.029   3.727  10.641  1.9631 -1.5689  0.1339
  182SLPC   O3120841   6.102   3.801  10.460  0.0918  0.2990  0.2772
  182SLPC   C3120842   6.216   3.738  10.459  0.5032  0.3986 -0.2993
  182SLPC   O3220843   6.226   3.629  10.520 -0.2551  0.2474  0.1930
  182SLPC   C3220844   6.318   3.804  10.374 -0.4809  0.0684  0.4536
  182SLPC   H2X20845   6.379   3.865  10.445 -1.0760 -1.6379  2.5708
  182SLPC   H2Y20846   6.268   3.877  10.308 -1.3193 -0.3307  0.6338
  182SLPC   C2320847   5.594   4.072  10.239  0.3446  1.3429  0.1894
  182SLPC   H3R20848   5.582   4.122  10.338 -0.4051 -0.0024  0.8018
  182SLPC   H3S20849   5.494   4.028  10.216  0.9281 -0.3479  0.7775
  182SLPC   C2420850   5.614   4.174  10.124  0.6331  0.3218  0.3938
  182SLPC   H4R20851   5.720   4.208  10.130  0.1395  2.2999 -1.1269
  182SLPC   H4S20852   5.555   4.268  10.128 -2.0738 -1.2296 -0.6991
  182SLPC   C2520853   5.592   4.113   9.986  0.3567 -0.5304 -0.3322
  182SLPC   H5R20854   5.488   4.138   9.955  0.5320  0.2422 -0.3197
  182SLPC   H5S20855   5.599   4.003   9.994  1.7320 -0.3031  3.1778
  182SLPC   C2620856   5.692   4.149   9.870 -0.3828 -0.0297 -0.2045
  182SLPC   H6R20857   5.795   4.145   9.909 -0.8432  0.8611  1.1749
  182SLPC   H6S20858   5.670   4.250   9.828 -0.2595  0.2394  0.3762
  182SLPC   C2720859   5.684   4.049   9.758  0.0698  0.0806  0.5624
  182SLPC   H7R20860   5.582   4.025   9.723  0.8441 -0.4770 -1.4528
  182SLPC   H7S20861   5.718   3.950   9.796  3.4820  0.5030 -1.0344
  182SLPC   C2820862   5.800   4.069   9.655  0.4608 -0.6614 -0.8209
  182SLPC   H8R20863   5.820   3.969   9.613  1.0272 -1.0500  0.3375
  182SLPC   H8S20864   5.890   4.106   9.709  0.9727 -4.1844  1.0437
  182SLPC   C2920865   5.752   4.158   9.546 -0.0154  0.3110 -0.1467
  182SLPC   H9R20866   5.700   4.245   9.589  0.2426 -1.1099  3.2908
  182SLPC  C21020867   5.769   4.141   9.413  0.3554 -0.1772  0.5990
  182SLPC  H10R20868   5.722   4.218   9.350  1.2288  2.0256  2.4995
  182SLPC  C21120869   5.841   4.024   9.343 -0.0495 -0.9754  0.3369
  182SLPC  H11R20870   5.773   3.936   9.337  1.0394 -2.0204  2.2868
  182SLPC  H11S20871   5.924   3.987   9.407  0.3615  0.7611  0.8553
  182SLPC  C21220872   5.885   4.057   9.202 -0.5305 -0.3206 -0.1104
  182SLPC  H12R20873   5.943   4.148   9.183  2.7176 -2.4526 -1.2595
  182SLPC  C21320874   5.881   3.978   9.094  0.6475 -0.0237 -0.7580
  182SLPC  H13R20875   5.901   4.029   8.999  0.6484  2.8182  0.6573
  182SLPC  C21420876   5.819   3.836   9.095 -1.2737  0.1680  0.3290
  182SLPC  H14R20877   5.709   3.845   9.080 -0.9666  0.1722 -2.3483
  182SLPC  H14S20878   5.839   3.789   9.194 -0.3924  0.1260  0.1378
  182SLPC  C21520879   5.881   3.749   8.976 -0.8056  0.1651  0.1118
  182SLPC  H15R20880   5.850   3.643   8.992  0.6777 -0.7834 -2.6346
  182SLPC  H15S20881   5.991   3.760   8.988 -1.0610  2.7589  0.5618
  182SLPC  C21620882   5.838   3.799   8.839  0.0519 -0.1979 -0.0399
  182SLPC  H16R20883   5.876   3.726   8.764  1.0291  1.4008 -1.1598
  182SLPC  H16S20884   5.885   3.898   8.824 -0.2083  0.0705  0.8403
  182SLPC  C21720885   5.688   3.806   8.821  0.3532  0.3433  0.0660
  182SLPC  H17R20886   5.672   3.816   8.711 -1.3458 -1.1957  0.1226
  182SLPC  H17S20887   5.641   3.894   8.869  0.0782  0.8044 -1.0098
  182SLPC  C21820888   5.631   3.671   8.866  0.3089 -0.0825  0.1193
  182SLPC  H18R20889   5.522   3.675   8.845  0.2614  0.0545  0.3945
  182SLPC  H18S20890   5.632   3.677   8.977 -1.7956 -0.2970  0.1856
  182SLPC  H18T20891   5.684   3.580   8.830  0.2619 -0.8874  1.9747
  182SLPC   C3320892   6.402   3.702  10.305  0.2776  0.3651  0.0720
  182SLPC   H3X20893   6.445   3.627  10.373  3.0678 -0.3532 -2.2906
  182SLPC   H3Y20894   6.489   3.756  10.261 -0.0209  1.1951  0.4794
  182SLPC   C3420895   6.335   3.634  10.180  0.3007 -0.1859 -0.7857
  182SLPC   H4X20896   6.305   3.706  10.101  0.1511 -1.9100 -2.3949
  182SLPC   H4Y20897   6.241   3.587  10.218  1.2396 -0.8107  0.8681
  182SLPC   C3520898   6.425   3.520  10.123 -0.0373 -0.0561  0.1851
  182SLPC   H5X20899   6.440   3.444  10.202 -1.4042  0.0322  0.5649
  182SLPC   H5Y20900   6.521   3.564  10.090 -0.6761  1.5153  0.3221
  182SLPC   C3620901   6.372   3.449  10.003 -0.1338  0.2464 -0.5784
  182SLPC   H6X20902   6.270   3.487   9.981 -0.7061 -0.3164  0.9651
  182SLPC   H6Y20903   6.365   3.341  10.027  0.4739  0.3376  0.0198
  182SLPC   C3720904   6.447   3.476   9.871  0.1148  0.0459 -0.3488
  182SLPC   H7X20905   6.553   3.454   9.896  0.2937 -1.3921 -2.1614
  182SLPC   H7Y20906   6.438   3.586   9.859 -1.9901 -0.1885 -1.2581
  182SLPC   C3820907   6.408   3.405   9.742 -0.0242 -0.4618 -0.6330
  182SLPC   H8X20908   6.298   3.422   9.736 -0.3756 -1.5735  1.4337
  182SLPC   H8Y20909   6.420   3.295   9.750  0.7532 -0.3197  0.3327
  182SLPC   C3920910   6.484   3.456   9.619 -0.2806 -0.0108 -0.3822
  182SLPC   H9X20911   6.594   3.454   9.631 -0.2175  1.6129 -0.4689
  182SLPC   H9Y20912   6.466   3.564   9.603  1.4659  0.5214  0.9878
  182SLPC  C31020913   6.458   3.369   9.486  0.3889 -0.0347 -0.3624
  182SLPC  H10X20914   6.351   3.349   9.463  0.6023 -0.8568 -0.6607
  182SLPC  H10Y20915   6.511   3.272   9.497  1.3664  0.4505 -0.6924
  182SLPC  C31120916   6.526   3.455   9.378  0.3601 -1.0537  0.1661
  182SLPC  H11X20917   6.635   3.454   9.400  0.3474  1.4318  0.5867
  182SLPC  H11Y20918   6.485   3.558   9.387  1.7901 -0.6022  2.2209
  182SLPC  C31220919   6.512   3.404   9.233  0.4305  0.4060  0.2579
  182SLPC  H12X20920   6.404   3.406   9.208  0.5741  0.1922 -0.4101
  182SLPC  H12Y20921   6.551   3.300   9.236  2.1391  0.8856 -2.2020
  182SLPC  C31320922   6.584   3.503   9.139 -0.3648 -0.2309 -0.0544
  182SLPC  H13X20923   6.691   3.519   9.167 -0.4858  3.2430 -1.1046
  182SLPC  H13Y20924   6.536   3.601   9.158  1.2990  0.3125  1.7190
  182SLPC  C31420925   6.576   3.456   8.996  0.1673  0.3087 -0.2533
  182SLPC  H14X20926   6.473   3.415   8.984 -0.1079  1.2438 -1.3528
  182SLPC  H14Y20927   6.648   3.372   8.989 -3.0897 -2.8821  1.5555
  182SLPC  C31520928   6.581   3.567   8.893  0.7411 -0.1150  0.2674
  182SLPC  H15X20929   6.493   3.632   8.910  0.7280 -0.6425  2.5439
  182SLPC  H15Y20930   6.552   3.523   8.795  0.3187  1.6149 -0.4209
  182SLPC  C31620931   6.721   3.632   8.864  0.1754  0.7799 -0.0610
  182SLPC  H16X20932   6.797   3.551   8.869  0.3154  0.8932 -0.3501
  182SLPC  H16Y20933   6.733   3.690   8.958  0.7097 -1.4570  1.3161
  182SLPC  C31720934   6.749   3.722   8.747 -0.1078  0.1005 -0.5027
  182SLPC  H17X20935   6.741   3.662   8.654 -1.9425 -1.3829  0.5418
  182SLPC  H17Y20936   6.852   3.764   8.736  0.0826 -0.6587 -1.7445
  182SLPC  C31820937   6.643   3.839   8.732 -0.3532 -0.0947 -0.5156
  182SLPC  H18X20938   6.641   3.890   8.831 -0.1984 -1.7977  0.4095
  182SLPC  H18Y20939   6.542   3.800   8.706 -0.8554  0.4344  0.5640
  182SLPC  H18Z20940   6.686   3.912   8.661 -0.0673 -0.9534 -1.2478
  183SLPC     N20941   6.299   6.014  10.863 -0.5089  0.0491 -0.5847
  183SLPC   C1320942   6.243   5.871  10.886  0.0139  0.2101 -0.5239
  183SLPC  H13A20943   6.313   5.811  10.942  0.9017  1.0034 -0.7618
  183SLPC  H13B20944   6.147   5.878  10.936  1.5861  2.3493  2.4824
  183SLPC  H13C20945   6.232   5.822  10.790  3.0247 -1.6964 -0.0134
  183SLPC   C1420946   6.294   6.090  10.987 -0.3465 -0.1819  0.0764
  183SLPC  H14A20947   6.322   6.193  10.977  3.4270 -1.0717  0.1383
  183SLPC  H14B20948   6.195   6.089  11.031 -0.0618  1.3546  0.8146
  183SLPC  H14C20949   6.354   6.054  11.069 -0.0688  1.3323  0.5578
  183SLPC   C1520950   6.220   6.086  10.754 -0.1293 -0.2311  0.5323
  183SLPC  H15A20951   6.115   6.092  10.782 -0.1669 -1.0519  0.5779
  183SLPC  H15B20952   6.249   6.188  10.733  1.0645 -0.6796 -0.0457
  183SLPC  H15C20953   6.220   6.029  10.663 -0.5635  1.2428 -0.4300
  183SLPC   C1220954   6.447   6.021  10.810  0.4352 -0.5090  0.2006
  183SLPC  H12A20955   6.511   5.962  10.873  1.1961  0.0761 -0.0138
  183SLPC  H12B20956   6.468   6.127  10.808 -1.3571 -0.1291 -0.8743
  183SLPC   C1120957   6.490   5.971  10.668  0.0560 -0.3882 -0.2059
  183SLPC  H11A20958   6.601   5.981  10.669  0.0276  0.1147  2.0994
  183SLPC  H11B20959   6.437   6.041  10.600 -0.5847 -0.3032  0.3736
  183SLPC     P20960   6.536   5.717  10.678 -0.0016 -0.5531  0.1655
  183SLPC   O1320961   6.679   5.758  10.707 -0.3899 -0.2101  0.1367
  183SLPC   O1420962   6.475   5.628  10.771  0.1977  0.8353  0.3870
  183SLPC   O1220963   6.441   5.841  10.635 -0.6127  0.1896 -0.3985
  183SLPC   O1120964   6.541   5.637  10.541 -0.2387 -1.0962 -0.1444
  183SLPC    C120965   6.416   5.582  10.492  0.3565 -0.2983  0.3075
  183SLPC    HA20966   6.364   5.517  10.566  0.1113  0.3124  0.6794
  183SLPC    HB20967   6.354   5.673  10.481  2.5756  1.9739  4.1965
  183SLPC    C220968   6.434   5.511  10.357  0.5237  0.5650 -0.2909
  183SLPC    HS20969   6.330   5.492  10.325  0.4854 -0.7796  0.5584
  183SLPC   O2120970   6.498   5.379  10.381  0.1358  0.0714 -0.3205
  183SLPC   C2120971   6.468   5.296  10.286 -0.0257  0.2138 -0.4918
  183SLPC   O2220972   6.378   5.308  10.204  0.4026  0.7174  0.0086
  183SLPC   C2220973   6.565   5.172  10.299  0.1594 -0.1450 -0.3239
  183SLPC   H2R20974   6.670   5.210  10.295 -0.2479  0.9558 -1.1782
  183SLPC   H2S20975   6.542   5.133  10.400 -0.7008  2.1619  0.4434
  183SLPC    C320976   6.519   5.593  10.248 -0.0569 -0.8262 -0.3005
  183SLPC    HX20977   6.621   5.604  10.289 -0.1266 -1.3173  0.0129
  183SLPC    HY20978   6.481   5.697  10.247 -0.1882 -0.8731 -0.2803
  183SLPC   O3120979   6.529   5.523  10.122  0.1658 -0.3582 -0.0956
  183SLPC   C3120980   6.441   5.563  10.046  0.5398  0.2592 -0.4535
  183SLPC   O3220981   6.360   5.652  10.057 -0.2570 -0.0084 -0.4788
  183SLPC   C3220982   6.449   5.479   9.917  0.3836 -0.3628  0.4770
  183SLPC   H2X20983   6.446   5.372   9.948 -0.9519  0.2787  2.8588
  183SLPC   H2Y20984   6.549   5.497   9.874  0.4612 -0.7566  0.4897
  183SLPC   C2320985   6.555   5.070  10.185 -0.0488 -0.1195 -0.1917
  183SLPC   H3R20986   6.450   5.037  10.171  0.2806 -1.6877  0.8194
  183SLPC   H3S20987   6.607   4.979  10.220  0.2092  0.7738  1.8785
  183SLPC   C2420988   6.609   5.113  10.055 -0.2398 -0.5439 -0.6025
  183SLPC   H4R20989   6.716   5.145  10.062 -0.6943  1.2451 -1.1333
  183SLPC   H4S20990   6.552   5.200  10.014 -0.9120 -0.7564 -0.1302
  183SLPC   C2520991   6.595   5.005   9.945  0.0970  0.2119  0.0053
  183SLPC   H5R20992   6.486   5.000   9.924  0.6839  1.6750 -4.4563
  183SLPC   H5S20993   6.635   4.909   9.983  1.0681  0.6542  0.1137
  183SLPC   C2620994   6.669   5.042   9.812 -0.4230  0.2951 -0.3969
  183SLPC   H6R20995   6.730   4.953   9.787  0.1862  1.3479 -3.0206
  183SLPC   H6S20996   6.737   5.130   9.822  1.6143 -1.4377  3.1755
  183SLPC   C2720997   6.568   5.063   9.697 -0.7122  0.0846 -0.7682
  183SLPC   H7R20998   6.484   5.121   9.741 -0.6094 -1.3059  1.3899
  183SLPC   H7S20999   6.529   4.962   9.673 -0.3466 -0.2092 -0.1522
  183SLPC   C2821000   6.637   5.126   9.570 -0.2973  0.6056 -0.0314
  183SLPC   H8R21001   6.659   5.233   9.594  2.0505  0.7365 -2.3410
  183SLPC   H8S21002   6.567   5.126   9.485 -0.9114 -0.1759  0.4678
  183SLPC   C2921003   6.758   5.040   9.531 -0.2521 -0.1834 -0.1300
  183SLPC   H9R21004   6.750   4.931   9.538  1.8380 -0.4780 -1.4589
  183SLPC  C21021005   6.882   5.083   9.494  0.7918 -0.0540  0.6140
  183SLPC  H10R21006   6.954   5.013   9.449 -0.0073 -1.5318  1.5416
  183SLPC  C21121007   6.925   5.224   9.484  0.0200 -0.5192 -0.1787
  183SLPC  H11R21008   6.915   5.271   9.584  0.0621  2.2676 -1.4096
  183SLPC  H11S21009   6.851   5.274   9.419  0.5574  0.4578 -0.0615
  183SLPC  C21221010   7.061   5.233   9.416  0.3796  1.0130  0.2972
  183SLPC  H12R21011   7.047   5.232   9.307 -0.4984  1.3431  0.3993
  183SLPC  C21321012   7.186   5.230   9.461 -0.1674 -1.3104  0.5421
  183SLPC  H13R21013   7.273   5.240   9.394  0.7883  0.2596  1.9443
  183SLPC  C21421014   7.222   5.212   9.609 -0.5109  0.0221 -0.4006
  183SLPC  H14R21015   7.139   5.220   9.682 -1.0421 -0.1679 -0.9673
  183SLPC  H14S21016   7.294   5.293   9.631  2.4735 -2.9907  1.7761
  183SLPC  C21521017   7.282   5.078   9.652 -0.5642 -0.3073  0.0762
  183SLPC  H15R21018   7.355   5.040   9.578 -0.0319  1.0590 -0.1295
  183SLPC  H15S21019   7.201   5.003   9.665 -0.7335  0.0722  1.3000
  183SLPC  C21621020   7.369   5.076   9.772  0.3177 -0.3412 -0.5366
  183SLPC  H16R21021   7.327   5.160   9.832  2.1547  0.7642 -0.7413
  183SLPC  H16S21022   7.471   5.106   9.743 -0.2336  0.1066 -2.0998
  183SLPC  C21721023   7.375   4.946   9.846  0.0445  0.3602 -0.8439
  183SLPC  H17R21024   7.275   4.921   9.887  1.6601 -0.3396  3.1335
  183SLPC  H17S21025   7.426   4.949   9.945  1.3593  0.7559 -1.5137
  183SLPC  C21821026   7.434   4.823   9.776 -0.2076 -0.5316  0.8272
  183SLPC  H18R21027   7.384   4.728   9.805  1.9035 -1.9271  0.1315
  183SLPC  H18S21028   7.543   4.822   9.796 -0.3721  2.0329  2.2920
  183SLPC  H18T21029   7.421   4.835   9.666 -0.1628  2.5922  1.0823
  183SLPC   C3321030   6.340   5.503   9.821  0.0165  0.4306 -0.6105
  183SLPC   H3X21031   6.337   5.614   9.806  0.4283  0.2415 -2.3271
  183SLPC   H3Y21032   6.242   5.476   9.865 -0.1773  0.8386 -0.7809
  183SLPC   C3421033   6.352   5.450   9.674  0.0269  0.0902  0.5367
  183SLPC   H4X21034   6.276   5.372   9.652 -0.0894  0.9020 -2.3224
  183SLPC   H4Y21035   6.447   5.393   9.673  0.6442  1.0740  1.3552
  183SLPC   C3521036   6.359   5.555   9.566  0.5571 -0.1197 -0.3614
  183SLPC   H5X21037   6.416   5.639   9.609 -0.1631 -0.4809  1.4109
  183SLPC   H5Y21038   6.258   5.600   9.553  0.3223 -0.6339 -0.3615
  183SLPC   C3621039   6.411   5.499   9.435 -0.4677  0.0016  0.4252
  183SLPC   H6X21040   6.335   5.436   9.383 -0.0805  1.5436 -2.1621
  183SLPC   H6Y21041   6.500   5.441   9.467  0.4916  2.4724  2.5791
  183SLPC   C3721042   6.445   5.611   9.338  0.4156 -0.0757 -0.3520
  183SLPC   H7X21043   6.508   5.690   9.385 -0.7331  0.8323 -0.2945
  183SLPC   H7Y21044   6.348   5.663   9.321 -0.0803 -0.8002  0.1876
  183SLPC   C3821045   6.506   5.569   9.210 -0.0183  0.3655 -0.3070
  183SLPC   H8X21046   6.449   5.484   9.167 -0.3639  0.0949  0.6651
  183SLPC   H8Y21047   6.610   5.534   9.224  0.4590  1.1137 -1.8092
  183SLPC   C3921048   6.522   5.685   9.111 -0.0437  0.4916  0.1800
  183SLPC   H9X21049   6.581   5.760   9.166  1.0701 -0.4713  0.3434
  183SLPC   H9Y21050   6.426   5.736   9.088  0.8054  2.1071  0.1302
  183SLPC  C31021051   6.602   5.645   8.984 -0.2182 -0.1191 -0.8754
  183SLPC  H10X21052   6.698   5.596   9.011 -0.7315  0.6677  2.9494
  183SLPC  H10Y21053   6.630   5.738   8.930  0.4505  0.1163 -0.1360
  183SLPC  C31121054   6.537   5.543   8.893  0.3430  0.3699 -0.0448
  183SLPC  H11X21055   6.434   5.582   8.877  0.3542  0.2695 -0.3679
  183SLPC  H11Y21056   6.517   5.443   8.937 -2.2357 -0.1390 -2.0563
  183SLPC  C31221057   6.621   5.515   8.761  0.2308 -0.5453 -0.5344
  183SLPC  H12X21058   6.556   5.510   8.671 -1.0877 -2.6874  0.4471
  183SLPC  H12Y21059   6.674   5.418   8.769  2.3570  0.6123  0.2205
  183SLPC  C31321060   6.724   5.617   8.728 -0.3019  0.0749 -0.7124
  183SLPC  H13X21061   6.809   5.602   8.798 -2.5359  1.9149  2.6612
  183SLPC  H13Y21062   6.685   5.720   8.742 -0.0175 -0.0474  1.2789
  183SLPC  C31421063   6.771   5.614   8.577 -0.8106 -0.5240  0.9026
  183SLPC  H14X21064   6.841   5.697   8.553 -0.4257 -1.0463  0.1809
  183SLPC  H14Y21065   6.673   5.612   8.524 -1.1932 -3.5565  1.5451
  183SLPC  C31521066   6.835   5.478   8.534 -0.6352  0.0927  0.4132
  183SLPC  H15X21067   6.842   5.468   8.424 -0.7831  2.7169  0.0853
  183SLPC  H15Y21068   6.768   5.395   8.566  0.1307  0.4958  3.3467
  183SLPC  C31621069   6.974   5.443   8.598  0.1141 -0.3862  0.9267
  183SLPC  H16X21070   7.001   5.342   8.561 -0.4378 -0.9171  1.9267
  183SLPC  H16Y21071   6.986   5.464   8.707 -0.7655  3.5961  0.4273
  183SLPC  C31721072   7.084   5.523   8.521 -0.0489  0.8817  0.1045
  183SLPC  H17X21073   7.077   5.627   8.559  1.1557  0.9600  0.1219
  183SLPC  H17Y21074   7.048   5.523   8.416  1.6585  0.4672 -0.5103
  183SLPC  C31821075   7.233   5.488   8.526 -0.2245 -0.7435 -1.0247
  183SLPC  H18X21076   7.291   5.556   8.460  0.7449 -0.0215  0.4990
  183SLPC  H18Y21077   7.245   5.383   8.493  0.5296 -1.5264  1.4538
  183SLPC  H18Z21078   7.273   5.494   8.630  1.6795  1.5690 -1.7968
  184SLPC     N21079   4.460   5.719  10.800 -0.3380  0.6345  0.4058
  184SLPC   C1321080   4.494   5.608  10.897  0.8136  0.0897 -0.0913
  184SLPC  H13A21081   4.564   5.536  10.855 -1.0088 -1.9865  0.2564
  184SLPC  H13B21082   4.530   5.645  10.992 -1.7488 -0.8720  1.3473
  184SLPC  H13C21083   4.408   5.544  10.911  0.9238  0.0579  0.4913
  184SLPC   C1421084   4.597   5.779  10.761  0.5580  0.3853 -0.0496
  184SLPC  H14A21085   4.662   5.701  10.725  1.1067 -0.4390  2.5023
  184SLPC  H14B21086   4.579   5.850  10.682 -0.1287 -0.6326 -0.8466
  184SLPC  H14C21087   4.653   5.824  10.842 -0.7914 -0.7481  1.5959
  184SLPC   C1521088   4.382   5.816  10.885  0.4710 -0.8980 -0.4056
  184SLPC  H15A21089   4.339   5.899  10.831  1.2262 -0.6621 -0.6560
  184SLPC  H15B21090   4.303   5.753  10.924 -0.8465 -0.5674 -2.3443
  184SLPC  H15C21091   4.427   5.838  10.980 -0.6484  2.4837 -0.5123
  184SLPC   C1221092   4.381   5.674  10.683  0.8275 -0.8006 -0.5011
  184SLPC  H12A21093   4.360   5.760  10.622  0.8890  0.8881  1.7372
  184SLPC  H12B21094   4.284   5.647  10.721  0.7567 -0.9457 -0.7826
  184SLPC   C1121095   4.440   5.558  10.596  0.6185 -0.1286 -0.1092
  184SLPC  H11A21096   4.540   5.576  10.551  1.6636 -1.8287  1.3963
  184SLPC  H11B21097   4.378   5.544  10.505  1.8943 -0.2669 -0.9703
  184SLPC     P21098   4.309   5.359  10.705  0.1641  0.0387 -0.0961
  184SLPC   O1321099   4.348   5.241  10.787 -0.7623  0.4662 -0.5671
  184SLPC   O1421100   4.225   5.461  10.766  0.3296 -0.0928  0.4508
  184SLPC   O1221101   4.440   5.432  10.663  0.4535  0.6386 -0.1086
  184SLPC   O1121102   4.244   5.308  10.567  0.5348  0.2045  0.4755
  184SLPC    C121103   4.331   5.270  10.463  0.1815  0.3187  0.0060
  184SLPC    HA21104   4.397   5.352  10.430 -1.6647  1.3937 -1.1762
  184SLPC    HB21105   4.387   5.188  10.513  1.1376  1.1416  0.3175
  184SLPC    C221106   4.253   5.204  10.348  0.5874  0.4884  0.5230
  184SLPC    HS21107   4.320   5.159  10.272  0.0512 -1.4539  1.1233
  184SLPC   O2121108   4.171   5.299  10.275 -0.1151 -0.4723  0.0571
  184SLPC   C2121109   4.245   5.378  10.196 -0.2610 -0.2331  0.5380
  184SLPC   O2221110   4.361   5.363  10.178  0.1641 -0.2201 -0.0900
  184SLPC   C2221111   4.147   5.493  10.147 -0.1243 -0.3310  0.1503
  184SLPC   H2R21112   4.048   5.451  10.119 -0.6039  0.7346  0.2202
  184SLPC   H2S21113   4.118   5.558  10.233  1.8997  2.5451 -1.1764
  184SLPC    C321114   4.165   5.081  10.386 -0.1669 -0.6375 -0.4609
  184SLPC    HX21115   4.087   5.121  10.455  1.6789  1.5364  0.4663
  184SLPC    HY21116   4.236   5.019  10.444 -2.7116  0.5385  4.4611
  184SLPC   O3121117   4.097   5.022  10.270 -0.2931 -0.1015 -0.4579
  184SLPC   C3121118   4.089   4.898  10.274 -0.0666 -0.0409 -0.3257
  184SLPC   O3221119   4.133   4.827  10.363  0.0667  0.3572  0.4797
  184SLPC   C3221120   4.012   4.852  10.145 -0.2830 -0.0952 -0.4979
  184SLPC   H2X21121   4.058   4.910  10.062  1.3948 -0.4682  0.1300
  184SLPC   H2Y21122   3.909   4.891  10.159 -1.0734 -0.0737 -4.9795
  184SLPC   C2321123   4.194   5.566  10.017 -0.8470 -0.2505  0.4082
  184SLPC   H3R21124   4.300   5.597  10.016  0.1053 -3.1309  1.1765
  184SLPC   H3S21125   4.149   5.665  10.038  1.6645  1.3677 -1.2531
  184SLPC   C2421126   4.153   5.500   9.881 -0.3499 -0.4086 -0.7608
  184SLPC   H4R21127   4.043   5.490   9.890 -0.2649  0.0195  1.1265
  184SLPC   H4S21128   4.205   5.402   9.877 -0.4820 -0.4723 -0.9217
  184SLPC   C2521129   4.188   5.599   9.766 -0.3015  0.0274  0.1588
  184SLPC   H5R21130   4.291   5.642   9.772  0.6626 -1.9684 -1.0945
  184SLPC   H5S21131   4.128   5.693   9.772 -1.4186 -0.6548 -0.0453
  184SLPC   C2621132   4.161   5.540   9.627 -0.3496  0.2612  0.1844
  184SLPC   H6R21133   4.058   5.501   9.619 -0.6613  1.2029 -0.7264
  184SLPC   H6S21134   4.238   5.463   9.603 -0.2946  0.5956 -0.7432
  184SLPC   C2721135   4.196   5.642   9.513 -0.2641  0.2021 -0.3632
  184SLPC   H7R21136   4.302   5.673   9.521  0.3095 -1.2107 -1.8693
  184SLPC   H7S21137   4.141   5.737   9.530 -3.4372 -1.4245 -0.7940
  184SLPC   C2821138   4.174   5.575   9.371 -0.5214  0.0151 -0.1577
  184SLPC   H8R21139   4.065   5.558   9.356 -0.3171 -0.9368 -0.6599
  184SLPC   H8S21140   4.215   5.473   9.384 -1.0494 -0.0538  1.1226
  184SLPC   C2921141   4.250   5.639   9.260 -0.6536  0.1572  0.1706
  184SLPC   H9R21142   4.292   5.735   9.292  0.9156 -0.7349  0.8726
  184SLPC  C21021143   4.274   5.610   9.129 -0.3922 -0.5721 -0.9242
  184SLPC  H10R21144   4.324   5.681   9.061 -2.2005  2.0459  0.2866
  184SLPC  C21121145   4.222   5.491   9.060  0.0288  0.1731  0.2830
  184SLPC  H11R21146   4.181   5.413   9.128 -1.6546 -0.6987 -1.6017
  184SLPC  H11S21147   4.312   5.438   9.023 -0.0471 -2.5725  3.5163
  184SLPC  C21221148   4.124   5.521   8.950 -0.1249 -0.5318 -0.4262
  184SLPC  H12R21149   4.019   5.521   8.982 -0.1679  0.3347 -0.5545
  184SLPC  C21321150   4.145   5.566   8.825  0.0791  0.1738 -0.2534
  184SLPC  H13R21151   4.063   5.587   8.754  0.7257  0.8823 -0.8158
  184SLPC  C21421152   4.286   5.573   8.774 -0.4292  0.4782  0.0332
  184SLPC  H14R21153   4.354   5.489   8.800 -0.1305  0.2880 -1.2965
  184SLPC  H14S21154   4.328   5.664   8.823 -0.0562  0.1868  0.2593
  184SLPC  C21521155   4.307   5.579   8.624  0.3718  0.9591  1.2878
  184SLPC  H15R21156   4.416   5.586   8.608  0.6457 -3.0050  0.6216
  184SLPC  H15S21157   4.258   5.670   8.582  1.1361  1.6177  1.7773
  184SLPC  C21621158   4.250   5.448   8.552  0.7362  0.0808 -0.0073
  184SLPC  H16R21159   4.141   5.459   8.535  0.8830 -0.6189 -1.5595
  184SLPC  H16S21160   4.261   5.353   8.609  1.0921  0.5453  0.7092
  184SLPC  C21721161   4.320   5.428   8.416 -0.2645  0.2627  0.1819
  184SLPC  H17R21162   4.271   5.334   8.382 -3.6312  1.8352  0.2400
  184SLPC  H17S21163   4.425   5.396   8.428 -0.1563 -0.9811 -3.0143
  184SLPC  C21821164   4.301   5.536   8.316 -0.1307 -0.3053 -0.5518
  184SLPC  H18R21165   4.340   5.634   8.351 -1.2136  0.1477 -0.5503
  184SLPC  H18S21166   4.192   5.559   8.307 -0.3807 -0.4316  1.6597
  184SLPC  H18T21167   4.343   5.508   8.217  1.1708 -0.3629  0.0025
  184SLPC   C3321168   4.030   4.698  10.125  0.1483 -0.5969 -0.0297
  184SLPC   H3X21169   3.984   4.643  10.209 -0.9976  0.9411  0.4061
  184SLPC   H3Y21170   4.139   4.687  10.109 -0.0697 -1.4997 -1.0002
  184SLPC   C3421171   3.953   4.646   9.995  0.4362  0.1191 -0.0177
  184SLPC   H4X21172   3.844   4.637  10.018 -0.3876  2.8787 -2.3445
  184SLPC   H4Y21173   3.990   4.542   9.987  1.0330  0.2568  0.8083
  184SLPC   C3521174   3.978   4.734   9.871  0.5495  0.2158 -0.7280
  184SLPC   H5X21175   4.087   4.753   9.859  0.6060 -0.5666 -1.5553
  184SLPC   H5Y21176   3.914   4.825   9.882  0.8246  0.5532 -1.7823
  184SLPC   C3621177   3.927   4.672   9.747 -0.4497  0.1263  0.9396
  184SLPC   H6X21178   3.818   4.658   9.764 -0.8120  1.3877 -0.2537
  184SLPC   H6Y21179   3.994   4.583   9.741 -0.5872  0.0713  0.1033
  184SLPC   C3721180   3.932   4.764   9.625  0.5356  0.5390  0.2922
  184SLPC   H7X21181   4.036   4.804   9.629  0.2704  1.2359  0.2122
  184SLPC   H7Y21182   3.853   4.839   9.647 -0.2448  0.0815 -0.8489
  184SLPC   C3821183   3.914   4.688   9.492  0.0567 -0.3472  0.7418
  184SLPC   H8X21184   3.811   4.647   9.502  0.0010 -0.0992  1.2370
  184SLPC   H8Y21185   3.986   4.604   9.479 -1.7246 -1.6778 -1.1058
  184SLPC   C3921186   3.934   4.766   9.367  0.5159 -0.4631 -0.0224
  184SLPC   H9X21187   4.043   4.777   9.352  0.5790 -0.8703  0.1488
  184SLPC   H9Y21188   3.893   4.869   9.377  1.3408 -0.2753  1.8324
  184SLPC  C31021189   3.875   4.705   9.236 -0.9723  0.4102 -0.3501
  184SLPC  H10X21190   3.767   4.727   9.221 -1.5345 -0.1693  2.3780
  184SLPC  H10Y21191   3.889   4.596   9.218  0.3422  0.4999 -0.0093
  184SLPC  C31121192   3.940   4.772   9.113 -0.2120  0.3219 -0.0529
  184SLPC  H11X21193   4.046   4.738   9.109  0.1682  1.5100 -1.9673
  184SLPC  H11Y21194   3.941   4.882   9.130 -1.4467  0.3817 -0.2635
  184SLPC  C31221195   3.875   4.729   8.982  0.2307 -0.0085 -0.1468
  184SLPC  H12X21196   3.834   4.627   8.995  1.5367 -0.5863 -0.3319
  184SLPC  H12Y21197   3.947   4.725   8.897 -0.2984  0.3803 -0.6231
  184SLPC  C31321198   3.755   4.818   8.936  0.4495  0.6794  0.5863
  184SLPC  H13X21199   3.792   4.919   8.910 -0.7194  1.2674  1.1379
  184SLPC  H13Y21200   3.672   4.806   9.009  0.0926  2.3224  0.4772
  184SLPC  C31421201   3.692   4.775   8.802  0.3122 -0.3506  0.2907
  184SLPC  H14X21202   3.606   4.842   8.778 -1.3801 -2.0303  1.3531
  184SLPC  H14Y21203   3.641   4.678   8.818  0.2825 -0.5201 -0.7476
  184SLPC  C31521204   3.777   4.756   8.675 -0.1157 -0.4332  0.3861
  184SLPC  H15X21205   3.837   4.664   8.693 -0.1811 -0.3908  0.8093
  184SLPC  H15Y21206   3.849   4.838   8.656 -1.6921  0.8144 -0.4569
  184SLPC  C31621207   3.696   4.732   8.548 -0.1363  0.4555  0.4252
  184SLPC  H16X21208   3.625   4.816   8.533 -1.4952 -0.5935  0.7641
  184SLPC  H16Y21209   3.632   4.642   8.561 -0.8080  0.9066  0.2821
  184SLPC  C31721210   3.769   4.712   8.413  0.4348  0.1839  0.1343
  184SLPC  H17X21211   3.702   4.702   8.325 -0.0679  3.3413  0.0441
  184SLPC  H17Y21212   3.831   4.619   8.419 -2.1237 -1.5075  2.4089
  184SLPC  C31821213   3.860   4.831   8.383 -0.8651 -0.1000 -0.5981
  184SLPC  H18X21214   3.911   4.829   8.284  0.1971  0.0266 -0.0719
  184SLPC  H18Y21215   3.945   4.827   8.455 -2.7884  0.3856  1.8358
  184SLPC  H18Z21216   3.808   4.928   8.398 -0.0146  0.5192 -1.5286
  185SLPC     N21217   0.376   0.206   6.296  0.0984  0.5443  0.5811
  185SLPC   C1321218   0.499   0.275   6.350  0.0213 -0.6234  0.5478
  185SLPC  H13A21219   0.479   0.331   6.441  0.6931  1.4120 -0.4853
  185SLPC  H13B21220   0.576   0.201   6.367  0.4893 -0.4100 -0.5859
  185SLPC  H13C21221   0.519   0.353   6.277 -2.3278 -0.4725 -0.0229
  185SLPC   C1421222   0.339   0.091   6.372 -0.0350  0.1847  0.2125
  185SLPC  H14A21223   0.302   0.111   6.471  1.1184  0.7365  0.5492
  185SLPC  H14B21224   0.253   0.046   6.324  0.3004  0.4664 -0.6854
  185SLPC  H14C21225   0.420   0.019   6.378  0.6820  1.0530  1.2714
  185SLPC   C1521226   0.401   0.169   6.150  0.3711  0.4838 -0.0802
  185SLPC  H15A21227   0.496   0.120   6.134 -0.1197  0.1141 -2.0862
  185SLPC  H15B21228   0.324   0.106   6.109 -0.6379  1.3047  0.4829
  185SLPC  H15C21229   0.410   0.254   6.085  1.6263  0.3950 -0.0388
  185SLPC   C1221230   0.259   0.301   6.299 -0.2410  0.3207 -0.5814
  185SLPC  H12A21231   0.169   0.243   6.284 -0.0890 -1.3696  3.6142
  185SLPC  H12B21232   0.271   0.382   6.229  0.1977  1.2378  0.5167
  185SLPC   C1121233   0.242   0.380   6.434 -0.0313 -0.5324 -0.4935
  185SLPC  H11A21234   0.283   0.326   6.522  0.3690  2.6798  1.4832
  185SLPC  H11B21235   0.139   0.407   6.466  0.7668 -0.7265  2.6411
  185SLPC     P21236   0.273   0.631   6.356  0.1395 -0.4789 -0.1569
  185SLPC   O1321237   0.398   0.716   6.342  0.6580  0.1522  0.4455
  185SLPC   O1421238   0.191   0.622   6.231 -0.0706 -0.2818 -0.3377
  185SLPC   O1221239   0.316   0.498   6.423 -0.0328 -0.7923 -0.4818
  185SLPC   O1121240   0.186   0.705   6.467  0.0545 -0.5414  0.6562
  185SLPC    C121241   0.213   0.683   6.607  0.1368  0.2858  0.3207
  185SLPC    HA21242   0.143   0.603   6.640  0.5905 -0.1751  0.1735
  185SLPC    HB21243   0.319   0.656   6.629  0.0480  1.4963  2.5854
  185SLPC    C221244   0.189   0.821   6.683  0.4773 -0.1941 -0.5462
  185SLPC    HS21245   0.226   0.807   6.787 -2.7216  0.0807  0.7416
  185SLPC   O2121246   0.048   0.858   6.680 -0.9813  0.1113 -0.0673
  185SLPC   C2121247  -0.027   0.780   6.761 -0.1033 -0.4983  0.0662
  185SLPC   O2221248   0.021   0.707   6.847  0.3738  0.1421  0.1914
  185SLPC   C2221249  -0.174   0.822   6.744 -0.0968  0.0963  0.1269
  185SLPC   H2R21250  -0.170   0.933   6.745 -1.0658  0.1451 -0.4954
  185SLPC   H2S21251  -0.214   0.802   6.642 -2.3796  0.3470  0.9268
  185SLPC    C321252   0.281   0.929   6.611  0.1153  0.0719  0.3317
  185SLPC    HX21253   0.228   0.976   6.525  0.2962  0.5864  0.4953
  185SLPC    HY21254   0.371   0.889   6.560  0.5684  3.6756 -2.1122
  185SLPC   O3121255   0.320   1.029   6.701 -0.0931  0.0550 -0.1360
  185SLPC   C3121256   0.438   1.012   6.763  0.2533  0.0212  0.2445
  185SLPC   O3221257   0.506   0.911   6.758  0.1536 -0.1371 -0.5952
  185SLPC   C3221258   0.481   1.151   6.820 -1.1582 -0.2669  0.0905
  185SLPC   H2X21259   0.453   1.160   6.927  3.3133  1.7794  1.3400
  185SLPC   H2Y21260   0.425   1.221   6.754  1.1949  1.7333  0.0681
  185SLPC   C2321261  -0.258   0.777   6.853  0.5793  0.4482  0.5140
  185SLPC   H3R21262  -0.191   0.779   6.942  1.9107  1.2310 -0.4608
  185SLPC   H3S21263  -0.312   0.681   6.835 -1.6821  1.4907  1.4217
  185SLPC   C2421264  -0.380   0.870   6.891 -0.4848 -0.2049 -0.1792
  185SLPC   H4R21265  -0.417   0.891   6.788 -1.5370 -0.0391  0.2240
  185SLPC   H4S21266  -0.362   0.971   6.936  0.4011 -1.1383  1.6757
  185SLPC   C2521267  -0.490   0.785   6.960  0.2826 -0.3748 -0.0196
  185SLPC   H5R21268  -0.533   0.705   6.896 -0.5409  0.3243 -0.3589
  185SLPC   H5S21269  -0.574   0.856   6.972  0.2313 -0.2100 -1.2294
  185SLPC   C2621270  -0.446   0.711   7.089  0.1050  0.6543  0.2499
  185SLPC   H6R21271  -0.353   0.652   7.073 -1.3105 -1.4187 -0.9765
  185SLPC   H6S21272  -0.516   0.636   7.132  0.2974  0.3453  0.0322
  185SLPC   C2721273  -0.409   0.820   7.184  0.8895 -0.4811 -0.0471
  185SLPC   H7R21274  -0.501   0.881   7.198 -0.7799 -3.2402  2.2060
  185SLPC   H7S21275  -0.335   0.893   7.147  0.5694 -1.1633 -2.1620
  185SLPC   C2821276  -0.382   0.769   7.327  0.0551  0.4561  0.2945
  185SLPC   H8R21277  -0.362   0.863   7.382  0.8872 -0.4619  1.6090
  185SLPC   H8S21278  -0.286   0.715   7.319  0.1293  0.6731 -0.3345
  185SLPC   C2921279  -0.486   0.677   7.381  0.1448 -0.7462 -0.1738
  185SLPC   H9R21280  -0.491   0.578   7.333 -2.3264 -1.0266  0.5041
  185SLPC  C21021281  -0.589   0.716   7.463 -0.6617 -0.4029 -0.5770
  185SLPC  H10R21282  -0.668   0.642   7.484 -0.4640 -0.7347 -0.9765
  185SLPC  C21121283  -0.606   0.845   7.535 -0.3957  0.3971 -0.2436
  185SLPC  H11R21284  -0.664   0.912   7.467 -1.9293 -2.2764 -1.7445
  185SLPC  H11S21285  -0.509   0.894   7.557 -0.9790  1.9945 -1.0165
  185SLPC  C21221286  -0.682   0.856   7.660  0.7630  0.2286 -0.4009
  185SLPC  H12R21287  -0.780   0.903   7.645  1.0642  0.8938 -0.3204
  185SLPC  C21321288  -0.639   0.823   7.782 -0.0445 -0.3041 -0.5933
  185SLPC  H13R21289  -0.710   0.813   7.865  0.5480  1.1036  0.1147
  185SLPC  C21421290  -0.502   0.764   7.809  0.2160 -0.9057 -0.2072
  185SLPC  H14R21291  -0.416   0.834   7.808 -1.1078  0.8066  0.4575
  185SLPC  H14S21292  -0.477   0.700   7.722 -2.2161 -0.0788 -1.6139
  185SLPC  C21521293  -0.484   0.674   7.928 -0.1050 -0.0583 -0.9918
  185SLPC  H15R21294  -0.383   0.631   7.915  0.3647 -0.0962  1.9438
  185SLPC  H15S21295  -0.553   0.587   7.933 -0.3196  0.0876 -1.3884
  185SLPC  C21621296  -0.470   0.746   8.062 -0.1049  0.0632  0.3266
  185SLPC  H16R21297  -0.551   0.819   8.079 -1.8524 -0.5732 -3.8942
  185SLPC  H16S21298  -0.376   0.804   8.051  1.2884 -2.1333 -0.2423
  185SLPC  C21721299  -0.464   0.643   8.169 -0.3069 -0.0069 -0.3194
  185SLPC  H17R21300  -0.387   0.567   8.145  0.5599  1.3783 -2.1532
  185SLPC  H17S21301  -0.557   0.583   8.172  0.4649 -1.2896 -1.4645
  185SLPC  C21821302  -0.441   0.715   8.306  0.4487 -0.2552 -0.4617
  185SLPC  H18R21303  -0.431   0.641   8.389 -0.8602 -0.6119 -0.6130
  185SLPC  H18S21304  -0.528   0.781   8.322  2.4098  2.5618 -0.6238
  185SLPC  H18T21305  -0.346   0.771   8.291  1.3357 -1.7472 -0.6175
  185SLPC   C3321306   0.628   1.179   6.814 -0.5297  0.1562 -0.1985
  185SLPC   H3X21307   0.646   1.287   6.795 -1.1311 -0.0781 -2.3806
  185SLPC   H3Y21308   0.668   1.125   6.725  2.4425 -0.0585  1.1624
  185SLPC   C3421309   0.697   1.133   6.944  0.4900  0.2447 -0.0242
  185SLPC   H4X21310   0.696   1.023   6.963 -0.8588  0.3785  0.8239
  185SLPC   H4Y21311   0.628   1.167   7.023  0.4261 -2.8242  1.3720
  185SLPC   C3521312   0.846   1.165   6.963  0.1054 -0.3716 -0.7507
  185SLPC   H5X21313   0.866   1.269   6.929  0.5492  0.3786  1.6187
  185SLPC   H5Y21314   0.910   1.116   6.887  0.5759  1.8225 -1.8682
  185SLPC   C3621315   0.896   1.134   7.105 -0.4039  0.5258 -0.5582
  185SLPC   H6X21316   1.006   1.141   7.097 -0.3968  0.6784 -0.3246
  185SLPC   H6Y21317   0.863   1.030   7.127 -1.3707  0.3124 -2.7335
  185SLPC   C3721318   0.850   1.232   7.213 -0.2752 -0.1175  0.3317
  185SLPC   H7X21319   0.746   1.199   7.234 -0.2763  0.7170  1.7985
  185SLPC   H7Y21320   0.860   1.338   7.181  1.9812 -0.2390  0.4876
  185SLPC   C3821321   0.931   1.232   7.345 -0.3927 -0.0627  0.4765
  185SLPC   H8X21322   1.033   1.275   7.335  0.0674 -1.4103 -1.2234
  185SLPC   H8Y21323   0.941   1.123   7.366 -1.3868 -0.7014 -2.0188
  185SLPC   C3921324   0.856   1.299   7.463 -0.5701 -0.7590  0.1497
  185SLPC   H9X21325   0.752   1.261   7.453 -0.6873 -0.7690  1.2881
  185SLPC   H9Y21326   0.835   1.408   7.461 -1.1199 -0.8643 -0.1588
  185SLPC  C31021327   0.928   1.276   7.599 -0.2997  0.0093 -0.5535
  185SLPC  H10X21328   1.022   1.334   7.600  0.0841 -0.6097  0.1690
  185SLPC  H10Y21329   0.946   1.167   7.607 -1.2478 -0.2020 -1.1074
  185SLPC  C31121330   0.846   1.322   7.717 -0.3103  0.2774 -0.4125
  185SLPC  H11X21331   0.753   1.262   7.722 -0.4281  0.1910 -2.6050
  185SLPC  H11Y21332   0.818   1.428   7.697  1.1181  0.8846  0.6155
  185SLPC  C31221333   0.925   1.322   7.845  0.7630  0.9042  0.3428
  185SLPC  H12X21334   1.030   1.348   7.820  1.3751 -0.7224  1.0746
  185SLPC  H12Y21335   0.914   1.225   7.898  0.5724  1.1557  0.7601
  185SLPC  C31321336   0.867   1.430   7.944  0.7505  0.3505  0.4058
  185SLPC  H13X21337   0.758   1.412   7.940  0.6458  1.0857 -0.3226
  185SLPC  H13Y21338   0.884   1.532   7.903 -1.4389 -0.3776 -2.6487
  185SLPC  C31421339   0.911   1.415   8.094  0.4747  0.2868 -0.3258
  185SLPC  H14X21340   0.866   1.497   8.154  0.0249 -0.8506  0.9376
  185SLPC  H14Y21341   1.021   1.421   8.109  0.6756  0.9039 -1.8497
  185SLPC  C31521342   0.865   1.290   8.167  0.0484 -0.1520  1.2143
  185SLPC  H15X21343   0.910   1.201   8.117 -0.7047  0.7885 -1.2917
  185SLPC  H15Y21344   0.756   1.272   8.158  0.0119  0.4208  0.3546
  185SLPC  C31621345   0.891   1.305   8.322 -0.4859  0.0800 -0.6140
  185SLPC  H16X21346   0.837   1.396   8.353  0.3681  0.2233  0.5370
  185SLPC  H16Y21347   0.998   1.327   8.345 -1.2294  2.0239  1.3005
  185SLPC  C31721348   0.842   1.191   8.406 -0.8166  0.2067  0.6752
  185SLPC  H17X21349   0.736   1.164   8.385 -0.4714 -0.3818 -0.4081
  185SLPC  H17Y21350   0.851   1.229   8.510  3.3256 -1.7486  1.2416
  185SLPC  C31821351   0.936   1.069   8.411 -0.1681  0.5884 -0.0912
  185SLPC  H18X21352   0.904   0.996   8.488  1.6681  2.1817  2.3496
  185SLPC  H18Y21353   1.042   1.097   8.431 -0.5366  0.8215  1.6623
  185SLPC  H18Z21354   0.927   1.019   8.312 -0.3397 -0.2375  0.3382
  186SLPC     N21355   2.664   3.215   5.719  0.0912  0.1078 -0.0506
  186SLPC   C1321356   2.522   3.200   5.767  0.1136 -0.4032  0.1587
  186SLPC  H13A21357   2.460   3.214   5.680 -1.1805 -0.4088  1.0554
  186SLPC  H13B21358   2.507   3.104   5.814 -0.1872  1.0356  3.2101
  186SLPC  H13C21359   2.507   3.274   5.844 -1.4439  0.2733 -0.7393
  186SLPC   C1421360   2.684   3.351   5.662  0.0404 -0.7205  0.5136
  186SLPC  H14A21361   2.787   3.346   5.630  0.4375 -0.4083  1.6958
  186SLPC  H14B21362   2.611   3.367   5.583  1.6050 -1.1560 -1.0820
  186SLPC  H14C21363   2.675   3.417   5.747  2.7944  0.9961 -0.3908
  186SLPC   C1521364   2.686   3.122   5.603 -0.4258 -0.2750 -0.5975
  186SLPC  H15A21365   2.620   3.140   5.520 -2.4247 -1.7006  0.5994
  186SLPC  H15B21366   2.785   3.113   5.560 -0.6369 -2.4738 -0.7730
  186SLPC  H15C21367   2.664   3.019   5.630 -0.4728 -0.5346 -1.5930
  186SLPC   C1221368   2.766   3.189   5.841  0.3562 -0.0722  0.9860
  186SLPC  H12A21369   2.865   3.194   5.798  0.1635 -0.5229  0.4854
  186SLPC  H12B21370   2.745   3.090   5.879  0.0826 -0.3600  0.0923
  186SLPC   C1121371   2.755   3.285   5.960  0.4026 -0.3131  0.1485
  186SLPC  H11A21372   2.779   3.386   5.919 -4.5256  0.2028 -2.1926
  186SLPC  H11B21373   2.838   3.263   6.031  0.4516 -1.0185 -0.1254
  186SLPC     P21374   2.601   3.165   6.122  0.0257 -0.4672  0.2147
  186SLPC   O1321375   2.468   3.189   6.183 -0.0824  0.1925  0.5258
  186SLPC   O1421376   2.616   3.037   6.050  0.7814  0.3425 -0.0291
  186SLPC   O1221377   2.623   3.283   6.021 -1.1543 -0.2444 -0.0785
  186SLPC   O1121378   2.709   3.192   6.240  0.1708 -0.4135 -0.5428
  186SLPC    C121379   2.730   3.326   6.293 -0.7215 -0.3523 -0.2744
  186SLPC    HA21380   2.839   3.342   6.309 -1.0791 -0.3740  2.8136
  186SLPC    HB21381   2.686   3.409   6.234  1.7340  0.5409 -0.9712
  186SLPC    C221382   2.679   3.330   6.436 -0.5304  0.0005  0.5472
  186SLPC    HS21383   2.707   3.433   6.466  1.2811 -0.0552 -0.7831
  186SLPC   O2121384   2.754   3.234   6.504  0.3777 -0.2227  0.1785
  186SLPC   C2121385   2.865   3.283   6.560  0.0145 -0.0658  0.0691
  186SLPC   O2221386   2.919   3.391   6.535  0.0703 -0.3526 -0.1247
  186SLPC   C2221387   2.912   3.181   6.662  0.8298  0.2485  0.1073
  186SLPC   H2R21388   2.850   3.091   6.645 -1.6869  1.8835  0.0714
  186SLPC   H2S21389   3.013   3.147   6.629  0.0759 -0.2431 -1.8532
  186SLPC    C321390   2.526   3.303   6.453 -0.4485  0.2893 -0.1298
  186SLPC    HX21391   2.512   3.193   6.440  1.0597  0.1902 -1.1362
  186SLPC    HY21392   2.476   3.344   6.362  1.6208 -0.3224 -1.6199
  186SLPC   O3121393   2.450   3.357   6.561 -0.0182  0.2931  0.2776
  186SLPC   C3121394   2.421   3.274   6.657 -0.0630  0.0964  0.3466
  186SLPC   O3221395   2.441   3.150   6.657  0.0014 -0.5355  0.0635
  186SLPC   C3221396   2.363   3.354   6.764  0.3118 -0.2607 -0.6931
  186SLPC   H2X21397   2.261   3.386   6.736  0.0654 -0.5953 -0.1943
  186SLPC   H2Y21398   2.415   3.452   6.774 -2.0464  0.9707  0.1785
  186SLPC   C2321399   2.922   3.243   6.808 -0.2884  0.0733  0.7508
  186SLPC   H3R21400   2.988   3.332   6.798  0.6251 -0.4420  1.9963
  186SLPC   H3S21401   2.972   3.164   6.868 -1.5020 -1.4596 -0.1767
  186SLPC   C2421402   2.782   3.273   6.865 -0.1436  0.4995  0.0309
  186SLPC   H4R21403   2.739   3.185   6.917 -1.9036  0.4365 -1.4008
  186SLPC   H4S21404   2.716   3.307   6.782 -0.4270  0.9157  0.4167
  186SLPC   C2521405   2.773   3.381   6.969 -0.1860 -0.0185  0.0706
  186SLPC   H5R21406   2.667   3.414   6.971 -0.9883 -2.2775  4.1085
  186SLPC   H5S21407   2.835   3.470   6.946  0.5039  0.1441  2.3687
  186SLPC   C2621408   2.804   3.347   7.113  0.0447 -0.2663 -0.0460
  186SLPC   H6R21409   2.903   3.298   7.111 -0.0435 -0.4351 -0.4992
  186SLPC   H6S21410   2.722   3.281   7.149  1.8118 -2.0529  0.8443
  186SLPC   C2721411   2.800   3.475   7.201 -1.1065  0.4454 -0.0576
  186SLPC   H7R21412   2.694   3.502   7.222 -1.4111  0.1697 -1.1744
  186SLPC   H7S21413   2.859   3.555   7.152  0.0617  1.3189  2.5973
  186SLPC   C2821414   2.874   3.442   7.329 -0.9604 -0.6133  0.7589
  186SLPC   H8R21415   2.967   3.393   7.295 -0.9931 -0.2337  0.1013
  186SLPC   H8S21416   2.812   3.368   7.383 -3.9012 -0.9824 -2.7292
  186SLPC   C2921417   2.877   3.576   7.408  0.2637  0.1591 -0.3127
  186SLPC   H9R21418   2.889   3.668   7.349  1.0934  1.5503  1.8741
  186SLPC  C21021419   2.884   3.574   7.542  0.4656  0.5448 -0.5563
  186SLPC  H10R21420   2.870   3.669   7.597  0.0559  0.8088 -1.1063
  186SLPC  C21121421   2.886   3.455   7.636 -0.0393 -0.2570 -0.0135
  186SLPC  H11R21422   2.896   3.362   7.577  1.8515 -0.0509 -0.0769
  186SLPC  H11S21423   2.790   3.452   7.693  0.4869 -0.0269  0.9105
  186SLPC  C21221424   3.009   3.452   7.729 -0.0456 -0.4279 -0.2257
  186SLPC  H12R21425   3.095   3.395   7.691 -1.0279 -3.0599  1.2749
  186SLPC  C21321426   3.016   3.511   7.851  0.2476  0.2288  0.1399
  186SLPC  H13R21427   3.095   3.496   7.926 -1.3715  1.1785  2.1365
  186SLPC  C21421428   2.902   3.597   7.913  0.5867  0.2739  0.5902
  186SLPC  H14R21429   2.804   3.598   7.860  0.7177  1.4861  0.3403
  186SLPC  H14S21430   2.936   3.703   7.910 -0.3754  0.6596  1.9032
  186SLPC  C21521431   2.851   3.559   8.052 -0.7171 -0.2421  0.0461
  186SLPC  H15R21432   2.755   3.613   8.067  0.4124  2.2522 -1.0623
  186SLPC  H15S21433   2.922   3.594   8.130  0.6999 -1.5706 -0.5839
  186SLPC  C21621434   2.816   3.409   8.069  0.2204 -0.5648  0.1941
  186SLPC  H16R21435   2.910   3.352   8.056  0.0810 -0.6443 -0.5589
  186SLPC  H16S21436   2.750   3.379   7.984 -2.0399  0.7483  1.3849
  186SLPC  C21721437   2.760   3.374   8.207 -0.0820  0.7870 -0.6270
  186SLPC  H17R21438   2.840   3.401   8.278 -1.3695  2.0205  0.4062
  186SLPC  H17S21439   2.745   3.264   8.216 -1.2258  1.1176  3.7717
  186SLPC  C21821440   2.623   3.431   8.253  0.5366 -0.3000  0.0822
  186SLPC  H18R21441   2.556   3.417   8.166 -0.0378  0.8024  0.3238
  186SLPC  H18S21442   2.626   3.542   8.258 -0.9032 -0.2046 -0.7109
  186SLPC  H18T21443   2.577   3.384   8.342 -0.9593 -1.0055 -1.0196
  186SLPC   C3321444   2.368   3.287   6.906  0.0018  0.4002  0.6458
  186SLPC   H3X21445   2.468   3.240   6.918  0.1249  0.5523  0.2414
  186SLPC   H3Y21446   2.291   3.209   6.928  0.2633 -0.0570 -0.0105
  186SLPC   C3421447   2.365   3.395   7.018 -0.0006 -0.1205  0.9886
  186SLPC   H4X21448   2.275   3.460   7.012  0.3475  0.2328 -1.8854
  186SLPC   H4Y21449   2.458   3.450   6.992  1.7658 -1.9040  3.0889
  186SLPC   C3521450   2.379   3.338   7.156 -0.4522 -0.6680 -0.4531
  186SLPC   H5X21451   2.476   3.284   7.151 -0.8686 -1.4278 -0.4826
  186SLPC   H5Y21452   2.305   3.262   7.188  0.4540 -1.3641  0.0388
  186SLPC   C3621453   2.367   3.441   7.259  0.4707  0.2728 -0.0997
  186SLPC   H6X21454   2.259   3.470   7.258 -0.5764 -3.0808 -1.2791
  186SLPC   H6Y21455   2.421   3.532   7.226  1.0062 -0.6541 -1.8752
  186SLPC   C3721456   2.409   3.391   7.401 -0.8923 -0.2856 -0.2560
  186SLPC   H7X21457   2.519   3.384   7.406 -0.9562 -0.8161  0.5632
  186SLPC   H7Y21458   2.363   3.297   7.439  0.2393 -0.7557 -0.0235
  186SLPC   C3821459   2.359   3.500   7.500 -0.0901 -0.1674 -0.2314
  186SLPC   H8X21460   2.249   3.500   7.489 -0.2452 -1.8063  0.9578
  186SLPC   H8Y21461   2.400   3.600   7.473 -0.9243  0.4904  0.8537
  186SLPC   C3921462   2.399   3.483   7.648 -0.3623  0.5600 -0.0587
  186SLPC   H9X21463   2.375   3.576   7.705 -0.9795 -0.0274  0.6602
  186SLPC   H9Y21464   2.509   3.475   7.664 -0.5257 -0.0812  0.8631
  186SLPC  C31021465   2.325   3.358   7.710 -0.3759  0.3935 -0.3401
  186SLPC  H10X21466   2.382   3.266   7.683  0.6708  0.2941  1.9498
  186SLPC  H10Y21467   2.217   3.355   7.685 -0.2037  0.1504 -1.1052
  186SLPC  C31121468   2.327   3.361   7.867 -0.0110  0.9496 -0.4146
  186SLPC  H11X21469   2.433   3.381   7.892 -0.7312  1.7074  2.4480
  186SLPC  H11Y21470   2.303   3.257   7.899  0.8489  0.8434 -0.1027
  186SLPC  C31221471   2.242   3.465   7.936  0.2780  0.0356 -0.1393
  186SLPC  H12X21472   2.142   3.468   7.888  0.6167  1.7115 -0.8316
  186SLPC  H12Y21473   2.295   3.561   7.915  2.3406 -1.3275 -1.5393
  186SLPC  C31321474   2.224   3.435   8.082  0.1506 -1.0128 -0.2750
  186SLPC  H13X21475   2.326   3.424   8.124 -0.2104 -1.0261  0.6134
  186SLPC  H13Y21476   2.163   3.347   8.112 -1.2275 -0.1111 -0.3502
  186SLPC  C31421477   2.166   3.553   8.163 -0.6524 -0.0992 -0.0622
  186SLPC  H14X21478   2.142   3.512   8.263 -1.7023 -0.7238 -0.5534
  186SLPC  H14Y21479   2.072   3.597   8.124 -1.2248 -0.6500  0.6692
  186SLPC  C31521480   2.268   3.664   8.173 -0.6646 -0.8341  0.1145
  186SLPC  H15X21481   2.244   3.727   8.084 -0.1255  0.2354  0.7028
  186SLPC  H15Y21482   2.372   3.627   8.166 -0.2141  0.5035 -0.7024
  186SLPC  C31621483   2.255   3.745   8.311  0.7948  0.1625  0.1556
  186SLPC  H16X21484   2.246   3.672   8.394 -2.4150  1.5932  1.1945
  186SLPC  H16Y21485   2.160   3.801   8.302  0.8957  0.4397  0.7987
  186SLPC  C31721486   2.371   3.842   8.341  0.4968  0.3369 -0.8779
  186SLPC  H17X21487   2.392   3.901   8.250 -0.1570  0.6118 -0.8564
  186SLPC  H17Y21488   2.466   3.787   8.354  0.0783 -0.4264 -1.0113
  186SLPC  C31821489   2.346   3.932   8.463  0.6210  0.6971  0.6370
  186SLPC  H18X21490   2.263   4.002   8.444  0.0175  0.0625  0.8585
  186SLPC  H18Y21491   2.439   3.989   8.485  0.6290  1.2426 -0.7559
  186SLPC  H18Z21492   2.314   3.867   8.548 -0.4950 -0.6858 -0.7845
  187SLPC     N21493   1.220   1.056   6.028 -0.0809 -1.4754 -0.8936
  187SLPC   C1321494   1.277   1.013   5.906  0.0827 -0.5041 -0.1316
  187SLPC  H13A21495   1.286   1.090   5.831 -1.4011 -0.4776 -0.3240
  187SLPC  H13B21496   1.368   0.955   5.911 -0.0927 -0.8296 -0.6604
  187SLPC  H13C21497   1.210   0.936   5.871  1.5142 -0.7884 -2.4344
  187SLPC   C1421498   1.312   1.165   6.105  0.6004 -0.0738 -0.0489
  187SLPC  H14A21499   1.354   1.230   6.031  2.2716  0.7532  1.5449
  187SLPC  H14B21500   1.257   1.223   6.178 -0.6067 -2.1321  0.7695
  187SLPC  H14C21501   1.398   1.118   6.152  0.4534  0.9311  1.2863
  187SLPC   C1521502   1.201   0.939   6.119  0.5843  0.2180 -0.0946
  187SLPC  H15A21503   1.294   0.911   6.166 -0.4657 -0.0716  1.9455
  187SLPC  H15B21504   1.131   0.955   6.200 -0.8121  0.6663 -1.3422
  187SLPC  H15C21505   1.145   0.867   6.060 -2.2040  0.6539  1.8099
  187SLPC   C1221506   1.084   1.125   5.999  0.1867  0.1491 -0.1166
  187SLPC  H12A21507   1.024   1.052   5.948 -0.2959 -0.2687  1.0220
  187SLPC  H12B21508   1.100   1.201   5.924 -0.5665 -0.8843 -1.3512
  187SLPC   C1121509   0.995   1.180   6.113 -0.3551  0.5556  0.2258
  187SLPC  H11A21510   0.983   1.097   6.187  0.1302 -0.9483 -1.3094
  187SLPC  H11B21511   0.899   1.200   6.062 -0.4465 -0.1785  0.0988
  187SLPC     P21512   0.985   1.365   6.291 -0.2300 -0.0548  0.2893
  187SLPC   O1321513   1.059   1.485   6.337 -0.2459 -0.2628 -0.1309
  187SLPC   O1421514   0.842   1.379   6.263 -0.1814  0.1049 -0.1440
  187SLPC   O1221515   1.058   1.297   6.166  0.3069  0.3358 -0.2420
  187SLPC   O1121516   0.999   1.250   6.400  0.1407 -0.6142  0.1911
  187SLPC    C121517   1.123   1.200   6.454 -0.2794  0.1196 -0.3458
  187SLPC    HA21518   1.104   1.100   6.498  1.5450 -0.4400 -0.7761
  187SLPC    HB21519   1.209   1.186   6.385  0.4131 -1.2233  0.7438
  187SLPC    C221520   1.182   1.293   6.567 -0.5403 -0.8473  0.7242
  187SLPC    HS21521   1.235   1.381   6.526 -1.5747 -0.2473  0.6513
  187SLPC   O2121522   1.280   1.227   6.648  0.9254  0.4847 -0.1952
  187SLPC   C2121523   1.380   1.171   6.583 -0.3653  0.1836 -0.2120
  187SLPC   O2221524   1.416   1.198   6.471 -0.7108  0.6331  0.4749
  187SLPC   C2221525   1.443   1.058   6.662 -0.5261 -0.1181 -0.2700
  187SLPC   H2R21526   1.427   1.079   6.769 -1.5784  3.0606 -0.9536
  187SLPC   H2S21527   1.400   0.963   6.622 -0.2970 -0.2306 -0.2519
  187SLPC    C321528   1.071   1.357   6.659  0.9332  0.0278 -0.2504
  187SLPC    HX21529   1.010   1.274   6.699 -0.0906  0.2234 -1.3382
  187SLPC    HY21530   1.004   1.416   6.593 -1.7932 -2.3128  0.2580
  187SLPC   O3121531   1.127   1.435   6.770  0.5388  0.0370  0.0568
  187SLPC   C3121532   1.033   1.506   6.837 -0.0823 -0.2683 -0.3836
  187SLPC   O3221533   0.916   1.525   6.816 -0.5052 -0.0073  0.4269
  187SLPC   C3221534   1.101   1.546   6.972 -0.7377 -0.0269 -0.1447
  187SLPC   H2X21535   1.201   1.594   6.965 -0.3055 -0.6997  1.0703
  187SLPC   H2Y21536   1.128   1.452   7.025 -0.7362  1.3192  2.4314
  187SLPC   C2321537   1.603   1.046   6.644  0.8313 -0.1226 -0.4177
  187SLPC   H3R21538   1.660   1.115   6.710  1.4274  0.5706 -1.6325
  187SLPC   H3S21539   1.638   1.057   6.540  2.8785 -1.4439  0.0640
  187SLPC   C2421540   1.657   0.906   6.688  0.0728  0.5722 -0.1072
  187SLPC   H4R21541   1.768   0.913   6.676 -0.0178 -0.0484 -1.5068
  187SLPC   H4S21542   1.617   0.825   6.623  0.7634 -0.5982  0.8885
  187SLPC   C2521543   1.626   0.870   6.833  0.1288 -0.9556 -0.3441
  187SLPC   H5R21544   1.663   0.766   6.842  2.9739  0.0150 -0.0330
  187SLPC   H5S21545   1.515   0.874   6.842 -0.1794 -2.3184 -2.7208
  187SLPC   C2621546   1.669   0.961   6.947 -0.1566 -0.5428 -0.0582
  187SLPC   H6R21547   1.627   1.063   6.941  0.7523 -0.1034  0.7551
  187SLPC   H6S21548   1.777   0.977   6.926 -0.5907  0.8077 -1.4728
  187SLPC   C2721549   1.655   0.899   7.084 -0.7864  0.6500  0.3669
  187SLPC   H7R21550   1.684   0.983   7.150 -0.3136  1.7466 -1.1611
  187SLPC   H7S21551   1.727   0.815   7.086 -1.7382 -0.1693  1.1282
  187SLPC   C2821552   1.512   0.867   7.127 -0.4879 -0.0078 -0.4529
  187SLPC   H8R21553   1.504   0.796   7.213 -1.4089  0.4230 -0.1773
  187SLPC   H8S21554   1.466   0.804   7.048 -1.0584 -0.9197  0.5742
  187SLPC   C2921555   1.427   0.983   7.146  0.0230 -0.5519  0.8817
  187SLPC   H9R21556   1.441   1.055   7.064  1.7091 -0.9290  0.8057
  187SLPC  C21021557   1.368   1.025   7.262 -0.1526 -0.1682 -0.0480
  187SLPC  H10R21558   1.316   1.121   7.268  1.9478  0.9774  1.0462
  187SLPC  C21121559   1.382   0.943   7.390 -0.1154 -0.4679  0.3592
  187SLPC  H11R21560   1.488   0.950   7.424 -0.1598  0.4696  0.3351
  187SLPC  H11S21561   1.363   0.835   7.378  0.9279 -0.5861 -0.3407
  187SLPC  C21221562   1.305   1.003   7.509 -0.5113 -0.0670 -0.2292
  187SLPC  H12R21563   1.355   1.085   7.562  1.4336 -0.7186 -0.9381
  187SLPC  C21321564   1.177   0.971   7.543  0.0941 -0.4686 -0.0070
  187SLPC  H13R21565   1.126   1.010   7.632 -0.8769  0.2010 -0.8296
  187SLPC  C21421566   1.091   0.874   7.469  0.4941 -0.2556 -0.5939
  187SLPC  H14R21567   1.134   0.839   7.373  1.1642 -1.5634  0.1544
  187SLPC  H14S21568   0.995   0.923   7.445  0.3952  0.2631  0.7498
  187SLPC  C21521569   1.054   0.744   7.549  0.2091 -0.2975 -1.4319
  187SLPC  H15R21570   1.150   0.689   7.563  1.1247  1.2560 -1.3682
  187SLPC  H15S21571   0.975   0.692   7.491  0.3220 -0.6949 -1.2301
  187SLPC  C21621572   1.003   0.776   7.695 -0.6208  0.4522 -0.3950
  187SLPC  H16R21573   0.928   0.857   7.682 -1.3576  0.0103  0.9120
  187SLPC  H16S21574   1.088   0.801   7.761  0.4286 -0.7909 -1.2326
  187SLPC  C21721575   0.940   0.658   7.770  1.4706 -0.1627  0.1021
  187SLPC  H17R21576   0.846   0.634   7.717  1.1240  3.4356 -1.1994
  187SLPC  H17S21577   0.914   0.700   7.870  0.6347  3.1930 -1.3923
  187SLPC  C21821578   1.032   0.537   7.782 -0.2916 -0.6969 -0.2016
  187SLPC  H18R21579   1.125   0.570   7.832  0.4077  0.6829 -2.2685
  187SLPC  H18S21580   1.054   0.486   7.686  0.5224 -3.5115  1.3737
  187SLPC  H18T21581   0.981   0.456   7.838 -2.6551  0.8536  0.0495
  187SLPC   C3321582   1.006   1.630   7.065 -0.3131  0.4304 -0.1407
  187SLPC   H3X21583   0.904   1.590   7.048 -0.5590  0.6970  0.6536
  187SLPC   H3Y21584   0.998   1.741   7.056  0.3785  0.7325  2.2354
  187SLPC   C3421585   1.059   1.623   7.210  0.3763  0.4446  0.3330
  187SLPC   H4X21586   1.150   1.684   7.225  0.9442 -0.5182  0.8947
  187SLPC   H4Y21587   1.082   1.522   7.248 -0.2641  1.0625  2.4777
  187SLPC   C3521588   0.962   1.686   7.311  0.4880  0.8569  0.1959
  187SLPC   H5X21589   0.863   1.637   7.301  0.2066  1.2359  1.0361
  187SLPC   H5Y21590   0.940   1.789   7.274 -2.0227  0.1611 -0.4545
  187SLPC   C3621591   1.014   1.688   7.456 -0.3611 -0.0018  0.1179
  187SLPC   H6X21592   1.112   1.740   7.451 -0.0916 -0.6016 -1.5213
  187SLPC   H6Y21593   1.043   1.587   7.491  0.7712  0.7877  1.5993
  187SLPC   C3721594   0.914   1.761   7.547 -0.3352 -0.0283 -0.2301
  187SLPC   H7X21595   0.900   1.862   7.505 -0.9660 -0.5345 -1.2862
  187SLPC   H7Y21596   0.823   1.697   7.541  0.4464 -1.4994  1.9677
  187SLPC   C3821597   0.956   1.743   7.693 -0.4747 -0.0151  0.1104
  187SLPC   H8X21598   0.984   1.636   7.704  2.7262  0.8317  1.4279
  187SLPC   H8Y21599   0.864   1.760   7.754 -1.2990  1.1701 -1.3708
  187SLPC   C3921600   1.073   1.832   7.741 -0.2996 -0.4812  0.5483
  187SLPC   H9X21601   1.049   1.940   7.743 -0.5770 -0.5518  1.9967
  187SLPC   H9Y21602   1.153   1.812   7.666 -0.5776 -0.9805  0.3817
  187SLPC  C31021603   1.132   1.807   7.886 -0.1483  0.3310  0.1753
  187SLPC  H10X21604   1.223   1.866   7.906 -0.3037  1.2761 -1.7028
  187SLPC  H10Y21605   1.143   1.700   7.916 -2.3696 -0.1562 -0.5133
  187SLPC  C31121606   1.038   1.875   7.989 -0.0295 -0.0802 -0.7157
  187SLPC  H11X21607   0.955   1.810   8.026  0.8164 -0.0588  1.3219
  187SLPC  H11Y21608   0.992   1.966   7.944 -1.0147  0.1432  0.6675
  187SLPC  C31221609   1.111   1.924   8.115 -0.3071  0.2663  0.0241
  187SLPC  H12X21610   1.199   1.981   8.079 -0.3059 -0.2678 -0.8347
  187SLPC  H12Y21611   1.153   1.835   8.166 -0.5822  0.6525  0.9549
  187SLPC  C31321612   1.021   1.999   8.222 -0.0861 -0.5567  0.1940
  187SLPC  H13X21613   0.925   1.946   8.240  0.8545 -1.5357  2.8368
  187SLPC  H13Y21614   1.001   2.096   8.171 -1.4280 -1.2889 -0.7113
  187SLPC  C31421615   1.097   2.020   8.355  0.4599 -0.0268  0.3902
  187SLPC  H14X21616   1.177   2.097   8.348  0.0175  0.3780 -0.3570
  187SLPC  H14Y21617   1.128   1.920   8.392  1.7548  0.4320  0.6311
  187SLPC  C31521618   1.009   2.087   8.459  0.1787  0.5597  0.2204
  187SLPC  H15X21619   0.918   2.025   8.474  0.1620  0.6096  0.3237
  187SLPC  H15Y21620   0.980   2.182   8.409 -0.4476  0.6291  0.7119
  187SLPC  C31621621   1.066   2.129   8.589  0.1295  0.3971 -0.2727
  187SLPC  H16X21622   1.132   2.217   8.576  0.4921  0.4575  1.6444
  187SLPC  H16Y21623   1.128   2.054   8.643 -0.2434 -0.1527 -0.5952
  187SLPC  C31721624   0.948   2.172   8.692 -0.2024 -0.5274  0.0608
  187SLPC  H17X21625   1.007   2.226   8.769  2.0299 -2.1283 -0.4037
  187SLPC  H17Y21626   0.906   2.078   8.732  2.3618 -1.6047  0.4510
  187SLPC  C31821627   0.844   2.275   8.644  1.0555 -1.0611 -0.1590
  187SLPC  H18X21628   0.866   2.383   8.649  1.5474 -1.0737 -1.4901
  187SLPC  H18Y21629   0.749   2.257   8.699 -0.8462  2.1963 -2.0438
  187SLPC  H18Z21630   0.808   2.253   8.541 -0.5414  1.9163 -0.3363
  188SLPC     N21631   2.037   0.579   5.735 -0.4673 -0.0243 -0.0977
  188SLPC   C1321632   1.985   0.465   5.658  0.3074  0.7332 -0.0888
  188SLPC  H13A21633   1.947   0.508   5.566  3.0471  1.9697 -0.7524
  188SLPC  H13B21634   2.061   0.390   5.644  1.2807  1.1511  2.4540
  188SLPC  H13C21635   1.903   0.419   5.710  0.2662 -0.5506 -1.2358
  188SLPC   C1421636   1.935   0.687   5.734  0.7715  0.3439  0.5520
  188SLPC  H14A21637   1.965   0.772   5.793  0.4329  1.3940 -0.7566
  188SLPC  H14B21638   1.938   0.725   5.633 -1.9454 -0.6008  0.0204
  188SLPC  H14C21639   1.835   0.650   5.753  0.9263 -1.0542 -1.1383
  188SLPC   C1521640   2.160   0.626   5.675 -0.2598 -0.1495  0.7654
  188SLPC  H15A21641   2.231   0.545   5.665 -0.5477 -0.3588  0.3730
  188SLPC  H15B21642   2.145   0.654   5.572  2.1299 -1.4128 -0.0173
  188SLPC  H15C21643   2.210   0.706   5.728 -0.7456 -0.5727  1.8936
  188SLPC   C1221644   2.066   0.524   5.882 -0.9551  0.1141 -0.0494
  188SLPC  H12A21645   2.123   0.433   5.881  0.9058  1.2060  1.2123
  188SLPC  H12B21646   1.968   0.496   5.918 -0.1924 -0.7542  1.4033
  188SLPC   C1121647   2.131   0.609   5.997  0.4189 -0.1487 -0.0504
  188SLPC  H11A21648   2.232   0.637   5.961  0.9337 -0.5192  1.0523
  188SLPC  H11B21649   2.142   0.553   6.092 -0.3461  2.0778  1.4217
  188SLPC     P21650   1.942   0.744   6.122 -0.1152 -0.0441  0.7561
  188SLPC   O1321651   1.870   0.871   6.093 -0.1649  0.8688  0.0350
  188SLPC   O1421652   1.857   0.620   6.121 -0.2522 -0.6276 -0.3799
  188SLPC   O1221653   2.062   0.733   6.014 -0.2452  0.5672 -0.4502
  188SLPC   O1121654   2.025   0.753   6.254 -0.1748  0.1318 -0.6485
  188SLPC    C121655   2.138   0.831   6.288 -0.3127  0.2421  0.1365
  188SLPC    HA21656   2.228   0.768   6.273 -1.9599 -1.7981 -2.0731
  188SLPC    HB21657   2.140   0.913   6.213 -0.6492  0.4570  0.3602
  188SLPC    C221658   2.123   0.891   6.425  0.6223  0.1452  0.4480
  188SLPC    HS21659   2.220   0.942   6.440  1.0400 -0.3230 -0.5518
  188SLPC   O2121660   2.090   0.795   6.530 -0.5443 -0.4641  0.4456
  188SLPC   C2121661   2.109   0.833   6.654 -0.5494 -0.1336 -0.6706
  188SLPC   O2221662   2.154   0.936   6.701 -0.4114  0.2920  0.5294
  188SLPC   C2221663   2.043   0.731   6.740 -0.0408  0.2679 -0.7098
  188SLPC   H2R21664   1.932   0.734   6.727 -0.2555 -1.3269  0.4889
  188SLPC   H2S21665   2.077   0.628   6.716 -4.7899 -1.5437 -0.7557
  188SLPC    C321666   2.008   0.984   6.417 -0.4940 -0.3695 -0.3284
  188SLPC    HX21667   1.911   0.930   6.412 -2.8907  3.5700 -0.2361
  188SLPC    HY21668   2.015   1.048   6.326  1.2275  0.2322  0.1862
  188SLPC   O3121669   1.981   1.077   6.525 -0.8020  0.3205  0.8261
  188SLPC   C3121670   2.056   1.186   6.514 -0.7346 -0.0029 -0.4357
  188SLPC   O3221671   2.166   1.191   6.463 -0.3952 -1.0707  0.2339
  188SLPC   C3221672   1.989   1.299   6.595 -0.2999 -0.4113 -0.0062
  188SLPC   H2X21673   1.880   1.288   6.582 -0.4194 -0.4959  1.0264
  188SLPC   H2Y21674   2.030   1.395   6.555  1.6257  0.0718  2.7839
  188SLPC   C2321675   2.067   0.762   6.895 -0.7660  0.1284  0.3903
  188SLPC   H3R21676   2.041   0.860   6.941  0.2722 -0.1483  1.6231
  188SLPC   H3S21677   2.175   0.746   6.912 -1.0313 -0.3521  1.7946
  188SLPC   C2421678   1.997   0.657   6.986  0.2420  0.2011  0.0203
  188SLPC   H4R21679   2.018   0.550   6.965 -0.5069  0.1143 -0.3126
  188SLPC   H4S21680   1.888   0.672   6.970  0.2782 -0.7612 -1.3266
  188SLPC   C2521681   2.019   0.674   7.139 -0.2557 -0.3003 -0.1898
  188SLPC   H5R21682   2.116   0.625   7.164  0.7596  1.2596 -0.9316
  188SLPC   H5S21683   1.939   0.627   7.200 -0.9333 -0.3844 -1.1233
  188SLPC   C2621684   2.041   0.823   7.179 -0.4931 -0.5151 -0.3118
  188SLPC   H6R21685   1.956   0.887   7.148  0.3397  1.6022  1.4761
  188SLPC   H6S21686   2.129   0.864   7.127  0.2241 -0.5128  0.8550
  188SLPC   C2721687   2.076   0.851   7.336  0.2161  0.1732 -0.0207
  188SLPC   H7R21688   2.176   0.814   7.369  0.3313  1.4793  1.1432
  188SLPC   H7S21689   2.002   0.790   7.392 -0.7629  1.5193  0.1869
  188SLPC   C2821690   2.038   0.987   7.383  0.4100  0.9272 -0.1915
  188SLPC   H8R21691   2.063   0.988   7.491 -1.7985 -1.5007  0.4533
  188SLPC   H8S21692   1.927   0.990   7.389  0.1653 -3.3158  0.3348
  188SLPC   C2921693   2.115   1.092   7.313  0.9729 -0.2014 -0.4184
  188SLPC   H9R21694   2.224   1.097   7.328  0.6586  0.8435  1.9877
  188SLPC  C21021695   2.064   1.194   7.247  0.1286  0.4552  0.5904
  188SLPC  H10R21696   2.139   1.254   7.192  0.2067 -0.8280 -0.7756
  188SLPC  C21121697   1.917   1.222   7.241  0.6470 -0.4441 -0.1959
  188SLPC  H11R21698   1.851   1.135   7.263 -0.8903  1.3291  2.9768
  188SLPC  H11S21699   1.883   1.252   7.140  0.7051 -1.7052 -0.5976
  188SLPC  C21221700   1.864   1.323   7.341 -0.0922 -0.4521  0.2883
  188SLPC  H12R21701   1.905   1.423   7.321 -1.3397 -0.3395 -2.0769
  188SLPC  C21321702   1.771   1.302   7.438  0.9340  0.5987 -0.4000
  188SLPC  H13R21703   1.734   1.385   7.500 -0.2563  0.3592 -0.7550
  188SLPC  C21421704   1.706   1.167   7.480 -0.1281 -0.0146 -0.0489
  188SLPC  H14R21705   1.748   1.077   7.430  1.4853  1.7618 -2.1151
  188SLPC  H14S21706   1.600   1.176   7.448  0.1240  0.9640 -0.6534
  188SLPC  C21521707   1.709   1.164   7.632  0.0758 -0.8465 -0.8010
  188SLPC  H15R21708   1.630   1.232   7.669  2.6877  1.7554  0.4564
  188SLPC  H15S21709   1.810   1.186   7.673  0.0173 -0.1400 -1.0163
  188SLPC  C21621710   1.699   1.016   7.664  0.4888 -0.1983  0.1751
  188SLPC  H16R21711   1.755   0.954   7.591 -1.7503 -0.1261 -1.7157
  188SLPC  H16S21712   1.597   0.983   7.634  0.7721 -1.7009  0.7703
  188SLPC  C21721713   1.717   0.989   7.810  0.6279  0.4436 -0.2180
  188SLPC  H17R21714   1.799   1.053   7.848  1.9045 -0.7257 -0.9313
  188SLPC  H17S21715   1.757   0.885   7.817  0.7461  0.5177  0.2579
  188SLPC  C21821716   1.597   1.013   7.901 -0.0790 -0.3120  0.1927
  188SLPC  H18R21717   1.590   1.123   7.916  0.5092  0.1819 -2.5665
  188SLPC  H18S21718   1.597   0.958   7.998 -0.5641 -0.5978  0.0362
  188SLPC  H18T21719   1.505   0.969   7.856 -0.9305  1.2466  0.3164
  188SLPC   C3321720   2.024   1.284   6.746 -0.5180  0.1295 -0.1199
  188SLPC   H3X21721   2.128   1.317   6.769  0.2411 -2.5834  0.7043
  188SLPC   H3Y21722   2.024   1.179   6.782 -1.1796  0.5827  1.2981
  188SLPC   C3421723   1.920   1.362   6.832 -0.6932 -0.3798  0.1509
  188SLPC   H4X21724   1.949   1.320   6.930 -0.8388  1.5109  1.0480
  188SLPC   H4Y21725   1.817   1.329   6.805 -0.5444 -0.5072 -0.2664
  188SLPC   C3521726   1.947   1.507   6.826 -0.3188 -0.6957 -0.6185
  188SLPC   H5X21727   1.910   1.560   6.736  2.6697  3.1595  0.1827
  188SLPC   H5Y21728   2.057   1.522   6.824 -0.0113 -2.3142  1.1812
  188SLPC   C3621729   1.906   1.579   6.953  0.4797 -0.2590  0.1257
  188SLPC   H6X21730   1.806   1.535   6.973 -1.6596  2.4569 -3.3874
  188SLPC   H6Y21731   1.888   1.684   6.924  1.1151 -0.5557 -1.4762
  188SLPC   C3721732   2.013   1.587   7.070 -0.0021 -0.4073 -0.5789
  188SLPC   H7X21733   2.101   1.643   7.031  0.3503 -0.8819 -0.4738
  188SLPC   H7Y21734   2.052   1.488   7.102  0.0215 -0.9950 -2.3125
  188SLPC   C3821735   1.958   1.655   7.205 -0.4812 -0.1039  0.4617
  188SLPC   H8X21736   1.860   1.607   7.224  0.9071 -2.8471  1.1287
  188SLPC   H8Y21737   1.936   1.760   7.177 -0.5479 -0.5038 -1.0687
  188SLPC   C3921738   2.056   1.649   7.325  0.3513  0.3729  0.3861
  188SLPC   H9X21739   2.147   1.699   7.285  0.8639 -0.0187  1.0406
  188SLPC   H9Y21740   2.079   1.541   7.340 -1.0049  0.1192  0.7770
  188SLPC  C31021741   2.003   1.710   7.458  0.3119 -0.1752  0.3252
  188SLPC  H10X21742   1.907   1.663   7.486 -0.4915  0.9662 -0.4166
  188SLPC  H10Y21743   1.995   1.820   7.444 -0.3914 -0.4411 -1.7268
  188SLPC  C31121744   2.102   1.689   7.575  0.2099  0.4466 -0.6208
  188SLPC  H11X21745   2.168   1.779   7.581  0.1821  0.4502 -0.3430
  188SLPC  H11Y21746   2.168   1.604   7.547  0.4215  0.0118  1.0515
  188SLPC  C31221747   2.030   1.667   7.709 -0.3086 -0.8842 -0.4716
  188SLPC  H12X21748   1.959   1.752   7.720 -1.9188 -2.2241  0.1001
  188SLPC  H12Y21749   2.113   1.684   7.780 -0.8343  0.4687 -0.1466
  188SLPC  C31321750   1.958   1.538   7.731  1.2219 -0.4507 -0.1934
  188SLPC  H13X21751   2.027   1.461   7.689  2.3319 -0.4286  1.5230
  188SLPC  H13Y21752   1.866   1.535   7.669  1.0731 -1.3027  0.0573
  188SLPC  C31421753   1.937   1.509   7.879  0.0856  0.2653  0.0149
  188SLPC  H14X21754   1.867   1.585   7.920  0.7170  0.0904  1.4793
  188SLPC  H14Y21755   2.035   1.512   7.932 -0.0852 -2.6110  0.6653
  188SLPC  C31521756   1.864   1.387   7.926  0.1689 -0.7251 -0.3711
  188SLPC  H15X21757   1.912   1.292   7.893 -1.3860 -2.0236  0.9015
  188SLPC  H15Y21758   1.763   1.389   7.879 -0.6941  0.3671  1.4073
  188SLPC  C31621759   1.851   1.376   8.082  0.1831  0.0076 -0.6370
  188SLPC  H16X21760   1.954   1.375   8.123 -0.4022  0.0488  0.9190
  188SLPC  H16Y21761   1.797   1.282   8.109  0.4766 -0.0942 -0.3864
  188SLPC  C31721762   1.798   1.502   8.154  1.1348  0.0044  0.5631
  188SLPC  H17X21763   1.704   1.521   8.098  0.4056 -0.0597  1.7393
  188SLPC  H17Y21764   1.870   1.585   8.137 -0.0193  0.8117 -0.6055
  188SLPC  C31821765   1.754   1.491   8.296  0.0350  0.2201  0.3397
  188SLPC  H18X21766   1.673   1.418   8.312 -0.1645 -0.6220 -3.6439
  188SLPC  H18Y21767   1.717   1.590   8.332 -0.5198  0.9940 -2.2033
  188SLPC  H18Z21768   1.851   1.471   8.347  0.9867  0.6126 -1.2447
  189SLPC     N21769   4.379   6.034   6.223  0.0574 -0.6736  0.0561
  189SLPC   C1321770   4.266   6.084   6.302 -0.4481 -0.5758 -0.7015
  189SLPC  H13A21771   4.297   6.142   6.387 -0.0703 -0.0223 -1.2130
  189SLPC  H13B21772   4.198   6.148   6.248  0.4151  1.4780  0.5302
  189SLPC  H13C21773   4.224   5.993   6.343  2.0148 -0.5068  2.3274
  189SLPC   C1421774   4.472   6.146   6.196  0.7652  0.2158 -0.3951
  189SLPC  H14A21775   4.568   6.114   6.162  2.2359  1.9708  1.7609
  189SLPC  H14B21776   4.428   6.223   6.134 -0.7554  0.3868  0.8061
  189SLPC  H14C21777   4.502   6.194   6.288 -0.0830  0.6447 -0.3256
  189SLPC   C1521778   4.341   5.970   6.096 -0.3321 -0.0958  0.0032
  189SLPC  H15A21779   4.430   5.936   6.046 -0.7681 -1.4057  0.0742
  189SLPC  H15B21780   4.262   5.896   6.099 -0.1279 -0.3081  2.8176
  189SLPC  H15C21781   4.296   6.048   6.036  1.3079  0.8094 -0.1095
  189SLPC   C1221782   4.446   5.914   6.301 -0.0339 -0.3675 -0.3055
  189SLPC  H12A21783   4.474   5.956   6.397 -0.4285 -2.7465  0.9279
  189SLPC  H12B21784   4.540   5.877   6.265 -0.4373 -4.2480  2.1423
  189SLPC   C1121785   4.369   5.778   6.330  0.4466 -0.1304  0.1247
  189SLPC  H11A21786   4.433   5.729   6.407 -0.3522 -1.2855  0.0681
  189SLPC  H11B21787   4.381   5.709   6.243 -0.8648 -0.8326  0.4756
  189SLPC     P21788   4.119   5.712   6.320  0.2139 -0.5431 -0.0731
  189SLPC   O1321789   3.988   5.778   6.340 -0.2582  0.0846 -0.1573
  189SLPC   O1421790   4.149   5.662   6.183  0.2815  0.2909 -0.4772
  189SLPC   O1221791   4.236   5.800   6.370  0.2264  0.6667 -0.7248
  189SLPC   O1121792   4.127   5.585   6.410 -0.4213 -0.2778  0.1788
  189SLPC    C121793   4.168   5.592   6.547  0.1858 -0.2856 -1.4868
  189SLPC    HA21794   4.271   5.631   6.561 -0.8195  1.7390  1.1691
  189SLPC    HB21795   4.095   5.658   6.599  0.4390 -2.4403  1.9494
  189SLPC    C221796   4.156   5.454   6.620 -0.5339 -0.4518  0.0016
  189SLPC    HS21797   4.048   5.428   6.623 -0.3446 -1.7909 -2.3592
  189SLPC   O2121798   4.204   5.478   6.756  0.1514  0.0390 -0.2334
  189SLPC   C2121799   4.113   5.532   6.836 -0.0953  0.1980  0.0413
  189SLPC   O2221800   3.996   5.550   6.811  0.0779  0.2483 -0.3180
  189SLPC   C2221801   4.181   5.590   6.965 -0.3273 -0.0792  0.0168
  189SLPC   H2R21802   4.249   5.511   7.002 -0.1123 -0.6618 -1.5691
  189SLPC   H2S21803   4.240   5.672   6.919  0.1207  1.1210  2.5547
  189SLPC    C321804   4.237   5.338   6.553 -0.1032 -0.0592 -0.2304
  189SLPC    HX21805   4.346   5.360   6.542 -0.5309  1.5561 -1.6865
  189SLPC    HY21806   4.204   5.330   6.447  0.3917  0.4427 -0.4253
  189SLPC   O3121807   4.226   5.207   6.620  0.2017 -0.3722 -0.6375
  189SLPC   C3121808   4.115   5.143   6.598 -0.0399 -0.4036 -0.1106
  189SLPC   O3221809   4.021   5.175   6.529  0.0995 -0.3085  0.2895
  189SLPC   C3221810   4.113   5.009   6.670  0.4485 -0.4417  0.2504
  189SLPC   H2X21811   4.214   4.965   6.689 -0.1198 -1.3947  1.2427
  189SLPC   H2Y21812   4.068   4.926   6.611  1.3088 -2.2305  1.9472
  189SLPC   C2321813   4.096   5.657   7.074  0.1838  0.0303 -1.0324
  189SLPC   H3R21814   4.001   5.698   7.035 -0.1536  1.3410  1.0676
  189SLPC   H3S21815   4.161   5.737   7.117  1.5256 -1.1818 -0.7030
  189SLPC   C2421816   4.070   5.564   7.200  0.1577 -0.1660  0.0613
  189SLPC   H4R21817   4.160   5.552   7.263  1.0342  1.4964 -0.8343
  189SLPC   H4S21818   4.046   5.460   7.167  0.0727 -0.7525  1.8753
  189SLPC   C2521819   3.958   5.620   7.284  0.1779  0.4878 -0.6136
  189SLPC   H5R21820   3.868   5.648   7.225 -0.6606  0.6495  0.7166
  189SLPC   H5S21821   3.987   5.709   7.343 -2.7937  1.0086  0.1984
  189SLPC   C2621822   3.913   5.526   7.397  0.7433 -0.5727  0.2954
  189SLPC   H6R21823   4.006   5.472   7.425  0.8951 -0.5853 -0.2129
  189SLPC   H6S21824   3.837   5.456   7.357  0.5622 -0.0808 -0.2331
  189SLPC   C2721825   3.841   5.594   7.517  0.5386 -0.8738 -0.3973
  189SLPC   H7R21826   3.756   5.651   7.474  2.1421  1.7496 -0.3683
  189SLPC   H7S21827   3.906   5.670   7.566 -1.0853  0.5014 -0.2711
  189SLPC   C2821828   3.781   5.488   7.613 -0.0528 -0.4608  0.1922
  189SLPC   H8R21829   3.719   5.422   7.549  1.2668 -2.5711  0.9934
  189SLPC   H8S21830   3.717   5.548   7.681  1.0912  0.4550  0.4892
  189SLPC   C2921831   3.883   5.410   7.675 -0.2420  0.6217 -0.0401
  189SLPC   H9R21832   3.984   5.399   7.634  0.0795 -0.4413  0.9825
  189SLPC  C21021833   3.872   5.364   7.797  0.4662 -0.3320  0.2946
  189SLPC  H10R21834   3.952   5.302   7.840  0.6487 -0.2941  0.0123
  189SLPC  C21121835   3.755   5.385   7.887 -0.1466 -0.3932  0.3102
  189SLPC  H11R21836   3.666   5.397   7.822  0.2702  1.9571  0.0697
  189SLPC  H11S21837   3.761   5.485   7.936  1.8277 -1.3857  2.2702
  189SLPC  C21221838   3.729   5.277   7.992 -1.3163 -0.3303 -0.2294
  189SLPC  H12R21839   3.666   5.196   7.950 -0.2783 -0.9325 -0.6825
  189SLPC  C21321840   3.798   5.254   8.109 -0.2448 -0.0557  0.2649
  189SLPC  H13R21841   3.778   5.159   8.162  2.1251  0.3217  1.9811
  189SLPC  C21421842   3.904   5.336   8.173  0.1690 -0.5064  0.2660
  189SLPC  H14R21843   3.872   5.351   8.278  2.0327  0.1929  0.7626
  189SLPC  H14S21844   3.924   5.432   8.121  3.4187 -1.4058 -0.3705
  189SLPC  C21521845   4.036   5.252   8.162 -0.5715  0.2080 -0.1031
  189SLPC  H15R21846   4.112   5.310   8.220  0.4697 -1.1881 -0.0116
  189SLPC  H15S21847   4.068   5.254   8.056 -0.8095  0.3191 -0.1717
  189SLPC  C21621848   4.050   5.113   8.220 -0.3686  0.1499  1.2820
  189SLPC  H16R21849   3.983   5.043   8.165 -0.3942  0.0903  1.3884
  189SLPC  H16S21850   4.009   5.112   8.323 -4.1947 -1.1522 -0.0717
  189SLPC  C21721851   4.195   5.065   8.211 -0.4258 -0.3176 -0.5607
  189SLPC  H17R21852   4.263   5.120   8.279  1.4999  0.5560 -3.0341
  189SLPC  H17S21853   4.243   5.083   8.112 -1.8862 -0.4733 -1.3258
  189SLPC  C21821854   4.209   4.920   8.251 -0.3171  0.4812  0.0568
  189SLPC  H18R21855   4.298   4.862   8.217  0.9486 -0.7967  4.7063
  189SLPC  H18S21856   4.125   4.859   8.213  0.3059 -0.7924  0.6339
  189SLPC  H18T21857   4.216   4.912   8.362 -1.4006 -0.9470  0.0496
  189SLPC   C3321858   4.039   5.016   6.809 -0.3047 -0.1214  0.3611
  189SLPC   H3X21859   4.060   4.919   6.860 -0.3962  0.1783  0.9632
  189SLPC   H3Y21860   3.930   5.029   6.796 -0.7015 -1.2118  2.2384
  189SLPC   C3421861   4.098   5.117   6.902 -0.9144 -0.6200  0.3395
  189SLPC   H4X21862   4.112   5.208   6.840  3.2853 -1.5622 -0.4071
  189SLPC   H4Y21863   4.197   5.098   6.948 -0.3719 -2.9484 -1.5506
  189SLPC   C3521864   3.997   5.153   7.017 -0.0352 -0.0356 -0.8249
  189SLPC   H5X21865   3.908   5.206   6.978 -0.3850 -0.1232 -0.1584
  189SLPC   H5Y21866   4.054   5.222   7.083  0.2799 -1.0749  0.0359
  189SLPC   C3621867   3.951   5.025   7.090 -0.3189 -0.2479  0.0848
  189SLPC   H6X21868   4.049   4.975   7.102  1.1964  2.9698  2.9464
  189SLPC   H6Y21869   3.878   4.958   7.040  0.9652 -1.6141 -0.0308
  189SLPC   C3721870   3.916   5.049   7.234 -0.3636  0.6356  0.1910
  189SLPC   H7X21871   3.821   5.107   7.230 -1.8085 -1.5963 -3.3697
  189SLPC   H7Y21872   3.977   5.112   7.302 -0.6950  0.2267  0.8859
  189SLPC   C3821873   3.887   4.920   7.305  0.3338 -0.0621 -0.0438
  189SLPC   H8X21874   3.978   4.868   7.343  0.4957  2.1995  3.0143
  189SLPC   H8Y21875   3.824   4.855   7.241 -3.7864  2.4231  1.1770
  189SLPC   C3921876   3.804   4.950   7.432  0.2851 -0.6019  0.0346
  189SLPC   H9X21877   3.707   4.995   7.402 -0.6575 -2.0797  0.7436
  189SLPC   H9Y21878   3.853   5.029   7.493 -0.4521  0.4723 -0.7259
  189SLPC  C31021879   3.773   4.828   7.516  0.8717  0.2428  0.0873
  189SLPC  H10X21880   3.859   4.791   7.574 -0.3360 -1.9079  0.6284
  189SLPC  H10Y21881   3.744   4.743   7.451  3.9144 -0.1252 -0.9399
  189SLPC  C31121882   3.667   4.869   7.624 -0.1194  0.1401  0.4941
  189SLPC  H11X21883   3.567   4.850   7.580  0.7767 -0.9476 -1.1698
  189SLPC  H11Y21884   3.687   4.978   7.638  0.5299  0.1283 -0.2682
  189SLPC  C31221885   3.671   4.773   7.744  0.3997 -0.0331 -0.6598
  189SLPC  H12X21886   3.772   4.760   7.789 -0.2961  1.4393  1.4497
  189SLPC  H12Y21887   3.657   4.672   7.700 -0.9152 -0.3322  0.3842
  189SLPC  C31321888   3.572   4.798   7.858  0.2702  0.1790  0.5626
  189SLPC  H13X21889   3.560   4.701   7.912 -1.5690  1.5083  2.7286
  189SLPC  H13Y21890   3.475   4.833   7.817  0.6429 -0.0339 -0.5353
  189SLPC  C31421891   3.625   4.905   7.949  0.2783 -0.0932 -0.3104
  189SLPC  H14X21892   3.645   4.998   7.892  1.4110  1.0545  1.8288
  189SLPC  H14Y21893   3.730   4.881   7.973  0.9092 -0.3186 -3.0350
  189SLPC  C31521894   3.552   4.925   8.082 -1.2184 -0.8761 -0.5265
  189SLPC  H15X21895   3.622   4.975   8.152 -0.9121  1.5682 -2.4066
  189SLPC  H15Y21896   3.531   4.824   8.121  0.3200  0.4028  4.2229
  189SLPC  C31621897   3.413   4.993   8.092 -1.1625 -0.4320  0.6908
  189SLPC  H16X21898   3.334   4.927   8.048 -3.2734  2.4105 -0.0951
  189SLPC  H16Y21899   3.414   5.082   8.026 -2.6632 -1.8132 -1.3172
  189SLPC  C31721900   3.381   5.036   8.234 -0.2116 -0.3208  0.4120
  189SLPC  H17X21901   3.409   4.958   8.308 -3.4682  0.0660  2.2466
  189SLPC  H17Y21902   3.270   5.046   8.236 -0.4296 -1.7569 -1.5620
  189SLPC  C31821903   3.444   5.170   8.276  0.9897  0.4097 -0.7507
  189SLPC  H18X21904   3.549   5.166   8.311  0.5353  3.0900  1.2533
  189SLPC  H18Y21905   3.386   5.207   8.363  0.7179 -2.1573  0.2396
  189SLPC  H18Z21906   3.430   5.257   8.208 -0.6841  0.6862 -0.1079
  190SLPC     N21907   4.629   3.549   5.994 -0.4735  0.8814 -0.0768
  190SLPC   C1321908   4.572   3.412   6.038  0.0420 -0.1848 -0.2846
  190SLPC  H13A21909   4.465   3.415   6.050  0.1968  0.5801  1.2081
  190SLPC  H13B21910   4.594   3.343   5.958  1.2916  1.0696 -1.0739
  190SLPC  H13C21911   4.615   3.372   6.128 -1.8885 -0.9423  0.3530
  190SLPC   C1421912   4.580   3.573   5.851 -0.4056  0.8554 -0.1660
  190SLPC  H14A21913   4.624   3.661   5.807 -1.7688  1.1325 -1.0123
  190SLPC  H14B21914   4.608   3.488   5.790  0.1637 -1.6375  3.2319
  190SLPC  H14C21915   4.473   3.584   5.846 -0.3633  1.0160 -0.7310
  190SLPC   C1521916   4.779   3.536   6.007 -0.2739 -0.3417  0.5196
  190SLPC  H15A21917   4.828   3.632   5.994 -1.9643  0.3817 -0.9573
  190SLPC  H15B21918   4.811   3.522   6.109 -0.0369  2.4364  0.9139
  190SLPC  H15C21919   4.818   3.466   5.935 -0.8807  0.6270 -0.7984
  190SLPC   C1221920   4.580   3.669   6.076 -0.6906 -0.1841 -0.2686
  190SLPC  H12A21921   4.473   3.671   6.063 -0.8550  1.1584  0.9902
  190SLPC  H12B21922   4.608   3.764   6.032 -2.2699  0.1345 -0.6321
  190SLPC   C1121923   4.627   3.663   6.232 -0.4352  0.5581  0.2720
  190SLPC  H11A21924   4.606   3.560   6.268 -2.1904  0.7839  0.0204
  190SLPC  H11B21925   4.559   3.727   6.292 -1.3067  1.3054 -1.4397
  190SLPC     P21926   4.817   3.841   6.224  0.0287 -0.7461 -0.1209
  190SLPC   O1321927   4.905   3.830   6.104  0.2200  0.0924  0.2288
  190SLPC   O1421928   4.698   3.934   6.221  0.2372  0.5629 -0.1886
  190SLPC   O1221929   4.763   3.699   6.263 -0.4171  0.1814  0.3326
  190SLPC   O1121930   4.904   3.876   6.346  0.3409 -0.1277 -0.1849
  190SLPC    C121931   4.972   3.790   6.439  0.3474 -0.3279  1.0775
  190SLPC    HA21932   4.990   3.693   6.389 -0.8291 -0.5924  1.1470
  190SLPC    HB21933   5.071   3.837   6.456 -0.7223  2.1638  0.8229
  190SLPC    C221934   4.916   3.774   6.589  0.2881 -0.1420 -0.5241
  190SLPC    HS21935   4.879   3.670   6.603  1.8709 -0.4564  1.8756
  190SLPC   O2121936   4.822   3.877   6.619 -0.2309 -0.2939 -0.2186
  190SLPC   C2121937   4.689   3.845   6.629 -0.0747 -0.8389  0.0217
  190SLPC   O2221938   4.640   3.734   6.621  0.1082 -0.3727 -0.0876
  190SLPC   C2221939   4.605   3.969   6.658 -0.0876 -0.4803  0.8508
  190SLPC   H2R21940   4.664   4.063   6.665 -0.3396 -0.1320 -1.1507
  190SLPC   H2S21941   4.538   3.988   6.572  0.5705 -1.2817  0.1434
  190SLPC    C321942   5.027   3.777   6.700  0.3401 -0.1767  1.0896
  190SLPC    HX21943   5.094   3.863   6.677 -0.1864  0.1108  0.5893
  190SLPC    HY21944   5.102   3.695   6.695  1.1896  0.6428 -0.5858
  190SLPC   O3121945   4.977   3.809   6.834  0.1087 -0.1840 -0.1314
  190SLPC   C3121946   4.942   3.704   6.901 -0.1259  0.9330 -0.7153
  190SLPC   O3221947   4.946   3.588   6.857 -0.2003 -0.8202  0.9489
  190SLPC   C3221948   4.903   3.741   7.043  0.1275 -0.1912 -0.1725
  190SLPC   H2X21949   4.835   3.829   7.046  0.9902  0.4715  0.9964
  190SLPC   H2Y21950   4.995   3.764   7.101  0.8399  0.7902 -1.6457
  190SLPC   C2321951   4.531   3.949   6.792 -0.6067  0.7009 -0.1547
  190SLPC   H3R21952   4.488   3.847   6.778  1.2329 -0.0613 -0.5678
  190SLPC   H3S21953   4.438   4.007   6.803 -1.3818 -0.8014  2.0689
  190SLPC   C2421954   4.617   3.965   6.920  0.8220  0.1476  0.0026
  190SLPC   H4R21955   4.710   4.018   6.889  1.4726 -0.2733  1.1613
  190SLPC   H4S21956   4.643   3.862   6.951 -0.0660  0.3815  1.6217
  190SLPC   C2521957   4.552   4.027   7.042 -0.2117 -0.0351  0.3129
  190SLPC   H5R21958   4.487   4.113   7.015  1.7015  1.4535  0.2275
  190SLPC   H5S21959   4.633   4.044   7.116  0.0975 -1.2790  0.2951
  190SLPC   C2621960   4.447   3.934   7.117 -0.0321  0.9358 -0.2550
  190SLPC   H6R21961   4.490   3.834   7.135 -0.1986  1.1551  1.4583
  190SLPC   H6S21962   4.358   3.938   7.050 -0.6394  1.4904  0.5563
  190SLPC   C2721963   4.398   3.997   7.253  0.3011 -0.0020 -0.1697
  190SLPC   H7R21964   4.302   3.951   7.282 -0.8953  2.2551 -0.3794
  190SLPC   H7S21965   4.377   4.104   7.235 -0.0753  0.1746  1.2147
  190SLPC   C2821966   4.500   3.988   7.368  0.2794  0.2373 -0.4064
  190SLPC   H8R21967   4.456   4.050   7.449  2.8635  1.4038  0.2170
  190SLPC   H8S21968   4.593   4.038   7.334  1.0416 -1.4727 -0.9533
  190SLPC   C2921969   4.537   3.850   7.409 -0.0308  0.0321 -0.2691
  190SLPC   H9R21970   4.532   3.774   7.329 -0.2784 -1.4116  1.0603
  190SLPC  C21021971   4.566   3.814   7.534 -0.7585 -0.0999  0.0965
  190SLPC  H10R21972   4.602   3.710   7.543  1.7272  0.6998  0.1034
  190SLPC  C21121973   4.579   3.894   7.662 -1.0787 -0.6786  0.1357
  190SLPC  H11R21974   4.481   3.885   7.713 -0.7347 -2.1716  0.5913
  190SLPC  H11S21975   4.583   4.003   7.641 -1.4581 -0.8038 -0.6309
  190SLPC  C21221976   4.696   3.854   7.747 -0.2927 -0.7645  0.3730
  190SLPC  H12R21977   4.790   3.884   7.699 -1.0744  1.9356  0.3490
  190SLPC  C21321978   4.700   3.774   7.858  0.0568  0.1045  1.3307
  190SLPC  H13R21979   4.792   3.747   7.913  0.4957 -0.0731  0.5296
  190SLPC  C21421980   4.573   3.723   7.927 -0.1935 -0.0971 -0.4633
  190SLPC  H14R21981   4.574   3.617   7.960 -3.0922 -0.5288 -1.4403
  190SLPC  H14S21982   4.496   3.725   7.847 -0.0054 -1.6369 -0.7082
  190SLPC  C21521983   4.532   3.818   8.043 -0.0290 -0.1097  0.0920
  190SLPC  H15R21984   4.447   3.765   8.090  0.9472 -0.7603  1.1445
  190SLPC  H15S21985   4.493   3.911   7.995 -0.9887 -0.2426  0.5881
  190SLPC  C21621986   4.636   3.865   8.147  0.3752  0.4196  1.0633
  190SLPC  H16R21987   4.696   3.939   8.090 -0.4551 -1.5742 -2.6908
  190SLPC  H16S21988   4.704   3.781   8.174  1.7770  1.0822 -0.2052
  190SLPC  C21721989   4.579   3.938   8.266 -0.2709 -0.0828 -1.0807
  190SLPC  H17R21990   4.533   3.854   8.322  1.6043 -0.0888  0.5522
  190SLPC  H17S21991   4.492   4.001   8.237  1.1374  1.7948 -1.4657
  190SLPC  C21821992   4.684   4.012   8.350 -0.3308  0.4863  0.9273
  190SLPC  H18R21993   4.644   4.062   8.441 -0.1207  1.1027  0.6902
  190SLPC  H18S21994   4.745   4.083   8.290 -1.4043  0.0028 -0.7868
  190SLPC  H18T21995   4.758   3.941   8.392  0.0311 -0.8048 -1.6803
  190SLPC   C3321996   4.833   3.628   7.124 -0.2581  0.1347  1.0177
  190SLPC   H3X21997   4.779   3.558   7.056  0.6252 -1.3793  1.8318
  190SLPC   H3Y21998   4.741   3.660   7.178  0.3119  2.5843  0.6370
  190SLPC   C3421999   4.934   3.559   7.213  0.6668 -0.0749  0.3893
  190SLPC   H4X22000   4.956   3.630   7.296  1.3438  0.0317  0.1316
  190SLPC   H4Y22001   5.022   3.552   7.145 -1.1129 -2.1102 -1.8697
  190SLPC   C3522002   4.903   3.418   7.272  0.0073  0.6009  0.9249
  190SLPC   H5X22003   4.994   3.354   7.276 -0.8062 -1.0912 -2.8213
  190SLPC   H5Y22004   4.838   3.375   7.192  2.2076 -2.5999  0.6410
  190SLPC   C3622005   4.821   3.421   7.397 -0.6414 -0.4484 -0.5356
  190SLPC   H6X22006   4.775   3.321   7.411 -0.0810 -0.6072  0.2228
  190SLPC   H6Y22007   4.740   3.497   7.391  0.6972  1.0427 -0.3441
  190SLPC   C3722008   4.908   3.437   7.525 -0.3528 -0.0244 -0.6930
  190SLPC   H7X22009   4.983   3.519   7.525 -0.0970 -0.2562 -1.3322
  190SLPC   H7Y22010   4.973   3.348   7.524  1.9591  1.4930  1.3996
  190SLPC   C3822011   4.823   3.448   7.654 -0.0810 -1.0726  0.2610
  190SLPC   H8X22012   4.730   3.389   7.649  1.2717 -3.2430 -1.3833
  190SLPC   H8Y22013   4.796   3.554   7.672 -0.3636 -0.9342 -0.8945
  190SLPC   C3922014   4.887   3.387   7.784  0.2158  0.2090  0.5890
  190SLPC   H9X22015   4.976   3.447   7.812 -0.2642  0.5532  1.4045
  190SLPC   H9Y22016   4.916   3.281   7.775 -0.9607 -0.0557 -0.4336
  190SLPC  C31022017   4.788   3.400   7.898 -0.1488 -0.4666  0.1896
  190SLPC  H10X22018   4.696   3.350   7.860 -0.8675 -0.1715  1.5050
  190SLPC  H10Y22019   4.763   3.507   7.916  0.3767 -0.6189  1.9957
  190SLPC  C31122020   4.814   3.325   8.028 -0.4683  0.9383 -0.6394
  190SLPC  H11X22021   4.895   3.378   8.083  0.6147  0.1944 -1.4715
  190SLPC  H11Y22022   4.854   3.222   8.016  0.3586  0.8500  2.1140
  190SLPC  C31222023   4.696   3.324   8.127 -0.5200 -0.1670  0.7435
  190SLPC  H12X22024   4.723   3.240   8.194 -0.2027 -1.8831 -1.4230
  190SLPC  H12Y22025   4.595   3.307   8.085 -0.3262  0.8870 -0.1927
  190SLPC  C31322026   4.689   3.455   8.216 -0.1836  0.4226  0.1029
  190SLPC  H13X22027   4.706   3.542   8.149  0.5862  0.5568  0.4718
  190SLPC  H13Y22028   4.772   3.464   8.289  0.2798 -0.5636 -0.2833
  190SLPC  C31422029   4.547   3.469   8.283 -0.7886 -0.6812  0.3157
  190SLPC  H14X22030   4.499   3.370   8.301 -0.8529 -0.5384  0.9911
  190SLPC  H14Y22031   4.485   3.527   8.212 -2.1113  1.8935  3.3027
  190SLPC  C31522032   4.548   3.561   8.409  0.0512 -0.0232 -0.0033
  190SLPC  H15X22033   4.577   3.660   8.367 -1.5301  0.3775 -0.2073
  190SLPC  H15Y22034   4.632   3.523   8.472 -1.4973 -1.2411  1.4141
  190SLPC  C31622035   4.415   3.568   8.486  0.1245 -0.4211 -0.1944
  190SLPC  H16X22036   4.355   3.474   8.480 -2.9907  1.5129 -3.4685
  190SLPC  H16Y22037   4.348   3.626   8.419  2.0323  0.4892 -1.4081
  190SLPC  C31722038   4.418   3.612   8.629 -0.6908  0.6778  0.1032
  190SLPC  H17X22039   4.456   3.539   8.703 -1.5464  1.7139  1.6241
  190SLPC  H17Y22040   4.315   3.622   8.669  0.1564 -0.7869  2.8928
  190SLPC  C31822041   4.483   3.749   8.658  0.5505 -0.3904  0.2327
  190SLPC  H18X22042   4.570   3.769   8.592 -0.2575 -0.7349 -0.9717
  190SLPC  H18Y22043   4.527   3.762   8.759  2.0202  0.5932 -0.4940
  190SLPC  H18Z22044   4.416   3.835   8.635  1.3751 -0.1173 -1.3370
  191SLPC     N22045   6.035   4.793   5.757  0.6410 -0.1564 -0.1342
  191SLPC   C1322046   5.909   4.870   5.733 -0.4217 -0.6679 -1.0375
  191SLPC  H13A22047   5.818   4.820   5.761 -0.8149  0.3095 -0.5175
  191SLPC  H13B22048   5.920   4.959   5.794  0.1255 -0.7910 -0.9515
  191SLPC  H13C22049   5.902   4.891   5.627 -3.4460 -0.5305 -0.8945
  191SLPC   C1422050   6.161   4.860   5.727  0.1610  0.1224  0.1429
  191SLPC  H14A22051   6.170   4.902   5.627 -0.4907 -0.0223  0.0192
  191SLPC  H14B22052   6.194   4.942   5.789  3.0721  0.9514 -2.2213
  191SLPC  H14C22053   6.250   4.801   5.744  0.9453  1.8310  2.4246
  191SLPC   C1522054   6.030   4.670   5.672 -0.2651  0.4753  0.4913
  191SLPC  H15A22055   6.103   4.595   5.697 -0.3694 -0.1317 -0.9289
  191SLPC  H15B22056   5.933   4.622   5.684  0.2756 -0.5429  0.9316
  191SLPC  H15C22057   6.049   4.697   5.569  3.3916  2.9177  1.6242
  191SLPC   C1222058   6.041   4.749   5.904  0.3380  0.1842  0.0006
  191SLPC  H12A22059   6.113   4.669   5.914  2.1390  1.8476  1.0777
  191SLPC  H12B22060   5.942   4.718   5.933  0.3458  0.1562 -0.0039
  191SLPC   C1122061   6.061   4.859   6.023  0.4983  0.1346  0.1350
  191SLPC  H11A22062   6.156   4.911   6.001 -0.5571  1.7345 -0.8691
  191SLPC  H11B22063   6.068   4.803   6.119  1.2468  0.0276  0.0236
  191SLPC     P22064   5.820   4.912   6.103  0.3914  0.3334 -0.0298
  191SLPC   O1322065   5.713   5.012   6.077  0.2266  0.1098  0.5403
  191SLPC   O1422066   5.795   4.767   6.071 -0.2402  0.1178  0.2268
  191SLPC   O1222067   5.945   4.953   6.027 -0.8401 -0.0104  0.1633
  191SLPC   O1122068   5.864   4.928   6.255 -0.2558 -0.2271 -0.1230
  191SLPC    C122069   5.912   5.055   6.297 -0.6548 -0.2120  0.3566
  191SLPC    HA22070   5.917   5.130   6.214  0.8849 -1.0096 -0.3054
  191SLPC    HB22071   5.837   5.092   6.370  0.8497  0.7976  1.4567
  191SLPC    C222072   6.049   5.064   6.363 -0.2826 -0.0313 -0.7520
  191SLPC    HS22073   6.130   5.010   6.309  0.2658  0.2678 -0.2370
  191SLPC   O2122074   6.043   5.012   6.495  0.3677  0.3641  0.1918
  191SLPC   C2122075   6.074   4.881   6.507  0.0382 -0.2577 -0.3614
  191SLPC   O2222076   6.119   4.811   6.420  0.2326  0.5105  0.0062
  191SLPC   C2222077   6.049   4.824   6.645  0.0820 -0.4419 -0.4989
  191SLPC   H2R22078   5.994   4.728   6.635 -1.1194  0.2605 -0.8783
  191SLPC   H2S22079   6.149   4.797   6.686 -0.9065 -1.3407  1.4644
  191SLPC    C322080   6.096   5.216   6.383  0.3600 -0.5313 -0.0161
  191SLPC    HX22081   6.088   5.256   6.280 -3.2602 -1.6879 -0.3244
  191SLPC    HY22082   6.199   5.226   6.422  0.3470 -1.7125  0.3512
  191SLPC   O3122083   5.999   5.294   6.453  0.1091 -0.1131  0.3241
  191SLPC   C3122084   6.024   5.287   6.589  0.5609 -0.3008  1.3278
  191SLPC   O3222085   6.130   5.248   6.637 -0.6017 -0.4737 -0.5813
  191SLPC   C3222086   5.900   5.334   6.668  0.2767 -0.6329 -0.8101
  191SLPC   H2X22087   5.850   5.418   6.614 -1.6702  0.2866  2.1951
  191SLPC   H2Y22088   5.930   5.372   6.767 -2.6881 -0.9580  0.3305
  191SLPC   C2322089   5.975   4.911   6.743 -0.2159 -0.7887  0.4270
  191SLPC   H3R22090   5.873   4.936   6.706 -1.2372 -1.2126  2.7484
  191SLPC   H3S22091   6.032   5.006   6.751 -0.8214  0.1579 -4.0723
  191SLPC   C2422092   5.952   4.857   6.882 -0.2297  0.1206 -0.6067
  191SLPC   H4R22093   6.035   4.794   6.923 -2.2665 -1.6606  1.0248
  191SLPC   H4S22094   5.879   4.775   6.864  1.6017 -1.2197 -2.5159
  191SLPC   C2522095   5.901   4.957   6.988 -0.2737 -0.1466  0.8615
  191SLPC   H5R22096   5.804   5.002   6.958  0.2504 -1.2651 -3.1405
  191SLPC   H5S22097   5.970   5.044   6.991  1.2708 -1.1738 -1.6256
  191SLPC   C2622098   5.877   4.882   7.122 -0.1917 -0.9231  0.6976
  191SLPC   H6R22099   5.977   4.853   7.161  0.5475  2.0519  1.3443
  191SLPC   H6S22100   5.825   4.790   7.090 -0.2183 -0.7318  0.1886
  191SLPC   C2722101   5.812   4.970   7.224  0.2105 -0.7610  0.0856
  191SLPC   H7R22102   5.713   4.991   7.179  1.4213  0.9760 -1.9705
  191SLPC   H7S22103   5.865   5.063   7.254  0.6166 -1.5054  1.8021
  191SLPC   C2822104   5.788   4.884   7.353  0.5286  0.0715 -0.3350
  191SLPC   H8R22105   5.885   4.842   7.386  0.4129  1.1946  1.5906
  191SLPC   H8S22106   5.710   4.806   7.336 -0.5211  1.1041 -0.4151
  191SLPC   C2922107   5.732   4.971   7.470  0.6926  0.4230 -0.3505
  191SLPC   H9R22108   5.641   5.026   7.442  0.6519 -0.4299 -2.0742
  191SLPC  C21022109   5.787   4.984   7.590 -0.2245 -0.2203  0.1612
  191SLPC  H10R22110   5.737   5.044   7.668 -1.4849 -1.9291  0.7433
  191SLPC  C21122111   5.916   4.921   7.645  0.1191  1.1619 -0.2040
  191SLPC  H11R22112   5.961   4.854   7.569 -1.1929 -0.1742  0.1660
  191SLPC  H11S22113   5.894   4.853   7.730  1.3410  0.8485 -0.1231
  191SLPC  C21222114   6.018   5.019   7.682  0.1227 -0.0081 -0.3248
  191SLPC  H12R22115   6.086   5.049   7.601  0.6050  1.9801  0.7726
  191SLPC  C21322116   6.041   5.066   7.808  0.1478  0.2088  0.2188
  191SLPC  H13R22117   6.129   5.132   7.817 -0.5862  1.4812 -1.4239
  191SLPC  C21422118   5.964   5.026   7.926  0.3523  0.6760  0.0379
  191SLPC  H14R22119   5.877   4.963   7.897  0.7059  1.0654 -2.0019
  191SLPC  H14S22120   5.911   5.113   7.971 -0.6966  0.3250 -0.4934
  191SLPC  C21522121   6.049   4.949   8.025 -0.0726  0.6253  0.4550
  191SLPC  H15R22122   6.088   4.864   7.963  0.9480  2.0570 -0.9597
  191SLPC  H15S22123   5.983   4.915   8.107  1.0148  2.3784  2.1534
  191SLPC  C21622124   6.172   5.012   8.085 -0.0693 -0.4912  0.7317
  191SLPC  H16R22125   6.146   5.115   8.119 -1.5318 -0.2635 -0.9206
  191SLPC  H16S22126   6.262   5.012   8.020  0.1745  0.6489  1.0335
  191SLPC  C21722127   6.196   4.951   8.228  0.0592  0.0531 -0.3610
  191SLPC  H17R22128   6.099   4.926   8.277 -0.1940 -0.4085 -1.0836
  191SLPC  H17S22129   6.263   5.012   8.292  1.8955  0.6589 -2.7332
  191SLPC  C21822130   6.263   4.810   8.211 -0.0734  0.4069  1.2205
  191SLPC  H18R22131   6.192   4.734   8.170  1.7056 -1.0419  0.7139
  191SLPC  H18S22132   6.298   4.769   8.308  0.9752 -1.1858  0.2267
  191SLPC  H18T22133   6.348   4.805   8.140 -1.0232  1.8216 -0.0779
  191SLPC   C3322134   5.791   5.218   6.681  0.0018  1.0686  0.0317
  191SLPC   H3X22135   5.832   5.140   6.749  0.1054  1.7168  0.7180
  191SLPC   H3Y22136   5.769   5.164   6.586  1.6113 -0.5351  0.5014
  191SLPC   C3422137   5.651   5.258   6.725 -0.1759  0.3637 -0.1187
  191SLPC   H4X22138   5.575   5.178   6.728 -0.3416  0.5003 -0.6483
  191SLPC   H4Y22139   5.607   5.321   6.645  2.6485  2.3805 -0.2285
  191SLPC   C3522140   5.642   5.346   6.858 -0.1070  0.0836 -0.3491
  191SLPC   H5X22141   5.552   5.411   6.867 -1.0142 -1.0525 -0.8055
  191SLPC   H5Y22142   5.730   5.413   6.864  0.8848 -1.3044  1.6339
  191SLPC   C3622143   5.654   5.262   6.990 -0.1356 -0.6664 -0.3114
  191SLPC   H6X22144   5.751   5.209   7.003  0.5970  0.4631 -1.0974
  191SLPC   H6Y22145   5.572   5.186   6.996 -0.2167 -0.5361  0.4073
  191SLPC   C3722146   5.629   5.364   7.112 -0.3285 -0.6842 -0.2049
  191SLPC   H7X22147   5.536   5.424   7.116  0.2720  0.2144  2.4960
  191SLPC   H7Y22148   5.704   5.446   7.101  0.2471 -1.3261 -1.3773
  191SLPC   C3822149   5.656   5.312   7.253  0.5620  0.1542 -0.6148
  191SLPC   H8X22150   5.758   5.272   7.273  0.9619  1.3620 -0.1045
  191SLPC   H8Y22151   5.589   5.226   7.269  1.6975 -0.6611 -0.0473
  191SLPC   C3922152   5.629   5.414   7.363  0.4674  0.2126  0.0663
  191SLPC   H9X22153   5.521   5.438   7.356 -0.2408 -2.3207  1.2323
  191SLPC   H9Y22154   5.688   5.506   7.345  0.0624  0.1672 -1.7063
  191SLPC  C31022155   5.653   5.365   7.509 -0.2890 -0.1250  0.4810
  191SLPC  H10X22156   5.758   5.335   7.531 -0.2578 -1.7816 -1.5967
  191SLPC  H10Y22157   5.582   5.282   7.527 -1.2777  0.4118 -0.7279
  191SLPC  C31122158   5.621   5.477   7.615 -0.1094 -0.0451  0.4778
  191SLPC  H11X22159   5.519   5.518   7.597 -0.2146 -0.8487 -0.9231
  191SLPC  H11Y22160   5.692   5.562   7.607  1.1091 -1.0613  0.2987
  191SLPC  C31222161   5.634   5.422   7.758 -0.5597  0.4887 -0.2733
  191SLPC  H12X22162   5.742   5.411   7.780 -1.0005 -1.6803  1.1544
  191SLPC  H12Y22163   5.595   5.318   7.771  0.3732  0.1081 -0.4348
  191SLPC  C31322164   5.558   5.513   7.857  0.8783 -0.2766  0.5419
  191SLPC  H13X22165   5.453   5.508   7.823  1.2250 -0.8047 -0.4870
  191SLPC  H13Y22166   5.598   5.612   7.825 -1.0577  0.4622  0.3242
  191SLPC  C31422167   5.571   5.507   8.012 -0.1920 -0.0560  0.4755
  191SLPC  H14X22168   5.511   5.587   8.059  0.7626  1.6073 -1.0174
  191SLPC  H14Y22169   5.676   5.533   8.038  0.7617 -2.1877 -0.9632
  191SLPC  C31522170   5.540   5.367   8.064 -0.3345 -0.1799 -0.6420
  191SLPC  H15X22171   5.626   5.311   8.021  0.7961 -0.8609  2.2763
  191SLPC  H15Y22172   5.440   5.345   8.021 -1.4138  0.3615  1.4652
  191SLPC  C31622173   5.525   5.371   8.222  0.3745  0.0890 -1.0359
  191SLPC  H16X22174   5.463   5.285   8.256  0.5787  0.7387  1.1202
  191SLPC  H16Y22175   5.473   5.461   8.260  0.2592 -1.2811  2.4167
  191SLPC  C31722176   5.657   5.350   8.306  0.2109 -0.3301  0.3172
  191SLPC  H17X22177   5.738   5.416   8.268 -0.5602  0.6665  0.3915
  191SLPC  H17Y22178   5.702   5.248   8.295  2.3079  0.7003 -1.4021
  191SLPC  C31822179   5.622   5.381   8.454  0.1452 -0.1319 -0.1649
  191SLPC  H18X22180   5.711   5.377   8.520 -0.5969 -0.4033  0.8463
  191SLPC  H18Y22181   5.540   5.315   8.489 -0.9944  2.4419  2.4788
  191SLPC  H18Z22182   5.587   5.486   8.465  2.3897  0.4765  1.9598
  192SLPC     N22183   6.105   5.568   5.768  0.4410  1.0733 -0.6746
  192SLPC   C1322184   6.165   5.506   5.884  0.1096 -0.2924  0.2453
  192SLPC  H13A22185   6.116   5.536   5.976 -0.6290 -2.0762  0.4708
  192SLPC  H13B22186   6.163   5.399   5.872 -0.9823 -0.4951  1.9425
  192SLPC  H13C22187   6.271   5.522   5.899  0.1290 -0.3066  0.1209
  192SLPC   C1422188   5.962   5.523   5.766  0.1972  0.0166  0.1614
  192SLPC  H14A22189   5.963   5.416   5.758  1.4796 -0.0132  0.5048
  192SLPC  H14B22190   5.907   5.542   5.857  0.0434 -1.8933  0.5144
  192SLPC  H14C22191   5.909   5.563   5.681  1.6724 -2.3291 -1.9843
  192SLPC   C1522192   6.177   5.530   5.642  0.7952  0.0279  0.0007
  192SLPC  H15A22193   6.167   5.424   5.622 -1.2372  0.8031 -4.2239
  192SLPC  H15B22194   6.137   5.578   5.554 -0.1973  1.6403  1.2694
  192SLPC  H15C22195   6.282   5.556   5.634  0.1859  2.2033 -2.2277
  192SLPC   C1222196   6.104   5.721   5.782  0.1130  0.3901 -0.2510
  192SLPC  H12A22197   6.052   5.762   5.696  1.4147  1.9378 -0.3371
  192SLPC  H12B22198   6.200   5.770   5.775  0.9968 -1.1863  0.2848
  192SLPC   C1122199   6.046   5.784   5.916 -0.0080  0.4080  0.3476
  192SLPC  H11A22200   6.067   5.893   5.926  2.1949  0.1089 -0.3652
  192SLPC  H11B22201   6.118   5.731   5.982  0.0619  2.2216  1.8081
  192SLPC     P22202   5.867   5.738   6.095  0.7730 -0.0984 -0.0214
  192SLPC   O1322203   5.721   5.727   6.107 -0.4929 -0.5958  0.6502
  192SLPC   O1422204   5.947   5.630   6.153  0.4469  0.0884  0.6664
  192SLPC   O1222205   5.907   5.746   5.941  0.0620 -0.1695 -0.7518
  192SLPC   O1122206   5.901   5.883   6.154  0.3788  0.7382  0.4811
  192SLPC    C122207   5.999   5.896   6.250 -0.0541  0.2262  0.1103
  192SLPC    HA22208   6.092   5.841   6.227  0.4954  0.3861  1.8456
  192SLPC    HB22209   6.047   5.996   6.250 -1.0054  0.7716  2.5771
  192SLPC    C222210   5.926   5.870   6.387  0.4864 -0.6610  0.2956
  192SLPC    HS22211   5.874   5.772   6.389 -0.7801 -0.0117  0.0470
  192SLPC   O2122212   5.843   5.978   6.424 -0.0757  0.0145 -0.2057
  192SLPC   C2122213   5.744   5.955   6.508  0.6555 -0.3428 -0.1678
  192SLPC   O2222214   5.697   5.851   6.536  0.2732  0.5634 -0.1358
  192SLPC   C2222215   5.678   6.093   6.557 -0.3853  0.9681 -0.1050
  192SLPC   H2R22216   5.713   6.170   6.486 -2.1996  0.5035 -1.5654
  192SLPC   H2S22217   5.569   6.085   6.538 -0.2992  1.1185 -0.6522
  192SLPC    C322218   6.026   5.859   6.498 -0.7386 -0.3088  0.4125
  192SLPC    HX22219   6.085   5.953   6.496 -2.9020  1.1233 -1.2046
  192SLPC    HY22220   6.090   5.772   6.473 -0.8452  0.1880 -1.8733
  192SLPC   O3122221   5.960   5.842   6.626  0.6024 -0.3756  0.0576
  192SLPC   C3122222   5.951   5.721   6.670 -0.0013 -0.5084  0.5773
  192SLPC   O3222223   5.988   5.625   6.609  0.2612  0.3144  0.1281
  192SLPC   C3222224   5.882   5.716   6.810 -0.7331 -0.4902 -0.1475
  192SLPC   H2X22225   5.864   5.609   6.833  0.8742 -0.3434  2.1643
  192SLPC   H2Y22226   5.790   5.775   6.792  0.7343  1.2603 -2.5987
  192SLPC   C2322227   5.719   6.139   6.702  0.3270 -0.5080 -0.0173
  192SLPC   H3R22228   5.734   6.249   6.703  0.4065 -0.5194  0.0296
  192SLPC   H3S22229   5.810   6.090   6.743 -0.1104  0.6960  2.6165
  192SLPC   C2422230   5.602   6.119   6.793 -0.5954 -0.3260 -0.3844
  192SLPC   H4R22231   5.583   6.009   6.790  0.5967 -0.7161  2.7558
  192SLPC   H4S22232   5.515   6.176   6.754 -1.8360 -1.7772  0.1495
  192SLPC   C2522233   5.633   6.165   6.941  0.4327  0.4647 -0.1429
  192SLPC   H5R22234   5.654   6.274   6.938 -0.9226  0.7304 -1.7079
  192SLPC   H5S22235   5.722   6.115   6.985 -0.3960  1.8747  3.4494
  192SLPC   C2622236   5.528   6.127   7.042  0.4933  0.4748  1.2569
  192SLPC   H6R22237   5.483   6.033   7.002  2.0626  0.6249 -1.0539
  192SLPC   H6S22238   5.435   6.185   7.024  0.2068 -0.0219  1.1171
  192SLPC   C2722239   5.567   6.123   7.186  0.1393  0.2902  0.4303
  192SLPC   H7R22240   5.612   6.218   7.223 -0.8986  0.0097  2.5389
  192SLPC   H7S22241   5.641   6.041   7.193  1.3132  1.1254 -1.4087
  192SLPC   C2822242   5.446   6.089   7.277  0.1732 -0.9266  0.5330
  192SLPC   H8R22243   5.475   6.062   7.380  1.4436 -0.3142  0.3434
  192SLPC   H8S22244   5.402   6.004   7.220 -1.4306 -0.3923  0.9194
  192SLPC   C2922245   5.342   6.205   7.278  0.0877  0.2800 -0.4300
  192SLPC   H9R22246   5.303   6.245   7.183 -2.1804  0.2328  0.4106
  192SLPC  C21022247   5.277   6.260   7.383  0.2163 -0.0359 -0.1217
  192SLPC  H10R22248   5.211   6.347   7.369 -0.0951 -0.3863 -0.9164
  192SLPC  C21122249   5.303   6.226   7.528  0.0626  0.1336  0.6976
  192SLPC  H11R22250   5.412   6.204   7.530 -0.0834 -0.6364  0.4176
  192SLPC  H11S22251   5.256   6.130   7.558  0.4119  0.3007  1.8527
  192SLPC  C21222252   5.277   6.353   7.613 -0.2841  0.3853  0.2261
  192SLPC  H12R22253   5.360   6.424   7.597 -0.5389  0.9577  1.3872
  192SLPC  C21322254   5.178   6.377   7.700  0.4213 -0.1583  0.4016
  192SLPC  H13R22255   5.166   6.473   7.753  0.2279  0.5617 -0.9052
  192SLPC  C21422256   5.067   6.284   7.740 -0.8940  0.1498 -0.3142
  192SLPC  H14R22257   5.077   6.182   7.698 -2.2430 -0.5075  0.8907
  192SLPC  H14S22258   4.966   6.315   7.706 -1.4683 -3.8298 -2.9365
  192SLPC  C21522259   5.072   6.273   7.891 -0.3348  0.7654 -0.1851
  192SLPC  H15R22260   5.045   6.374   7.930 -0.5566  1.0327 -1.0223
  192SLPC  H15S22261   5.166   6.238   7.937 -1.1340 -0.3292  0.6839
  192SLPC  C21622262   4.959   6.176   7.942  0.1773  0.2968 -0.1270
  192SLPC  H16R22263   4.953   6.190   8.052  3.4062 -1.3972  0.3846
  192SLPC  H16S22264   4.997   6.073   7.928 -1.9151 -0.4654 -0.6784
  192SLPC  C21722265   4.826   6.178   7.875  0.3395  0.2815  0.6727
  192SLPC  H17R22266   4.828   6.161   7.766 -1.5314  0.7596  0.5272
  192SLPC  H17S22267   4.762   6.100   7.922  0.4065  0.2845  0.7693
  192SLPC  C21822268   4.759   6.317   7.892 -0.4393 -0.0223 -0.0640
  192SLPC  H18R22269   4.669   6.321   7.826  0.0029  0.4003 -0.6487
  192SLPC  H18S22270   4.832   6.395   7.862  0.7280 -2.0842 -3.1340
  192SLPC  H18T22271   4.717   6.335   7.993  2.1035  1.7892  0.7608
  192SLPC   C3322272   5.949   5.782   6.936 -0.6558  0.4318  0.7010
  192SLPC   H3X22273   5.941   5.891   6.918 -1.9304  0.0901 -1.1938
  192SLPC   H3Y22274   6.056   5.756   6.945 -0.3531  1.7598  1.1372
  192SLPC   C3422275   5.874   5.756   7.064 -0.3397  0.0968  0.4359
  192SLPC   H4X22276   5.894   5.649   7.086  0.2379  0.1629  0.2552
  192SLPC   H4Y22277   5.766   5.761   7.040 -0.2475 -0.1823 -0.0418
  192SLPC   C3522278   5.919   5.841   7.179  0.2380  0.6301 -0.6739
  192SLPC   H5X22279   5.898   5.945   7.146 -0.0756  1.2824  1.4358
  192SLPC   H5Y22280   6.027   5.833   7.202  0.3934 -1.1882 -1.8591
  192SLPC   C3622281   5.839   5.829   7.315 -0.1717 -0.3178 -0.3273
  192SLPC   H6X22282   5.854   5.723   7.347  2.2092  0.2698  0.6537
  192SLPC   H6Y22283   5.732   5.848   7.289 -0.4893 -1.0592  0.3793
  192SLPC   C3722284   5.888   5.923   7.418  0.2981 -0.0710 -0.1961
  192SLPC   H7X22285   5.877   6.025   7.373 -2.3254 -0.0631  0.2767
  192SLPC   H7Y22286   5.996   5.909   7.439  0.2874 -1.2502 -0.8473
  192SLPC   C3822287   5.806   5.908   7.546 -0.1292  0.1160 -0.4151
  192SLPC   H8X22288   5.739   5.820   7.531  0.9445 -0.6940 -0.5935
  192SLPC   H8Y22289   5.746   5.999   7.567 -1.2188 -0.6114 -0.2849
  192SLPC   C3922290   5.908   5.882   7.662 -0.7957  0.3106  0.1186
  192SLPC   H9X22291   5.962   5.976   7.689  1.4626  0.0620 -3.0075
  192SLPC   H9Y22292   5.981   5.802   7.639 -0.8109 -0.4746  2.5237
  192SLPC  C31022293   5.833   5.841   7.785 -0.1955 -0.4504  0.1757
  192SLPC  H10X22294   5.787   5.741   7.780 -0.5330 -0.3464  0.9249
  192SLPC  H10Y22295   5.739   5.900   7.783 -1.0061 -1.7358 -0.6758
  192SLPC  C31122296   5.922   5.846   7.909  0.1953 -0.1619  0.2886
  192SLPC  H11X22297   5.989   5.934   7.908 -0.9122  0.7787  2.0935
  192SLPC  H11Y22298   5.996   5.763   7.911  1.6317  0.8845 -2.9270
  192SLPC  C31222299   5.851   5.833   8.035  0.9632 -0.1650 -0.8387
  192SLPC  H12X22300   5.791   5.740   8.027 -0.2197  0.4632  0.3236
  192SLPC  H12Y22301   5.776   5.909   8.065 -0.4168 -2.0314  0.8066
  192SLPC  C31322302   5.943   5.837   8.156 -0.3817 -0.1292 -0.2071
  192SLPC  H13X22303   5.992   5.937   8.146 -3.6166  1.8708  1.9063
  192SLPC  H13Y22304   6.026   5.763   8.153 -0.5430 -0.2867 -0.9490
  192SLPC  C31422305   5.864   5.820   8.281  0.7567  0.7415 -0.2273
  192SLPC  H14X22306   5.794   5.737   8.255  0.4574  0.9840 -0.2098
  192SLPC  H14Y22307   5.796   5.906   8.297  1.1852  0.7319  1.8442
  192SLPC  C31522308   5.934   5.790   8.410  0.1570 -0.1644 -0.3879
  192SLPC  H15X22309   5.965   5.891   8.445  0.4302 -0.7123  1.0405
  192SLPC  H15Y22310   6.024   5.728   8.390  2.3734  2.0481  1.9856
  192SLPC  C31622311   5.848   5.708   8.500  0.3905 -0.2662 -0.3854
  192SLPC  H16X22312   5.838   5.600   8.478  0.1474 -0.3313  0.0272
  192SLPC  H16Y22313   5.745   5.748   8.499 -0.0487 -1.0677  2.4369
  192SLPC  C31722314   5.885   5.714   8.650 -0.0089  0.2191 -0.2239
  192SLPC  H17X22315   5.882   5.815   8.698  2.7967  0.4539 -0.3818
  192SLPC  H17Y22316   5.994   5.693   8.660  0.0060  0.5969  0.4867
  192SLPC  C31822317   5.803   5.626   8.742 -0.4466  0.2134  0.4061
  192SLPC  H18X22318   5.818   5.519   8.716 -0.6386  0.3118 -0.1161
  192SLPC  H18Y22319   5.694   5.647   8.738 -0.4137  0.1595 -1.9486
  192SLPC  H18Z22320   5.832   5.635   8.849 -1.1507  1.6727  0.4982
  193SOD    SOD22321   2.099   3.308  13.997  0.4025 -0.1548 -0.1571
  194SOD    SOD22322   3.426   2.042  16.494 -0.0739  0.0757  0.0841
  195SOD    SOD22323   4.017   5.945  14.442  0.1528  0.0379  0.6966
  196SOD    SOD22324   3.724   3.871  16.235  0.2044 -0.5509  0.0554
  197SOD    SOD22325   4.866   1.425   3.782  0.4043  0.0323 -0.5173
  198SOD    SOD22326   1.988   5.193   3.726 -0.1613  0.6602  0.0304
  199SOD    SOD22327   2.186   1.756  13.411 -0.3047  0.2697 -0.3106
  200SOD    SOD22328   0.418   2.007  11.182  0.0613 -0.3840  0.2890
  201SOD    SOD22329   4.476   1.198  10.981 -0.0489  0.0561 -0.2694
  202SOD    SOD22330   4.773   0.346   5.833 -0.2031  0.5643  0.0327
  203SOD    SOD22331   5.959   0.252   3.761 -0.1264 -0.2586 -0.0061
  204SOD    SOD22332   0.803   5.769   4.471  0.0583  0.1742 -0.0893
  205SOD    SOD22333   5.531   0.402  10.958 -0.5614 -0.2866 -0.0094
  206SOD    SOD22334   4.895   1.054   1.820 -0.1477  0.0671 -0.0569
  207SOD    SOD22335   4.485   3.170   5.652  0.0337  0.1106  0.0034
  208SOD    SOD22336   5.692   0.254   2.535  0.2049  0.2448  0.0487
  209SOD    SOD22337   3.753   5.665   4.041 -0.2277  0.1984  0.0937
  210SOD    SOD22338   2.279   4.950  11.945 -0.6807  0.1415  0.2894
  211SOD    SOD22339   6.286   4.759  13.578 -0.2223 -0.0271 -0.1971
  212SOD    SOD22340   2.377   0.620  15.430  0.3970  0.2281  0.3178
  213SOD    SOD22341   3.896   4.375   1.547 -0.2353 -0.0930 -0.2644
  214SOD    SOD22342   5.996   6.586   3.753  0.0817 -0.2058 -0.3095
  215SOD    SOD22343   5.636   3.646  16.638  0.3723 -0.1154 -0.1836
  216SOD    SOD22344   3.138   0.438  11.958 -0.1054  0.1223 -0.1813
  217SOD    SOD22345   6.777   4.176  11.751 -0.2445 -0.3815 -0.2028
  218SOD    SOD22346   0.035   4.882   1.367 -0.1976  0.4162  0.1794
  219SOD    SOD22347   3.182   2.216  11.458  0.1235  0.0553 -0.2105
  220SOD    SOD22348   2.582   0.788  16.300 -0.0557 -0.3176 -0.0794
  221SOD    SOD22349   5.358   3.141  16.168  0.5404  0.4375 -0.2040
  222SOD    SOD22350   1.017   3.726   0.671 -0.1432  0.2167 -0.0869
  223SOD    SOD22351   6.378   3.246  11.402  0.0216  0.1187  0.0190
  224SOD    SOD22352   4.382   2.224  12.552 -0.1541  0.1743  0.0581
  225SOD    SOD22353   0.983   4.243  14.946  0.0277  0.0609 -0.6120
  226SOD    SOD22354   5.925   0.285   5.928 -0.0517 -0.0289  0.5578
  227SOD    SOD22355   6.562   6.012  15.357 -0.0007 -0.3778  0.2267
  228SOD    SOD22356   0.678   5.490  10.770  0.0583  0.2968 -0.2323
  229SOD    SOD22357   0.821   3.445   3.364 -0.3473  0.4290 -0.1654
  230SOD    SOD22358   6.143   2.966   4.731  0.0075  0.1545 -0.2564
  231SOD    SOD22359   3.436   4.918  12.454 -0.5088  0.0118  0.0539
  232SOD    SOD22360   2.189   5.989   5.174  0.0817  0.4647 -0.1571
  233SOD    SOD22361   1.061   4.121  16.418  0.6038  0.3138 -0.2342
  234SOD    SOD22362   5.614   1.722   5.465  0.2129  0.1118 -0.1628
  235SOD    SOD22363   6.101   4.370   5.282  0.0975  0.0099 -0.3842
  236SOD    SOD22364   6.183   3.276   3.713  0.1470 -0.5250  0.0292
  237SOD    SOD22365   6.509   3.653   6.360 -0.3713  0.0884 -0.4602
  238SOD    SOD22366   4.541   4.716   2.574  0.0469  0.0805  0.2337
  239SOD    SOD22367   0.274   4.625   2.267  0.5366  0.2040  0.4671
  240SOD    SOD22368   0.920   1.138   2.025 -0.2063  0.3203  0.0908
  241SOD    SOD22369   1.024   0.658  13.614  0.7818 -0.2388 -0.2773
  242SOD    SOD22370   0.141   1.771   0.700  0.0196 -0.3921 -0.1936
  243SOD    SOD22371   6.292   0.382  11.900  0.6025 -0.2673 -0.2399
  244SOD    SOD22372   4.467   6.064   4.793 -0.6982  0.0325 -0.1745
  245SOD    SOD22373   1.736   5.235  12.263 -0.0868  0.2688  0.4253
  246SOD    SOD22374   3.612   5.591   6.197  0.7807  0.5494  0.3587
  247SOD    SOD22375   5.272   6.221   2.275 -0.3574 -0.9650 -0.4850
  248SOD    SOD22376   1.216   3.093   1.676  0.5914  0.3007 -0.3131
  249SOD    SOD22377   5.416   0.079  14.101 -0.4460 -0.0714  0.4931
  250SOD    SOD22378   6.085   1.263   5.585 -0.3847 -0.2469 -0.0828
  251SOD    SOD22379   2.823   5.053   1.718  0.3382 -0.3008 -0.1429
  252SOD    SOD22380   3.835   0.410  17.016  0.3095  0.2382  0.3281
  253SOD    SOD22381   0.115   6.350   2.630 -0.3656  0.3950  0.4058
  254SOD    SOD22382   3.202   3.313   6.172 -0.2281 -0.2499  0.0158
  255SOD    SOD22383   3.750   0.721   6.184 -0.3923 -0.2732 -0.2277
  256SOD    SOD22384   4.623   1.515  13.732  0.0506  0.3475  0.0008
  257SOD    SOD22385   1.776   3.511  11.618  0.3188 -0.3207  0.0021
  258SOD    SOD22386   3.704   1.658  15.496 -0.3030 -0.0439 -0.0867
  259SOD    SOD22387   2.792   1.239  16.523  0.2162  0.0014 -0.4301
  260SOD    SOD22388   3.354   2.672   1.217  0.7262  0.1556  0.3321
  261SOD    SOD22389   4.054   3.393  14.750  0.2832  0.5129 -0.3095
  262SOD    SOD22390   2.645   1.832   5.479  0.3572  0.5988  0.1978
  263SOD    SOD22391   0.870   4.350  11.773 -0.4629  0.3631 -0.3628
  264SOD    SOD22392   1.421   6.237  15.038  0.1671 -0.2687  0.5677
  265SOD    SOD22393   4.238   1.359  15.345 -0.4037 -0.2262  0.7221
  266CLA    CLA22394   1.567   4.906   2.134  0.1473 -0.1779 -0.5531
  267CLA    CLA22395   4.641   1.083  14.199  0.1189  0.0294  0.5477
  268CLA    CLA22396   5.572   6.447   0.056  0.3102 -0.0557  0.3419
  269CLA    CLA22397   4.858   2.406  14.209  0.0502  0.1831  0.1586
  270CLA    CLA22398   6.191   0.157  11.979 -0.0054 -0.5925  0.0236
  271CLA    CLA22399   5.169   0.614   3.855 -0.0725  0.1690 -0.1671
  272CLA    CLA22400   4.424   4.323   3.252 -0.3025 -0.1583 -0.2709
  273CLA    CLA22401   3.696   6.413   0.169  0.0861  0.0875  0.2248
  274CLA    CLA22402   6.196   6.589   2.053  0.1478 -0.3501 -0.5292
  275CLA    CLA22403   1.460   6.302  14.802 -0.0024  0.2755 -0.0396
  276CLA    CLA22404   6.245   1.845  12.665  0.5084  0.2330  0.0084
  277CLA    CLA22405   0.072   0.836   0.140  0.1496  0.2696 -0.4330
  278CLA    CLA22406   4.098   0.889  14.978 -0.2042 -0.1033  0.0352
  279CLA    CLA22407   5.383   5.706   2.254 -0.0129  0.3058  0.1503
  280CLA    CLA22408   2.699   5.118   3.705 -0.0764 -0.0274 -0.0268
  281CLA    CLA22409   6.529   1.896   5.491  0.1599  0.1809  0.1360
  282CLA    CLA22410   1.532   4.959   5.846  0.1388 -0.1206 -0.1522
  283CLA    CLA22411   4.040   3.749  17.049 -0.0063  0.1516  0.0228
  284CLA    CLA22412   0.521   2.852  15.675 -0.0350 -0.1609  0.1692
  285CLA    CLA22413   2.300   3.572  12.877 -0.1246  0.2196 -0.0064
  286CLA    CLA22414   5.449   3.975   3.169 -0.3337 -0.1317 -0.1349
  287CLA    CLA22415   3.054   2.083  16.261 -0.0404 -0.5117 -0.2166
  288CLA    CLA22416   3.099   1.804   2.725  0.0871  0.0831 -0.4890
  289CLA    CLA22417   0.579   6.363  15.251 -0.1594 -0.2305  0.2762
  290CLA    CLA22418   1.741   0.806   1.373 -0.0886  0.1557 -0.0896
  291CLA    CLA22419   5.002   3.133   3.078 -0.7371  0.1229 -0.0102
  292CLA    CLA22420   1.230   4.748  13.240  0.2192 -0.2069 -0.2086
  293CLA    CLA22421   5.660   1.038   4.290  0.4464 -0.3152 -0.3092
  294CLA    CLA22422   5.705   2.747   4.532  0.1157 -0.0792  0.0686
  295CLA    CLA22423   0.811   0.072   3.330  0.2297 -0.2266  0.0485
  296CLA    CLA22424   4.782   5.118  13.210  0.0609  0.0073  0.1672
  297CLA    CLA22425   4.907   0.967   3.614  0.0060  0.1051 -0.6452
  298CLA    CLA22426   4.526   1.704  15.758 -0.0733 -0.2237 -0.0532
  299CLA    CLA22427   1.523   4.082  16.796 -0.1915  0.1537 -0.2458
  300CLA    CLA22428   2.753   0.135  13.981 -0.0418  0.0644 -0.1208
  301CLA    CLA22429   0.265   2.545   2.427 -0.2580 -0.4655  0.1528
  302CLA    CLA22430   3.279   3.463   1.073 -0.4360 -0.0914 -0.1034
  303CLA    CLA22431   4.343   4.642   2.746  0.3206 -0.2849 -0.3713
  304CLA    CLA22432   5.692   2.961  14.692 -0.2305 -0.0450 -0.0342
  305CLA    CLA22433   1.624   3.504  12.240 -0.4075  0.3180 -0.0567
  306CLA    CLA22434   6.624   5.792   0.177  0.0955 -0.3443 -0.0571
  307CLA    CLA22435   3.785   2.050  16.856  0.2685  0.4581 -0.0026
  308CLA    CLA22436   4.104   0.225  13.374 -0.0953 -0.1524  0.0080
  309CLA    CLA22437   0.265   4.494  14.394  0.0625  0.1244  0.3023
  310CLA    CLA22438   1.303   3.863   4.581  0.2351 -0.0086 -0.4705
  311CLA    CLA22439   0.276   3.363   3.425 -0.2804 -0.2047  0.0596
  312CLA    CLA22440   6.299   0.206  16.819 -0.6285 -0.1701 -0.2057
  313CLA    CLA22441   4.281   3.797  15.088 -0.1422 -0.1034 -0.2764
  314CLA    CLA22442   1.144   4.811  11.464  0.1333  0.0439  0.0199
  315CLA    CLA22443   5.316   0.482   2.485 -0.2102  0.0020  0.1203
  316CLA    CLA22444   1.768   0.535  15.792  0.6516 -0.0443  0.3314
  317CLA    CLA22445   1.759   2.097  13.365  0.0479 -0.1571 -0.4648
  318CLA    CLA22446   1.855   5.141   3.317 -0.1781  0.0175  0.2516
  319TIP3   OH222447   1.788   3.985   3.371  0.3592 -0.2987 -0.1850
  319TIP3    H122448   1.814   4.016   3.285  2.3791 -2.2020 -0.3489
  319TIP3    H222449   1.870   3.963   3.415 -0.7528 -3.3543  0.6379
  320TIP3   OH222450   2.419   5.196  12.025  0.1777  0.5903  0.9927
  320TIP3    H122451   2.413   5.258  11.953  0.7822 -0.5120 -0.0431
  320TIP3    H222452   2.507   5.207  12.060  1.1677 -1.2294 -0.7119
  321TIP3   OH222453   5.193   2.316  11.071  0.2614  0.2150 -0.8173
  321TIP3    H122454   5.128   2.350  11.133  0.8755  1.0094 -0.5889
  321TIP3    H222455   5.150   2.241  11.031 -0.0123 -0.5948  0.8860
  322TIP3   OH222456   6.139   2.418  11.061 -0.0243  0.0347 -0.3102
  322TIP3    H122457   6.116   2.404  10.969 -2.3193  2.4389 -0.2060
  322TIP3    H222458   6.198   2.493  11.061  0.4300 -0.3114  0.1576
  323TIP3   OH222459   3.804   3.832   0.745  0.1974  0.1933  0.2038
  323TIP3    H122460   3.784   3.739   0.742  0.8191  0.0754 -1.0787
  323TIP3    H222461   3.840   3.846   0.832  0.7297 -0.9128  0.1812
  324TIP3   OH222462   4.832   5.117  16.469 -0.1266  0.1166 -0.2951
  324TIP3    H122463   4.869   5.099  16.555  0.7072  1.0706 -0.4366
  324TIP3    H222464   4.804   5.209  16.473 -2.2037 -0.4460 -0.3134
  325TIP3   OH222465   5.136   3.280   3.959 -0.7583 -0.1102 -0.1097
  325TIP3    H122466   5.071   3.339   3.920 -2.2064  1.9134  4.5993
  325TIP3    H222467   5.178   3.333   4.027  1.8653 -3.0535  0.7921
  326TIP3   OH222468   2.976   5.006   0.233  0.0184  0.0532  0.1722
  326TIP3    H122469   2.947   4.916   0.250  0.3441  0.1733  1.4702
  326TIP3    H222470   3.056   5.016   0.285  0.6914  0.7009 -0.9584
  327TIP3   OH222471   3.762   2.407   0.299 -0.5829 -0.7405  0.1130
  327TIP3    H122472   3.679   2.454   0.308 -1.0099 -1.7623  2.1154
  327TIP3    H222473   3.783   2.412   0.206 -1.2771  2.2208  0.0340
  328TIP3   OH222474   2.324   3.991   0.753 -0.3680 -1.2772 -0.1421
  328TIP3    H122475   2.411   3.954   0.765 -0.7646 -1.8949  0.9643
  328TIP3    H222476   2.324   4.072   0.803 -0.6806 -1.7096  0.5808
  329TIP3   OH222477   2.572   2.449   2.758 -0.1699 -0.6505 -0.1312
  329TIP3    H122478   2.626   2.421   2.683  0.9482  0.3716  0.2570
  329TIP3    H222479   2.488   2.471   2.719 -1.2009 -4.4191 -0.4723
  330TIP3   OH222480   0.142   5.673   4.003 -0.1464 -0.5834  0.2290
  330TIP3    H122481   0.105   5.708   3.923 -0.0689  0.8397  0.7950
  330TIP3    H222482   0.084   5.703   4.073 -0.2810 -1.8949  0.7191
  331TIP3   OH222483   2.473   2.890   5.891  0.8652 -0.7025 -0.0201
  331TIP3    H122484   2.508   2.951   5.956 -1.3902  0.3657  0.2825
  331TIP3    H222485   2.413   2.834   5.941 -0.5129 -0.2010 -1.0701
  332TIP3   OH222486   5.549   5.234   4.411 -0.0606  0.1663 -0.3882
  332TIP3    H122487   5.490   5.165   4.382 -0.6972  0.8577 -0.7689
  332TIP3    H222488   5.493   5.310   4.424  0.8324  1.0456 -1.4477
  333TIP3   OH222489   4.586   1.504  14.688  0.0572 -0.3221 -0.1054
  333TIP3    H122490   4.675   1.535  14.704 -0.5749  1.3025  0.4669
  333TIP3    H222491   4.580   1.422  14.736  1.1420 -0.2774  0.1354
  334TIP3   OH222492   6.299   0.028   2.444  0.1303  0.0966  0.1838
  334TIP3    H122493   6.381   0.075   2.433 -0.2141  0.2046 -2.4522
  334TIP3    H222494   6.311  -0.055   2.397 -0.5429 -0.8989  1.6594
  335TIP3   OH222495   1.919   1.294  11.331  0.0413  0.2763  0.0693
  335TIP3    H122496   1.878   1.331  11.253 -0.3701 -1.5304 -0.6175
  335TIP3    H222497   1.855   1.231  11.365  0.4386  0.6423  1.5757
  336TIP3   OH222498   4.619   1.841   3.921 -0.2634 -0.2911 -0.1441
  336TIP3    H122499   4.587   1.924   3.884  1.3112  0.7650  0.7566
  336TIP3    H222500   4.642   1.862   4.011  1.3552 -1.3787 -0.2635
  337TIP3   OH222501   4.154   6.817   5.865 -0.0380  0.3113  0.1540
  337TIP3    H122502   4.139   6.899   5.913 -2.5832  0.5646 -0.8932
  337TIP3    H222503   4.157   6.750   5.933  2.8080  1.2478  1.0974
  338TIP3   OH222504   4.168   0.921  13.810  0.0872  0.5022  0.2081
  338TIP3    H122505   4.249   0.877  13.838 -0.4393 -0.1652  0.7182
  338TIP3    H222506   4.198   0.996  13.759  0.9966 -1.6514 -2.6492
  339TIP3   OH222507   5.261   2.830   0.838 -0.4430 -0.2945  0.1414
  339TIP3    H122508   5.174   2.851   0.804 -0.1392 -2.0559 -2.0289
  339TIP3    H222509   5.245   2.779   0.917 -1.4128 -0.6574 -0.2800
  340TIP3   OH222510   4.155   2.931  13.616 -0.6625  0.0149  0.6889
  340TIP3    H122511   4.245   2.900  13.609 -0.5121  0.7166 -0.9058
  340TIP3    H222512   4.101   2.854  13.597 -0.3349  0.1480 -0.8877
  341TIP3   OH222513   3.206   0.433   0.970 -0.0158  0.3401 -0.1930
  341TIP3    H122514   3.123   0.434   0.922 -0.2524  3.5830  0.0239
  341TIP3    H222515   3.267   0.480   0.913  0.5842  1.3244  1.1925
  342TIP3   OH222516   1.301   4.514  10.611 -0.6060  0.2429  0.0628
  342TIP3    H122517   1.254   4.505  10.528 -1.5778  0.4316  0.5766
  342TIP3    H222518   1.276   4.437  10.661 -0.0979  0.1777  0.2134
  343TIP3   OH222519   5.274   5.252  11.263  0.2783  0.3337  0.1598
  343TIP3    H122520   5.354   5.300  11.242  0.1543 -0.4376 -2.4644
  343TIP3    H222521   5.225   5.250  11.181 -1.9551 -0.1570  1.4140
  344TIP3   OH222522   1.145   4.433   5.554 -0.4802  0.5743 -0.6199
  344TIP3    H122523   1.146   4.340   5.577  0.9219  1.0351  1.5572
  344TIP3    H222524   1.073   4.470   5.605  0.1685  0.9596  0.0501
  345TIP3   OH222525   0.231   5.376   5.712 -0.4314 -0.5775 -0.6081
  345TIP3    H122526   0.293   5.448   5.706 -3.4276  2.1431 -1.9603
  345TIP3    H222527   0.210   5.370   5.806 -0.8346  1.0498 -0.5609
  346TIP3   OH222528   3.924   2.808  12.044 -0.0640  0.4689 -0.8844
  346TIP3    H122529   3.987   2.820  11.973  0.9282  0.2297 -0.0688
  346TIP3    H222530   3.954   2.869  12.112 -1.6170  1.4754 -1.0610
  347TIP3   OH222531   4.859   4.895   1.119 -0.0940  0.4875  0.1592
  347TIP3    H122532   4.837   4.903   1.212 -0.0125 -0.3255  0.2493
  347TIP3    H222533   4.834   4.980   1.082 -3.0810 -0.2004  0.3149
  348TIP3   OH222534   2.853   0.847  16.193  0.3982  0.4099 -0.1111
  348TIP3    H122535   2.916   0.889  16.135  0.1262 -0.2839 -0.9270
  348TIP3    H222536   2.882   0.756  16.197  0.1587  0.3537  0.5098
  349TIP3   OH222537   2.863   3.226  16.614  0.0868  0.0897  0.3664
  349TIP3    H122538   2.814   3.171  16.553  0.5730 -0.0005  0.0560
  349TIP3    H222539   2.825   3.313  16.604 -0.0164  0.0189  0.1334
  350TIP3   OH222540   5.406   1.926  13.182  0.3354 -0.1928  0.4039
  350TIP3    H122541   5.346   1.941  13.256 -0.4839 -2.0623  0.1781
  350TIP3    H222542   5.492   1.915  13.224  0.1748  0.4521  0.9222
  351TIP3   OH222543   1.232   2.421  11.928  0.5726  0.4062 -0.4283
  351TIP3    H122544   1.209   2.432  12.020  2.4507  0.3899  0.0950
  351TIP3    H222545   1.252   2.509  11.898 -0.8892  0.5282 -1.0924
  352TIP3   OH222546   1.449   4.950   5.311 -0.4283  0.0048 -0.3771
  352TIP3    H122547   1.496   4.869   5.328  0.5858  0.7294  0.3507
  352TIP3    H222548   1.512   5.007   5.267 -1.8114 -0.3833 -3.0726
  353TIP3   OH222549   1.021   6.721  15.063  0.0520  0.1782  0.4677
  353TIP3    H122550   0.955   6.657  15.038  1.2772 -1.2911  0.9004
  353TIP3    H222551   1.049   6.760  14.980  0.1827 -0.7411  0.0709
  354TIP3   OH222552   1.304   4.549   4.459 -0.3091 -0.3447 -0.9896
  354TIP3    H122553   1.219   4.544   4.416 -0.2553 -1.0300 -1.0286
  354TIP3    H222554   1.289   4.604   4.536 -0.0579  2.2071 -2.6742
  355TIP3   OH222555   3.703   0.724   1.407 -0.2550 -0.3336  0.1209
  355TIP3    H122556   3.686   0.807   1.452  0.7341 -0.9382  1.7229
  355TIP3    H222557   3.731   0.664   1.477 -2.0851 -2.3827 -0.7700
  356TIP3   OH222558   3.156   5.628   5.658  0.6709  0.0323 -0.9978
  356TIP3    H122559   3.114   5.585   5.583 -0.9944 -0.7994  0.3457
  356TIP3    H222560   3.206   5.699   5.619 -0.2083 -0.3180 -2.9023
  357TIP3   OH222561   3.340   4.613   2.579 -0.2820 -0.6581  0.2347
  357TIP3    H122562   3.257   4.586   2.541  0.0556 -0.8742 -0.3667
  357TIP3    H222563   3.402   4.544   2.554  0.1761 -0.2719  0.2760
  358TIP3   OH222564   3.940   0.171  16.357  0.4853  0.0731  0.0424
  358TIP3    H122565   4.001   0.168  16.431  1.0785 -0.6892 -0.4585
  358TIP3    H222566   3.995   0.197  16.282  0.3686 -1.3112 -0.5556
  359TIP3   OH222567   6.554   3.012   1.153 -0.3272  0.5848  0.1491
  359TIP3    H122568   6.582   3.101   1.174 -0.0242  0.7795 -1.0132
  359TIP3    H222569   6.461   3.010   1.174 -0.2722  1.0800  0.4574
  360TIP3   OH222570   5.522   0.434  11.807  0.1757  0.2833 -0.6297
  360TIP3    H122571   5.561   0.352  11.837  0.5782  1.0493  1.0652
  360TIP3    H222572   5.594   0.479  11.761  0.7060  0.7450  0.6077
  361TIP3   OH222573   4.608   6.504   1.534 -0.4603  0.2226  0.8737
  361TIP3    H122574   4.701   6.487   1.547 -0.3642 -0.1836 -0.1741
  361TIP3    H222575   4.564   6.426   1.568 -0.4133  0.4075  1.3540
  362TIP3   OH222576   5.927   5.936   0.537 -0.6766  0.1899  0.4238
  362TIP3    H122577   5.957   5.846   0.520  1.7777  1.0816 -0.4188
  362TIP3    H222578   5.854   5.949   0.477  1.4537 -0.0205 -2.4161
  363TIP3   OH222579   1.777   4.344  13.624 -0.5489  0.3713 -0.0046
  363TIP3    H122580   1.701   4.340  13.681 -0.3916  0.1414  0.1917
  363TIP3    H222581   1.851   4.325  13.681 -0.3862  0.1523 -0.2813
  364TIP3   OH222582   3.124   3.853  11.547  0.3322 -0.7528  0.3486
  364TIP3    H122583   3.111   3.828  11.639 -0.6779 -0.2727  0.3473
  364TIP3    H222584   3.053   3.809  11.500  1.0840 -1.3347 -0.2753
  365TIP3   OH222585   1.515   0.805  16.650 -0.2069  0.0742  0.0536
  365TIP3    H122586   1.536   0.764  16.567 -1.7079  0.7851 -0.7068
  365TIP3    H222587   1.600   0.815  16.694  0.7906  0.8168 -1.9191
  366TIP3   OH222588   3.896   2.264   5.069  0.4466  0.3314 -0.3836
  366TIP3    H122589   3.806   2.230   5.072  0.5546  0.0627 -0.1541
  366TIP3    H222590   3.926   2.242   4.980  1.1285 -1.8017  0.3080
  367TIP3   OH222591   5.121   2.819   5.816 -0.6620  0.0425 -0.2934
  367TIP3    H122592   5.036   2.837   5.856 -0.7035  0.1179 -0.4167
  367TIP3    H222593   5.185   2.851   5.880 -0.7279  0.1071 -0.2602
  368TIP3   OH222594   4.403   4.443   0.502 -0.2148  0.5299  0.2062
  368TIP3    H122595   4.391   4.469   0.411 -0.2731  0.3333  0.1567
  368TIP3    H222596   4.316   4.451   0.541 -0.1317  0.8937  0.3179
  369TIP3   OH222597   5.345   4.878   3.802  0.2187 -0.6461 -0.4379
  369TIP3    H122598   5.300   4.800   3.768 -0.2556 -0.0951 -1.0848
  369TIP3    H222599   5.277   4.928   3.846 -0.0538  0.6866 -2.2768
  370TIP3   OH222600   0.231   6.631   1.467 -0.0836 -0.1903 -0.2887
  370TIP3    H122601   0.271   6.648   1.553  0.2570 -0.4871 -0.3872
  370TIP3    H222602   0.305   6.625   1.407 -0.3213  0.0059 -0.6039
  371TIP3   OH222603   3.439   3.514   5.053  0.2737 -0.5633 -0.0364
  371TIP3    H122604   3.478   3.446   5.108 -0.6586 -1.5794 -0.6168
  371TIP3    H222605   3.345   3.498   5.057 -0.0634  1.3002  0.5927
  372TIP3   OH222606   4.016   1.952  14.750  0.2460 -0.3758 -0.0320
  372TIP3    H122607   3.972   2.008  14.815 -0.1409  0.2745 -0.8338
  372TIP3    H222608   3.967   1.870  14.753  0.9183 -0.7595  1.2738
  373TIP3   OH222609   0.987   5.173   0.186  0.7160 -0.2756 -1.1199
  373TIP3    H122610   0.922   5.242   0.173  0.6399 -0.1159  0.0177
  373TIP3    H222611   0.957   5.126   0.263  1.8329 -0.3349 -0.6979
  374TIP3   OH222612   4.232   3.063  15.096  0.2043  0.5200  0.0547
  374TIP3    H122613   4.291   3.006  15.046  0.9076 -1.9755  3.3777
  374TIP3    H222614   4.147   3.020  15.090 -0.0854  1.1296 -0.3117
  375TIP3   OH222615   5.014   6.156   3.458 -0.6527 -0.0681 -0.1191
  375TIP3    H122616   5.036   6.240   3.418 -1.5654 -0.1079 -0.7443
  375TIP3    H222617   4.925   6.168   3.491 -1.0010 -0.9506 -0.7084
  376TIP3   OH222618   6.183   1.130  13.276 -0.6712  0.0303 -0.3359
  376TIP3    H122619   6.277   1.111  13.273 -0.7376 -0.2911 -0.3662
  376TIP3    H222620   6.142   1.046  13.296 -0.7859  0.6143  2.1347
  377TIP3   OH222621   5.245   3.515  15.856  0.2553  0.1837  0.1778
  377TIP3    H122622   5.212   3.453  15.791 -0.4953  0.8340 -0.0659
  377TIP3    H222623   5.336   3.488  15.870  0.5678  0.3055 -1.4588
  378TIP3   OH222624   3.164   5.213  15.557 -0.0918  0.6698  0.3954
  378TIP3    H122625   3.096   5.220  15.490 -0.9572  0.1964  1.2080
  378TIP3    H222626   3.245   5.236  15.511 -0.8442  1.6528 -0.4859
  379TIP3   OH222627   6.285   1.689   1.163  0.0380  0.2271  0.0568
  379TIP3    H122628   6.360   1.719   1.113 -0.3467  0.3158 -0.4734
  379TIP3    H222629   6.235   1.635   1.102  1.8255 -3.4454  1.5220
  380TIP3   OH222630   2.057   3.743   2.200  0.4496 -0.0394 -0.0356
  380TIP3    H122631   2.062   3.731   2.106  1.3410  0.7163 -0.1094
  380TIP3    H222632   1.974   3.787   2.215  0.5571  0.3491 -0.5419
  381TIP3   OH222633   0.627   2.076  11.078 -0.3075 -0.1281 -0.4064
  381TIP3    H122634   0.704   2.041  11.033  0.2982  0.4336  0.1657
  381TIP3    H222635   0.588   2.137  11.014  1.2720  1.6352  0.2303
  382TIP3   OH222636   3.034   3.767  16.301  0.6952  0.3493 -0.2895
  382TIP3    H122637   3.038   3.757  16.396 -0.9246 -0.1333 -0.2375
  382TIP3    H222638   3.125   3.760  16.272  1.0309 -1.5472  1.0334
  383TIP3   OH222639   0.636   6.748  16.987 -0.1614 -0.0150 -0.1398
  383TIP3    H122640   0.542   6.745  17.009 -0.3928 -0.8846 -1.1965
  383TIP3    H222641   0.676   6.791  17.063 -1.5504  1.3829 -0.1503
  384TIP3   OH222642   3.667   3.602   4.574  0.4304  0.0767 -0.3989
  384TIP3    H122643   3.678   3.667   4.644 -0.8521 -0.3237  0.2046
  384TIP3    H222644   3.757   3.580   4.548  0.9106  1.4540 -0.0387
  385TIP3   OH222645   5.946   1.348   4.344  0.0020 -0.0371 -0.7114
  385TIP3    H122646   6.003   1.371   4.270 -1.5926  0.6836 -1.7829
  385TIP3    H222647   5.944   1.252   4.343 -0.5470 -0.0442 -2.1079
  386TIP3   OH222648   1.805   6.060   4.199 -0.4671 -0.3258  0.6606
  386TIP3    H122649   1.789   6.154   4.211  1.3045  0.1072 -0.0500
  386TIP3    H222650   1.865   6.036   4.270 -1.2679 -1.0475  1.1149
  387TIP3   OH222651   2.799   5.686   3.553 -0.2848  0.3899 -0.0535
  387TIP3    H122652   2.717   5.724   3.524 -0.3380 -0.1567 -0.6543
  387TIP3    H222653   2.773   5.608   3.602 -0.1214 -0.0827 -0.6981
  388TIP3   OH222654   0.362   0.445   4.860  0.6172  0.0844  0.1118
  388TIP3    H122655   0.393   0.473   4.946  0.0637  0.0133  0.3429
  388TIP3    H222656   0.301   0.513   4.833  0.3766 -0.1664  0.0195
  389TIP3   OH222657   5.186   4.534  14.566 -0.7079 -0.4577 -0.1870
  389TIP3    H122658   5.260   4.582  14.528 -0.6662  0.8581  1.4544
  389TIP3    H222659   5.109   4.587  14.543 -1.0165 -1.1617 -0.8223
  390TIP3   OH222660   0.924   2.393   4.065  0.1823 -0.1459 -0.7884
  390TIP3    H122661   0.980   2.470   4.060 -0.3666  0.2133 -1.8026
  390TIP3    H222662   0.914   2.364   3.974  0.4389 -1.4765 -0.4240
  391TIP3   OH222663   0.740   4.577  11.157 -0.4038  1.0714  0.1986
  391TIP3    H122664   0.745   4.519  11.081  1.9013  1.9370 -0.4025
  391TIP3    H222665   0.789   4.530  11.226 -0.2677  1.4040  0.3319
  392TIP3   OH222666   2.316   0.497  11.426  0.4159  0.1297  0.9791
  392TIP3    H122667   2.259   0.450  11.366  1.3673 -1.1042  1.0164
  392TIP3    H222668   2.351   0.570  11.374 -0.5771  0.4516  0.7454
  393TIP3   OH222669   4.521   4.866   2.114  0.1099 -0.5531 -0.2396
  393TIP3    H122670   4.494   4.780   2.081 -1.7804  0.6973 -2.2928
  393TIP3    H222671   4.447   4.895   2.166 -0.1380  0.5933 -1.1874
  394TIP3   OH222672   2.705   0.466  12.071 -0.1481 -0.2106  0.1154
  394TIP3    H122673   2.679   0.413  12.145  1.6964  0.4964  1.3369
  394TIP3    H222674   2.723   0.553  12.108  0.0230  0.3853 -1.2819
  395TIP3   OH222675   5.575   5.640  11.692  0.5542  0.6427 -0.4896
  395TIP3    H122676   5.630   5.576  11.648  0.9811 -0.4376  1.4791
  395TIP3    H222677   5.638   5.701  11.733  0.2867  0.1474  0.7055
  396TIP3   OH222678   1.600   2.260  10.594 -0.6410  0.0527  0.1437
  396TIP3    H122679   1.553   2.180  10.618 -0.5820  0.0917  0.3890
  396TIP3    H222680   1.618   2.249  10.500  0.3094 -0.7181  0.3944
  397TIP3   OH222681   3.014   5.333   2.517  0.2395 -0.1466  0.1729
  397TIP3    H122682   3.013   5.365   2.607 -0.2040  2.1565 -0.5828
  397TIP3    H222683   3.007   5.412   2.463 -0.3913 -1.5189 -1.8789
  398TIP3   OH222684   6.089   3.982   3.563  0.3735 -0.0106 -0.0873
  398TIP3    H122685   6.148   3.945   3.629 -0.2038  0.5351  0.7423
  398TIP3    H222686   6.135   4.059   3.530 -0.1211  0.7394  0.9673
  399TIP3   OH222687   4.330   3.925   2.012 -0.1449  0.1662  0.6358
  399TIP3    H122688   4.313   3.995   1.949 -3.3303  1.0604  2.2953
  399TIP3    H222689   4.343   3.970   2.095  0.5016 -1.1420  1.2693
  400TIP3   OH222690   1.625   6.154   2.762  0.0700  0.2865  0.2773
  400TIP3    H122691   1.569   6.077   2.773  0.5647 -0.3190 -1.1425
  400TIP3    H222692   1.703   6.135   2.813  0.3711 -0.3705 -0.4017
  401TIP3   OH222693   2.196   1.181   3.614  0.2846 -0.3584  0.0647
  401TIP3    H122694   2.178   1.153   3.524 -1.1921 -0.1470  0.2706
  401TIP3    H222695   2.280   1.141   3.635  0.3750 -0.8942 -1.2041
  402TIP3   OH222696   5.750   5.419   1.100 -0.1521  0.4220 -0.3376
  402TIP3    H122697   5.679   5.437   1.160 -1.8392  1.7793 -2.5869
  402TIP3    H222698   5.829   5.421   1.154 -1.7877 -2.2620  2.4639
  403TIP3   OH222699   0.592   3.088  12.198  0.1402 -0.1154  0.3014
  403TIP3    H122700   0.614   3.006  12.242 -0.4336  1.1221  3.0945
  403TIP3    H222701   0.671   3.142  12.206  0.5442 -0.3413 -1.5826
  404TIP3   OH222702   0.449   3.412  11.658  0.5746 -0.2218 -0.1293
  404TIP3    H122703   0.466   3.499  11.695  1.7215 -0.7799  0.7381
  404TIP3    H222704   0.531   3.386  11.617  1.3412 -2.1511  2.3405
  405TIP3   OH222705   1.372   4.528   5.724 -0.7677 -0.0458 -0.3041
  405TIP3    H122706   1.434   4.508   5.654  0.2446  1.7896  0.0093
  405TIP3    H222707   1.289   4.491   5.693  0.0720 -0.9816 -1.5585
  406TIP3   OH222708   2.108   5.262   4.119  0.3967  0.1827  0.1351
  406TIP3    H122709   2.129   5.260   4.026 -0.2244  1.5880 -0.0591
  406TIP3    H222710   2.014   5.279   4.122  0.4508  0.3569  1.0276
  407TIP3   OH222711   2.228   4.424  17.071  0.3802 -0.3966 -0.2393
  407TIP3    H122712   2.167   4.462  17.134  0.1430  0.2918 -0.8742
  407TIP3    H222713   2.265   4.349  17.117  0.1827  0.0654  0.7091
  408TIP3   OH222714   1.392   0.436  11.407 -0.6522 -0.5962  0.5934
  408TIP3    H122715   1.443   0.494  11.463  0.5823 -1.8278  0.7972
  408TIP3    H222716   1.329   0.395  11.465  0.6452 -1.8928  1.1399
  409TIP3   OH222717   6.209   2.949   1.544 -0.4764 -0.9352  0.1950
  409TIP3    H122718   6.143   2.932   1.477  0.0413 -1.6335 -0.1537
  409TIP3    H222719   6.277   2.884   1.527  0.9314  0.6162 -0.2900
  410TIP3   OH222720   3.673   5.698   0.256  0.0077 -0.1718  0.1157
  410TIP3    H122721   3.595   5.717   0.204 -0.1891 -0.3788  0.3338
  410TIP3    H222722   3.705   5.614   0.222  1.0747  0.6777 -1.0855
  411TIP3   OH222723   3.377   0.880  16.635  0.6322 -0.2296  0.1205
  411TIP3    H122724   3.373   0.815  16.564 -1.4426  0.0184 -0.0693
  411TIP3    H222725   3.407   0.960  16.592  1.6413 -0.6553  0.0181
  412TIP3   OH222726   6.640   0.240   6.097 -0.4767 -0.2253  0.6835
  412TIP3    H122727   6.731   0.262   6.077  0.5476 -2.7361  2.0726
  412TIP3    H222728   6.612   0.306   6.161  0.1345  0.8958 -0.1744
  413TIP3   OH222729   4.683   2.369   0.022 -0.3330 -0.6897 -0.5416
  413TIP3    H122730   4.699   2.275   0.027  2.1019 -0.6717 -3.9310
  413TIP3    H222731   4.598   2.377  -0.021 -0.5350 -1.3392 -0.2652
  414TIP3   OH222732   0.293   4.450   2.406  0.3781  0.0277  0.1965
  414TIP3    H122733   0.354   4.443   2.479  0.1607  1.4443  0.5321
  414TIP3    H222734   0.228   4.381   2.423  0.5702  0.0549  1.1020
  415TIP3   OH222735   3.191   3.734   6.234 -0.1830  0.6907 -0.4879
  415TIP3    H122736   3.130   3.758   6.304 -0.3879 -0.4673 -0.2454
  415TIP3    H222737   3.261   3.799   6.240 -1.1825  1.8109 -0.5131
  416TIP3   OH222738   2.714   0.957  15.957 -1.0957 -0.0245  0.2205
  416TIP3    H122739   2.725   1.040  16.004 -1.7409 -0.3018  0.8741
  416TIP3    H222740   2.803   0.926  15.942 -0.7539  1.5367 -1.4287
  417TIP3   OH222741   6.515   4.345   5.289 -0.2260  0.3531 -0.4791
  417TIP3    H122742   6.519   4.293   5.208 -0.5498  0.2078 -0.4030
  417TIP3    H222743   6.549   4.431   5.264  0.6536  0.0084 -0.5248
  418TIP3   OH222744   2.346   1.943   5.665 -0.1458  0.0187  0.1554
  418TIP3    H122745   2.422   1.950   5.608 -1.2481 -1.1154 -1.5463
  418TIP3    H222746   2.309   1.857   5.646 -1.4630  0.2363  1.4609
  419TIP3   OH222747   3.303   0.615   2.428 -0.1499  0.4664 -0.2246
  419TIP3    H122748   3.351   0.569   2.497  1.7384  0.6557 -1.3379
  419TIP3    H222749   3.219   0.637   2.468  0.9754  0.8502  2.1195
  420TIP3   OH222750   5.023   3.324   0.601 -0.0545  0.1258 -0.0797
  420TIP3    H122751   5.000   3.411   0.570 -0.3217  0.3053  0.6048
  420TIP3    H222752   5.119   3.321   0.597 -0.0837  0.1330 -0.9335
  421TIP3   OH222753   3.700   0.653  13.458 -0.3916  0.5613 -0.2172
  421TIP3    H122754   3.733   0.742  13.468  2.3247 -0.5033  1.6604
  421TIP3    H222755   3.760   0.613  13.395  1.7645 -1.2158  2.6759
  422TIP3   OH222756   3.757   3.589   0.432 -0.1318  0.5475 -0.3957
  422TIP3    H122757   3.812   3.546   0.497 -0.2951  1.7689  0.5882
  422TIP3    H222758   3.667   3.568   0.459 -0.2077  1.3068 -0.0192
  423TIP3   OH222759   1.291   2.344  15.114 -0.3426  0.0355 -0.2760
  423TIP3    H122760   1.287   2.283  15.188  1.0942 -0.6415 -0.7237
  423TIP3    H222761   1.353   2.411  15.142 -1.3941  0.9580 -0.0608
  424TIP3   OH222762   4.497   5.900   2.817 -0.3231 -1.0629  0.6489
  424TIP3    H122763   4.437   5.909   2.891 -3.3332  0.0322 -1.7026
  424TIP3    H222764   4.536   5.987   2.807  1.0369 -1.5313  1.6117
  425TIP3   OH222765   2.632   0.740   1.403 -0.4616  0.6603  0.1073
  425TIP3    H122766   2.586   0.713   1.323  0.1240  0.5457 -0.1972
  425TIP3    H222767   2.565   0.738   1.471 -0.7796 -0.0757 -0.2107
  426TIP3   OH222768   4.812   3.660   3.240  0.1862 -0.4724  0.1102
  426TIP3    H122769   4.905   3.641   3.225  1.2238  1.9283  2.6759
  426TIP3    H222770   4.791   3.614   3.321 -0.2959  0.4881  0.5465
  427TIP3   OH222771   3.916   4.755   4.057 -0.0482 -0.2236  0.4008
  427TIP3    H122772   3.942   4.807   4.133  1.2090  0.1563 -0.2656
  427TIP3    H222773   3.921   4.816   3.983 -0.6541 -0.7405 -0.0747
  428TIP3   OH222774   2.175   1.805   0.975  0.3858 -0.2961  1.1248
  428TIP3    H122775   2.148   1.844   1.058 -1.4779 -0.2148  0.5310
  428TIP3    H222776   2.193   1.879   0.917  0.1508 -0.3421  0.9929
  429TIP3   OH222777   6.202   0.631   5.449  0.4026 -0.5982  0.2528
  429TIP3    H122778   6.183   0.555   5.395  0.6071  0.1237 -0.8791
  429TIP3    H222779   6.268   0.680   5.399 -0.4286  0.8012  0.4668
  430TIP3   OH222780   3.053   1.569   0.247  0.7028 -0.3104  0.5157
  430TIP3    H122781   2.988   1.500   0.258  1.0241 -0.8253 -0.6096
  430TIP3    H222782   3.101   1.571   0.329  0.3963 -1.1279  0.7228
  431TIP3   OH222783   1.102   1.786  13.049  0.4084  0.5580  0.9104
  431TIP3    H122784   1.192   1.770  13.078  0.2591 -0.5062  0.8475
  431TIP3    H222785   1.050   1.782  13.130  0.1556 -1.1119  0.7099
  432TIP3   OH222786   0.740   1.549   1.918 -0.0668 -0.0894  0.0477
  432TIP3    H122787   0.781   1.510   1.995 -1.3331 -0.1931  0.7018
  432TIP3    H222788   0.725   1.476   1.859  1.5733  0.0972 -0.6366
  433TIP3   OH222789   5.945   2.968   0.507 -0.4203  0.3100 -0.2478
  433TIP3    H122790   6.037   2.952   0.485 -0.4356  1.4328 -1.1826
  433TIP3    H222791   5.948   3.025   0.584 -0.3712 -1.2420  0.9637
  434TIP3   OH222792   0.092   2.528   4.195 -0.0781  0.4049 -0.5396
  434TIP3    H122793   0.077   2.480   4.276  1.4952 -1.2964 -1.1555
  434TIP3    H222794   0.081   2.620   4.218 -1.0153 -0.1144  1.2560
  435TIP3   OH222795   5.607   1.682  12.751  0.1920  0.1742  0.4766
  435TIP3    H122796   5.636   1.669  12.842  2.4422 -1.5197 -0.4163
  435TIP3    H222797   5.523   1.638  12.747 -0.1709  0.6590  1.8187
  436TIP3   OH222798   4.756   3.742   5.683 -0.1302  0.3157 -0.0045
  436TIP3    H122799   4.709   3.826   5.692 -1.4838 -0.4098  0.0004
  436TIP3    H222800   4.830   3.750   5.743 -1.9135  0.3972  2.3169
  437TIP3   OH222801   4.704   5.386  12.139  0.6716 -0.1737  0.1230
  437TIP3    H122802   4.716   5.454  12.205 -0.7625 -0.1639  0.3921
  437TIP3    H222803   4.665   5.431  12.064  2.5197 -0.1293 -0.8980
  438TIP3   OH222804   4.222   6.574  14.576  0.3516  0.2022  0.3598
  438TIP3    H122805   4.230   6.668  14.561  0.4657  0.0205 -0.8445
  438TIP3    H222806   4.312   6.543  14.587  0.3697  0.1366  0.0479
  439TIP3   OH222807   1.524   0.862  12.807 -0.2151 -0.0353  0.0052
  439TIP3    H122808   1.470   0.804  12.754  0.6052 -1.1952  0.3878
  439TIP3    H222809   1.510   0.949  12.770 -0.1522 -0.7201 -1.7088
  440TIP3   OH222810   3.884   1.331  11.405  0.1326  0.0499  0.3312
  440TIP3    H122811   3.926   1.246  11.419 -0.4094  0.0273  2.0642
  440TIP3    H222812   3.956   1.392  11.394  0.7307 -0.0178  3.0628
  441TIP3   OH222813   2.476   4.986  11.786 -0.5086 -0.4862  0.1068
  441TIP3    H122814   2.551   4.931  11.763 -0.4718 -0.6749  0.6810
  441TIP3    H222815   2.511   5.075  11.785 -0.7854 -0.3473 -1.7694
  442TIP3   OH222816   0.965   1.314   1.868  0.0062 -0.0495  0.3470
  442TIP3    H122817   1.034   1.365   1.911 -0.3116  0.7847 -0.1047
  442TIP3    H222818   0.952   1.358   1.784  0.0232 -1.1460 -0.2523
  443TIP3   OH222819   6.337   2.872  14.392 -0.4633 -0.2966  0.2426
  443TIP3    H122820   6.274   2.805  14.364 -0.4531 -0.1780 -0.0663
  443TIP3    H222821   6.317   2.887  14.485 -0.4974 -0.6934  0.3029
  444TIP3   OH222822   3.995   3.704  13.283 -0.3857 -0.0379 -0.4643
  444TIP3    H122823   3.928   3.770  13.297  0.5765  0.9292 -0.3078
  444TIP3    H222824   4.048   3.738  13.210 -0.3231 -0.9923 -0.8823
  445TIP3   OH222825   1.778   5.703   0.121  0.2349  0.0263  0.4294
  445TIP3    H122826   1.768   5.626   0.065  1.3732 -0.7855  1.2971
  445TIP3    H222827   1.860   5.688   0.168 -0.1058  1.2380  1.4634
  446TIP3   OH222828   1.976   4.492  13.819 -0.4398 -0.2243  0.0883
  446TIP3    H122829   2.063   4.493  13.778  0.8705  1.7511  2.5715
  446TIP3    H222830   1.924   4.553  13.767 -1.0136 -2.6705 -2.4476
  447TIP3   OH222831   5.252   6.026  15.305 -0.0057  0.0218  0.1942
  447TIP3    H122832   5.160   6.008  15.286  0.2289 -0.7430 -0.2886
  447TIP3    H222833   5.251   6.075  15.387 -0.8591  0.3116  0.0219
  448TIP3   OH222834   0.274   3.789  13.189  0.8444  0.4913  0.2939
  448TIP3    H122835   0.315   3.876  13.187 -0.8186  1.2976 -0.1022
  448TIP3    H222836   0.288   3.755  13.101  2.7976 -0.3205  0.8601
  449TIP3   OH222837   1.589   3.636  10.535  0.5526  0.2181  0.2513
  449TIP3    H122838   1.618   3.676  10.453 -1.7473  1.6514  0.0421
  449TIP3    H222839   1.533   3.563  10.508  1.1378 -0.3692  0.5933
  450TIP3   OH222840   1.046   3.710  13.925  0.2791 -0.0915 -0.2781
  450TIP3    H122841   0.971   3.768  13.941 -0.1053 -0.4982 -0.5698
  450TIP3    H222842   1.119   3.751  13.971 -0.4548 -0.4493  1.2411
  451TIP3   OH222843   6.491   5.981  13.288 -0.3104  0.0447  0.2677
  451TIP3    H122844   6.489   6.042  13.362 -0.8725 -0.1222  0.3910
  451TIP3    H222845   6.498   6.037  13.211  2.4866  0.1891  0.5027
  452TIP3   OH222846   4.271   2.688   4.802  0.4181 -0.2919 -0.4505
  452TIP3    H122847   4.247   2.644   4.884  2.6768  1.3537  1.2285
  452TIP3    H222848   4.250   2.780   4.818  1.0878  0.0833 -1.6383
  453TIP3   OH222849   4.402   0.520  16.392  0.5229 -0.3054 -0.2624
  453TIP3    H122850   4.411   0.570  16.311 -0.8730  0.7958  0.2155
  453TIP3    H222851   4.456   0.442  16.379 -0.2496 -0.5216 -2.5422
  454TIP3   OH222852   1.438   4.822  11.350 -0.2839 -0.3093 -0.3885
  454TIP3    H122853   1.405   4.824  11.260 -0.6906 -2.2122 -0.3194
  454TIP3    H222854   1.359   4.811  11.404 -0.2432  2.4638  0.3967
  455TIP3   OH222855   5.829   0.316  15.852  0.0156 -0.1224  0.0669
  455TIP3    H122856   5.911   0.307  15.901 -0.0205  0.1007  0.1661
  455TIP3    H222857   5.846   0.387  15.789 -0.3660  0.4763  0.6302
  456TIP3   OH222858   0.322   0.584  16.096 -0.3921  0.1410 -0.5042
  456TIP3    H122859   0.285   0.525  16.162 -0.6013  0.2789 -0.4975
  456TIP3    H222860   0.247   0.613  16.044 -0.4174  1.0395  0.0049
  457TIP3   OH222861   5.383   4.276   2.154 -1.0221  0.0252 -0.7159
  457TIP3    H122862   5.392   4.195   2.103  0.1757 -0.1890 -0.2079
  457TIP3    H222863   5.308   4.259   2.211 -0.7000 -0.7961 -0.5145
  458TIP3   OH222864   6.644   0.987   0.862  0.1802  0.3202  0.0232
  458TIP3    H122865   6.624   1.055   0.797  0.4157  0.8351  0.4824
  458TIP3    H222866   6.585   0.915   0.840  1.2291 -0.0888 -1.6448
  459TIP3   OH222867   6.431   0.981  14.058  0.0933  0.4423  0.2508
  459TIP3    H122868   6.449   0.940  14.143  0.4877  0.6828  0.2896
  459TIP3    H222869   6.350   1.030  14.071 -0.4359 -0.3950  0.1773
  460TIP3   OH222870   0.805   1.423   0.619 -0.4363  0.2909  0.1722
  460TIP3    H122871   0.843   1.510   0.605 -1.0754  0.7031  0.9018
  460TIP3    H222872   0.731   1.420   0.558 -0.6890  0.4400  0.4700
  461TIP3   OH222873   3.630   6.098   5.242 -0.1403 -0.0186 -0.1025
  461TIP3    H122874   3.659   6.012   5.211 -1.6898 -1.0512  1.2107
  461TIP3    H222875   3.536   6.099   5.226 -0.1099  1.5831 -0.3762
  462TIP3   OH222876   3.484   2.902  10.926 -0.1980 -0.2468  0.0700
  462TIP3    H122877   3.466   2.849  10.848 -0.4704 -0.5366  0.3243
  462TIP3    H222878   3.423   2.868  10.992 -0.0610  0.0847  0.3692
  463TIP3   OH222879   5.468   3.685  16.148 -0.5476  0.1170 -0.1956
  463TIP3    H122880   5.510   3.604  16.175 -0.3330  0.8553  1.8429
  463TIP3    H222881   5.538   3.751  16.154 -1.2350  0.8208  0.3008
  464TIP3   OH222882   4.868   2.207  10.846 -0.3413  0.2610 -0.6231
  464TIP3    H122883   4.818   2.127  10.856  1.3495 -0.8464 -0.6099
  464TIP3    H222884   4.953   2.178  10.813  0.9345  1.8346  1.0811
  465TIP3   OH222885   5.233   6.757  12.321 -0.0311 -0.0442  0.3572
  465TIP3    H122886   5.164   6.693  12.301 -0.5203  0.1050  1.4878
  465TIP3    H222887   5.207   6.794  12.405  0.2637  1.6261 -0.2621
  466TIP3   OH222888   2.178   2.623   1.733 -0.4455  0.1220 -0.3515
  466TIP3    H122889   2.100   2.672   1.707 -0.2040  0.1833 -0.9787
  466TIP3    H222890   2.179   2.547   1.675 -1.3891 -1.2110  1.3015
  467TIP3   OH222891   1.763   3.105   6.177 -0.0075  0.2720 -0.7245
  467TIP3    H122892   1.717   3.121   6.259 -1.1380 -4.2457 -0.2270
  467TIP3    H222893   1.698   3.061   6.122  2.5957 -3.2003 -1.3107
  468TIP3   OH222894   3.675   5.488  16.990 -0.1755 -0.6086 -0.0480
  468TIP3    H122895   3.690   5.460  17.080  2.0410 -2.4966 -0.8947
  468TIP3    H222896   3.633   5.413  16.948  2.2286 -1.3412 -1.3929
  469TIP3   OH222897   1.764   3.985   0.960  0.1537 -0.7663  0.2635
  469TIP3    H122898   1.855   3.968   0.983 -0.5054 -4.1226  0.9234
  469TIP3    H222899   1.722   4.009   1.043  0.3760  0.6893 -0.0239
  470TIP3   OH222900   1.689   1.784  15.554 -0.0373 -0.1227  0.1225
  470TIP3    H122901   1.764   1.748  15.601 -0.1367 -0.1060  0.2952
  470TIP3    H222902   1.613   1.754  15.604 -0.2067 -1.1492 -0.7118
  471TIP3   OH222903   5.831   4.460  11.157 -0.3729  0.4480 -0.2904
  471TIP3    H122904   5.752   4.432  11.204 -1.0907  0.4518 -1.4596
  471TIP3    H222905   5.839   4.399  11.084  0.1703  1.0279 -0.7253
  472TIP3   OH222906   5.629   3.484  16.257  0.0821  0.1712  0.6095
  472TIP3    H122907   5.710   3.511  16.214  0.2266 -1.0348  0.0569
  472TIP3    H222908   5.656   3.411  16.313 -0.3061  1.0087  1.9114
  473TIP3   OH222909   4.689   0.939  10.343 -0.6279 -0.1838  0.2275
  473TIP3    H122910   4.722   1.016  10.390 -1.3296  0.6455 -0.6007
  473TIP3    H222911   4.768   0.895  10.312 -0.2236  1.0516 -0.5932
  474TIP3   OH222912   4.451   3.979   6.259  0.4211  0.7958  0.9668
  474TIP3    H122913   4.464   4.071   6.237 -0.4261  0.3940 -1.6505
  474TIP3    H222914   4.539   3.944   6.271  0.8888  1.5548 -0.0814
  475TIP3   OH222915   6.061   1.812  14.956 -0.0764 -0.5472  0.7275
  475TIP3    H122916   6.000   1.763  14.901 -0.5428  0.9897 -0.2144
  475TIP3    H222917   6.005   1.864  15.013  0.3300  0.4087  0.2811
  476TIP3   OH222918   3.645   0.443  16.231  0.4720  0.2481  0.3675
  476TIP3    H122919   3.692   0.389  16.168 -0.3333 -4.0873  3.1062
  476TIP3    H222920   3.713   0.480  16.287  0.9238  0.3363 -0.2306
  477TIP3   OH222921   1.181   5.302  15.058 -0.0830  0.1979 -0.1653
  477TIP3    H122922   1.266   5.265  15.085 -0.4866  0.0644  0.9869
  477TIP3    H222923   1.121   5.228  15.062 -0.5939  0.6537  0.6803
  478TIP3   OH222924   2.338   1.553   5.087  0.8137  0.3177  0.2054
  478TIP3    H122925   2.417   1.549   5.142  2.3128 -0.2396 -1.8660
  478TIP3    H222926   2.339   1.472   5.037 -1.1665  0.2662  0.1743
  479TIP3   OH222927   5.539   5.932   4.840 -0.4150 -0.6190  0.5412
  479TIP3    H122928   5.517   5.978   4.921 -0.8959  0.1628 -0.0244
  479TIP3    H222929   5.468   5.953   4.780 -0.0230 -1.1248 -0.1137
  480TIP3   OH222930   5.552   0.790  12.522  0.0457 -0.1808  0.4183
  480TIP3    H122931   5.603   0.833  12.591  0.4542 -3.7331  2.5509
  480TIP3    H222932   5.489   0.857  12.495  0.8523  1.9120  3.1596
  481TIP3   OH222933   6.115   0.171  17.067 -0.9005 -0.3655 -0.0493
  481TIP3    H122934   6.054   0.237  17.035  0.3411  0.4622 -0.7793
  481TIP3    H222935   6.170   0.149  16.992 -0.9793 -1.9099  0.2967
  482TIP3   OH222936   1.799   0.704  12.203 -0.1379  0.6290 -0.0939
  482TIP3    H122937   1.767   0.648  12.132 -0.8234  0.5419  0.2737
  482TIP3    H222938   1.804   0.791  12.163  1.4722  0.2332 -0.8258
  483TIP3   OH222939   4.831   4.983   1.589  0.1409  0.6844 -0.1584
  483TIP3    H122940   4.888   4.918   1.629 -2.3032 -0.6335  1.4730
  483TIP3    H222941   4.822   5.052   1.655  0.8945  1.5501 -0.9466
  484TIP3   OH222942   0.152   4.148  16.718 -0.1155  0.0486  0.8592
  484TIP3    H122943   0.210   4.113  16.651  2.0820  2.5034  1.3082
  484TIP3    H222944   0.113   4.071  16.759  2.3512 -1.7133  0.0834
  485TIP3   OH222945   6.163   5.659  16.952  0.6201 -0.2895 -0.5123
  485TIP3    H122946   6.124   5.582  16.911 -1.3413 -1.5009  3.1669
  485TIP3    H222947   6.234   5.624  17.006  0.0326  0.4920  0.8139
  486TIP3   OH222948   1.918   4.342   1.512 -0.1017  0.4483  0.3463
  486TIP3    H122949   1.914   4.267   1.452 -0.0432 -0.3636  1.3224
  486TIP3    H222950   2.001   4.331   1.558 -1.6055 -0.8798  2.9424
  487TIP3   OH222951   4.498   3.633   1.095 -0.5731 -0.5302  0.7846
  487TIP3    H122952   4.484   3.727   1.106 -1.8812 -0.4535 -1.0353
  487TIP3    H222953   4.534   3.624   1.007  1.0413 -1.6469  1.5207
  488TIP3   OH222954   3.890   2.597   4.010 -0.7135 -0.5726  0.2040
  488TIP3    H122955   3.839   2.614   3.931  0.4172 -0.5804 -0.5502
  488TIP3    H222956   3.928   2.682   4.033 -1.2056 -0.5237  0.8803
  489TIP3   OH222957   6.320   3.444   1.440 -0.3267  0.3344  0.5564
  489TIP3    H122958   6.371   3.504   1.495 -0.8811  0.5647  0.8259
  489TIP3    H222959   6.244   3.422   1.493 -0.4207 -0.1538  0.2263
  490TIP3   OH222960   4.494   1.562  12.739  0.1925  0.0414 -0.2213
  490TIP3    H122961   4.587   1.582  12.727  0.3935 -0.0636  1.0363
  490TIP3    H222962   4.493   1.476  12.782 -0.6194 -2.0566 -4.0377
  491TIP3   OH222963   1.595   1.178  16.456 -0.0600  0.1905  0.0695
  491TIP3    H122964   1.531   1.205  16.391  0.4241 -1.0319 -0.9619
  491TIP3    H222965   1.673   1.231  16.436  0.0621 -0.1259 -0.3085
  492TIP3   OH222966   5.250   5.780   0.216  0.4470  0.2932  0.1730
  492TIP3    H122967   5.281   5.708   0.161  2.0020  1.3723 -0.4429
  492TIP3    H222968   5.277   5.756   0.305 -2.1755 -1.5131  0.6219
  493TIP3   OH222969   3.784   3.917   3.656  0.8126 -0.2298 -0.2528
  493TIP3    H122970   3.831   3.981   3.710  0.7001  0.8415 -1.3847
  493TIP3    H222971   3.852   3.880   3.600  0.9142 -1.2814  0.5347
  494TIP3   OH222972   3.180   5.762   5.246  0.3856 -0.3260  0.0393
  494TIP3    H122973   3.226   5.796   5.323 -0.9393  0.8495  0.3502
  494TIP3    H222974   3.153   5.673   5.271  0.0694  0.0027  0.8938
  495TIP3   OH222975   2.341   0.308   3.089  0.1014  0.0501  0.4369
  495TIP3    H122976   2.331   0.306   3.184  2.2756 -0.3704  0.6921
  495TIP3    H222977   2.364   0.218   3.066 -0.0554  0.2336 -0.4624
  496TIP3   OH222978   3.425   4.921   1.987  0.3682  0.5260 -0.3849
  496TIP3    H122979   3.336   4.956   1.990 -0.2087 -0.9098  0.6114
  496TIP3    H222980   3.462   4.956   1.906 -0.6854  2.0978 -0.2190
  497TIP3   OH222981   5.472   1.924  11.364 -0.0301 -0.7512  0.7561
  497TIP3    H122982   5.378   1.934  11.377 -0.4383 -0.7417 -1.7773
  497TIP3    H222983   5.487   1.952  11.274  2.4092 -0.7852  1.0847
  498TIP3   OH222984   6.473   2.604   3.512  0.5504 -0.0697  0.2093
  498TIP3    H122985   6.489   2.680   3.568  0.9388 -1.1385  1.5964
  498TIP3    H222986   6.387   2.572   3.541  0.6324 -0.4728  0.0054
  499TIP3   OH222987   5.507   6.651  12.334  0.3176  0.2720  0.1569
  499TIP3    H122988   5.567   6.719  12.364  0.2797  0.3185  0.1280
  499TIP3    H222989   5.420   6.691  12.342  0.3402  0.4460 -0.4412
  500TIP3   OH222990   5.879   1.237   3.055 -0.4092  0.0353 -0.3073
  500TIP3    H122991   5.833   1.153   3.047 -0.0336 -0.0541 -1.6852
  500TIP3    H222992   5.941   1.238   2.983 -0.8406  1.7856 -0.7069
  501TIP3   OH222993   0.552   5.576  12.926 -0.1226 -0.3546  0.5004
  501TIP3    H122994   0.510   5.647  12.975 -0.4326 -1.0113  1.1995
  501TIP3    H222995   0.480   5.527  12.888  0.0556 -0.7843  0.7097
  502TIP3   OH222996   2.776   5.581  11.265  0.3912  0.0878 -0.3677
  502TIP3    H122997   2.841   5.511  11.258 -0.5915 -0.8719 -0.2072
  502TIP3    H222998   2.722   5.571  11.187  0.3399  0.7868 -0.4302
  503TIP3   OH222999   0.744   5.789  13.149  0.0544  0.4869  0.0920
  503TIP3    H123000   0.818   5.826  13.197 -2.3641  2.7396  2.4488
  503TIP3    H223001   0.754   5.824  13.060  0.6867  2.6559  0.9327
  504TIP3   OH223002   4.467   3.522  13.033 -0.3267  0.5357 -0.1908
  504TIP3    H123003   4.444   3.553  13.121 -1.6687  0.2626 -0.4185
  504TIP3    H223004   4.393   3.549  12.979  0.1166 -0.0008 -1.0776
  505TIP3   OH223005   3.190   5.149   3.470  0.4541 -0.2738  0.0521
  505TIP3    H123006   3.183   5.067   3.420  1.5500  0.0262 -0.6330
  505TIP3    H223007   3.112   5.198   3.446  1.7549  0.5933 -2.7948
  506TIP3   OH223008   6.705   0.658   0.354 -0.2990  0.3160  0.1624
  506TIP3    H123009   6.620   0.696   0.331  0.1246  1.1408 -0.0937
  506TIP3    H223010   6.759   0.674   0.277 -0.3864 -1.7885 -0.3938
  507TIP3   OH223011   2.194   0.261   5.931  0.5061 -0.4611  0.0087
  507TIP3    H123012   2.172   0.169   5.947  1.4109 -0.8789 -1.0206
  507TIP3    H223013   2.251   0.285   6.003 -0.8128 -0.2694  1.0365
  508TIP3   OH223014   3.490   3.259  16.261 -0.4058  0.2403 -0.7992
  508TIP3    H123015   3.549   3.295  16.326 -0.9377  2.0151 -1.2462
  508TIP3    H223016   3.466   3.173  16.295  0.1331  0.7046  0.8217
  509TIP3   OH223017   4.536   1.976   1.128 -0.4830  0.2345 -0.2141
  509TIP3    H123018   4.619   1.932   1.148 -1.6250 -1.3512  1.3586
  509TIP3    H223019   4.528   1.968   1.033  1.2115  0.5851 -0.4318
  510TIP3   OH223020   2.365   0.195   3.370  0.0523 -0.0301 -0.3716
  510TIP3    H123021   2.417   0.145   3.433  0.9384 -0.4540 -1.3994
  510TIP3    H223022   2.277   0.160   3.378  0.4658 -1.1226 -0.4233
  511TIP3   OH223023   3.233   2.108   5.576  0.4131 -0.2278 -0.0686
  511TIP3    H123024   3.186   2.030   5.602  0.1883 -0.3255 -0.7449
  511TIP3    H223025   3.219   2.170   5.647 -0.7144 -0.2611 -0.2517
  512TIP3   OH223026   4.983   2.700  13.756  0.3342 -0.3239  0.0052
  512TIP3    H123027   5.032   2.779  13.781 -0.9203  0.4504  0.1171
  512TIP3    H223028   4.972   2.652  13.838  1.2767 -0.7502 -0.0962
  513TIP3   OH223029   0.545   3.172   6.156  0.1859 -0.1515  0.2613
  513TIP3    H123030   0.619   3.111   6.155  0.3070 -0.0937  2.0735
  513TIP3    H223031   0.479   3.128   6.209 -1.0429 -0.1137 -1.1722
  514TIP3   OH223032   4.726   4.011   4.896 -0.1096  0.6645 -0.0511
  514TIP3    H123033   4.718   4.102   4.868 -0.7115  0.2810 -1.1753
  514TIP3    H223034   4.671   3.962   4.835  1.2689 -0.6121 -0.3272
  515TIP3   OH223035   4.226   2.349  14.728  0.6897  0.3881  0.1144
  515TIP3    H123036   4.295   2.319  14.669 -0.5584 -1.1332 -0.6446
  515TIP3    H223037   4.260   2.332  14.816  2.2316  1.9344 -0.1157
  516TIP3   OH223038   6.213   3.212   1.130 -0.3189  0.0095  0.0397
  516TIP3    H123039   6.267   3.198   1.052  1.4740  2.4198  0.7399
  516TIP3    H223040   6.270   3.191   1.203 -1.1185  0.2909  0.7581
  517TIP3   OH223041   4.021   3.597  16.279  0.1116 -0.1161 -0.2273
  517TIP3    H123042   3.970   3.632  16.206  0.1540 -1.9731 -1.2205
  517TIP3    H223043   4.002   3.503  16.278  2.8271 -0.7346 -0.0325
  518TIP3   OH223044   2.393   2.140   5.217 -0.1941  0.9311 -0.3719
  518TIP3    H123045   2.299   2.151   5.232 -0.0281  0.9579  0.7621
  518TIP3    H223046   2.421   2.222   5.176 -1.0034  0.1567 -2.6488
  519TIP3   OH223047   3.518   2.016  16.044  0.0322 -0.0218 -0.2213
  519TIP3    H123048   3.548   1.973  15.965 -0.0515 -1.2937  0.4163
  519TIP3    H223049   3.595   2.062  16.078  0.4265 -0.6262 -0.2979
  520TIP3   OH223050   1.809   4.771  15.611 -0.0136  0.1730 -0.1728
  520TIP3    H123051   1.838   4.847  15.662 -0.0735 -0.9665  1.6274
  520TIP3    H223052   1.870   4.701  15.633 -0.7146 -0.6709 -0.8088
  521TIP3   OH223053   5.652   2.659   1.996  0.4020 -0.3182 -0.6061
  521TIP3    H123054   5.627   2.567   1.993 -0.5777 -0.0739 -0.4416
  521TIP3    H223055   5.747   2.659   1.988  0.3508 -1.2996 -1.3225
  522TIP3   OH223056   2.588   5.133   5.414  0.3033 -0.1403  0.3506
  522TIP3    H123057   2.587   5.161   5.505 -0.6422 -0.4291  0.4488
  522TIP3    H223058   2.557   5.042   5.417 -0.9177  0.2233 -0.3523
  523TIP3   OH223059   2.713   5.927   3.722  0.2084  0.2004  0.1716
  523TIP3    H123060   2.784   5.989   3.705  0.2584 -0.3324 -1.7608
  523TIP3    H223061   2.757   5.843   3.732 -0.0819 -0.0111 -0.3039
  524TIP3   OH223062   1.161   5.634  11.975 -0.3497  0.3070  0.4039
  524TIP3    H123063   1.090   5.603  12.032  0.2586 -0.9726  0.4799
  524TIP3    H223064   1.159   5.576  11.899  0.1573  0.7291  0.0561
  525TIP3   OH223065   5.522   0.523  15.475  0.2038 -0.1004 -0.3758
  525TIP3    H123066   5.494   0.461  15.543  1.3780 -2.0070 -1.5205
  525TIP3    H223067   5.608   0.553  15.504 -0.2902  0.9182  0.0912
  526TIP3   OH223068   1.152   3.569  15.873  0.2847  0.6026 -0.0261
  526TIP3    H123069   1.139   3.475  15.884  0.0599  0.8626  2.2872
  526TIP3    H223070   1.237   3.576  15.829 -0.2620 -0.6664 -1.3912
  527TIP3   OH223071   4.599   1.154  16.795  0.0727  0.2347  0.8322
  527TIP3    H123072   4.563   1.083  16.741 -1.2601  1.8421 -0.5143
  527TIP3    H223073   4.687   1.170  16.758  0.6017 -1.0431  1.5009
  528TIP3   OH223074   4.068   0.386   4.312 -0.1361 -0.1406 -0.1418
  528TIP3    H123075   4.060   0.360   4.404  1.4185 -1.8380 -0.4297
  528TIP3    H223076   4.130   0.324   4.275 -3.4582 -1.9671 -3.2893
  529TIP3   OH223077   3.370   1.811   0.750  0.1130 -0.2286  0.0451
  529TIP3    H123078   3.287   1.777   0.783 -1.2532  1.6338 -1.2617
  529TIP3    H223079   3.403   1.741   0.694 -0.2700 -1.2154  1.0002
  530TIP3   OH223080   1.762   0.802  11.095 -0.3149  0.0086 -0.0024
  530TIP3    H123081   1.802   0.814  11.181  0.0049  3.2727 -0.4840
  530TIP3    H223082   1.669   0.819  11.109 -0.6394 -1.6739  0.0488
  531TIP3   OH223083   4.712   6.580  11.328  0.1629  0.0440 -0.0801
  531TIP3    H123084   4.713   6.485  11.335 -1.0542  0.0688  0.7184
  531TIP3    H223085   4.656   6.609  11.400  0.9510  1.3994  0.0199
  532TIP3   OH223086   0.449   5.011  13.133 -0.5038 -0.3684  0.4062
  532TIP3    H123087   0.537   5.018  13.096  0.1083 -0.6555  1.7449
  532TIP3    H223088   0.414   5.100  13.129  0.0376 -0.1550  0.3316
  533TIP3   OH223089   3.457   1.611  11.726 -0.1690 -0.6366 -0.7781
  533TIP3    H123090   3.483   1.550  11.794  0.7916  1.8687  1.2815
  533TIP3    H223091   3.518   1.595  11.654  1.9009 -0.2904  0.8091
  534TIP3   OH223092   2.653   1.895  15.347  0.4818  0.0350 -0.0677
  534TIP3    H123093   2.692   1.976  15.379  0.3420  0.9795 -2.1585
  534TIP3    H223094   2.653   1.904  15.252  0.9987 -2.6830 -0.3982
  535TIP3   OH223095   2.319   6.595  14.790 -0.1639 -0.4577  0.1842
  535TIP3    H123096   2.358   6.671  14.747  1.3989 -1.0619  0.4701
  535TIP3    H223097   2.227   6.598  14.766  0.0979  0.8940 -0.7299
  536TIP3   OH223098   0.920   3.604  11.582 -0.1758 -0.5420 -0.0174
  536TIP3    H123099   0.868   3.662  11.636  0.3314  0.2933 -0.4095
  536TIP3    H223100   0.971   3.552  11.644  0.3893  0.4000  0.3206
  537TIP3   OH223101   6.284   5.451  15.842  0.2282  0.5096 -0.5132
  537TIP3    H123102   6.198   5.486  15.817  0.3530 -0.3230 -2.2689
  537TIP3    H223103   6.275   5.430  15.935 -0.8501  2.1601 -0.1985
  538TIP3   OH223104   6.840   6.805  13.185 -0.1328  0.3899 -0.5517
  538TIP3    H123105   6.761   6.833  13.139 -0.4072 -1.4686 -1.2658
  538TIP3    H223106   6.865   6.882  13.238 -1.9479  1.2734 -0.9026
  539TIP3   OH223107   3.136   3.259  12.664 -0.1001  0.2460  0.1018
  539TIP3    H123108   3.102   3.312  12.736  1.1539  0.5285  0.5225
  539TIP3    H223109   3.060   3.214  12.628 -0.9490  1.1410  0.7403
  540TIP3   OH223110   2.885   0.227  11.319  0.1230 -0.2750 -0.0553
  540TIP3    H123111   2.898   0.245  11.226 -2.1692 -0.2699 -0.4226
  540TIP3    H223112   2.831   0.300  11.351 -1.7466 -1.8481  0.5204
  541TIP3   OH223113   4.056   2.428   5.238  0.1241 -0.0684  0.2345
  541TIP3    H123114   3.974   2.442   5.284  0.5391  2.9698  0.3084
  541TIP3    H223115   4.032   2.382   5.158 -1.5007 -0.0770  0.6999
  542TIP3   OH223116   0.090   1.938  12.814  0.4299 -0.7173  0.2163
  542TIP3    H123117   0.050   1.966  12.896 -0.3879 -0.8313 -0.1335
  542TIP3    H223118   0.184   1.932  12.833  0.5068  1.1492  0.6207
  543TIP3   OH223119   4.805   2.975   3.657  0.2932  0.1887 -0.0989
  543TIP3    H123120   4.864   2.999   3.728  1.8158 -0.2404 -1.1476
  543TIP3    H223121   4.790   2.881   3.669  2.0513 -0.2985 -1.3241
  544TIP3   OH223122   2.475   2.412  13.663  0.3839 -0.0373 -0.2900
  544TIP3    H123123   2.569   2.401  13.681  0.0667  0.1938  1.7336
  544TIP3    H223124   2.444   2.323  13.644  0.6162 -0.5014  1.3285
  545TIP3   OH223125   5.303   1.287   2.514 -0.0456  0.2093 -0.6569
  545TIP3    H123126   5.308   1.290   2.609 -0.6295  1.5289 -0.6474
  545TIP3    H223127   5.277   1.197   2.494  0.7448 -0.2758  0.3802
  546TIP3   OH223128   1.763   2.599   3.849 -0.2538 -0.2720 -0.1013
  546TIP3    H123129   1.742   2.506   3.849 -3.7995  0.3423 -1.4185
  546TIP3    H223130   1.728   2.632   3.932  2.0764 -0.2070  0.9320
  547TIP3   OH223131   1.063   3.616   0.438  0.0029 -0.2447 -0.5950
  547TIP3    H123132   1.091   3.676   0.369 -0.9669  3.2199  1.7496
  547TIP3    H223133   0.971   3.599   0.420  0.0048 -0.1154 -0.7283
  548TIP3   OH223134   3.103   4.003   4.349  0.0188 -0.3736 -0.9561
  548TIP3    H123135   3.115   3.941   4.277  0.0831  0.1826 -1.4252
  548TIP3    H223136   3.191   4.037   4.366  0.1572 -1.1597 -0.0128
  549TIP3   OH223137   6.744   2.446  13.134  0.4886 -0.4049  0.1625
  549TIP3    H123138   6.714   2.370  13.183 -2.0097  0.2089 -0.2617
  549TIP3    H223139   6.706   2.521  13.181  1.2068  0.4369 -0.5654
  550TIP3   OH223140   0.869   1.025   2.481 -0.3421 -0.1770  0.9853
  550TIP3    H123141   0.877   0.931   2.467 -2.1106 -0.1181 -0.8243
  550TIP3    H223142   0.775   1.042   2.479 -0.0129  2.0374 -2.0531
  551TIP3   OH223143   2.551   3.303   1.365 -0.4307  0.1018  0.0093
  551TIP3    H123144   2.499   3.313   1.444 -0.6799  2.7608 -0.3944
  551TIP3    H223145   2.496   3.251   1.306 -1.5090  0.6109  0.5464
  552TIP3   OH223146   1.499   2.890   3.733  0.0050 -0.4945 -0.9833
  552TIP3    H123147   1.543   2.810   3.704  0.4038 -0.4081 -0.6265
  552TIP3    H223148   1.497   2.883   3.828  0.2404  0.0256 -0.9357
  553TIP3   OH223149   5.417   0.397  14.488 -0.0587 -0.1729  0.2284
  553TIP3    H123150   5.360   0.467  14.457 -0.6246 -0.4876  0.5490
  553TIP3    H223151   5.483   0.441  14.541  0.1169  0.2148 -0.3108
  554TIP3   OH223152   2.869   3.118   2.787 -0.2998 -0.4651  0.3968
  554TIP3    H123153   2.795   3.062   2.811 -0.4959  0.3551  1.8159
  554TIP3    H223154   2.832   3.205   2.777  0.6467  0.2725  2.6686
  555TIP3   OH223155   5.156   3.241  16.152 -0.6465  0.3003  0.2243
  555TIP3    H123156   5.117   3.318  16.112 -0.1833 -0.1653 -1.1699
  555TIP3    H223157   5.083   3.199  16.198 -1.8640 -0.5657 -2.3390
  556TIP3   OH223158   6.507   1.991  15.884  0.2224 -0.3009  0.2479
  556TIP3    H123159   6.483   2.084  15.881  0.1294 -0.2062  2.3409
  556TIP3    H223160   6.533   1.970  15.795  1.0035  1.9520 -0.1117
  557TIP3   OH223161   0.550   6.627   0.605 -0.4110 -0.0858  0.0476
  557TIP3    H123162   0.597   6.654   0.684 -0.3965  1.6556 -0.5215
  557TIP3    H223163   0.458   6.626   0.632 -0.3838  0.2349  0.1537
  558TIP3   OH223164   1.683   2.259  16.041 -0.3145 -0.3541 -0.0675
  558TIP3    H123165   1.687   2.245  15.947 -0.3333  0.7128 -0.2413
  558TIP3    H223166   1.591   2.243  16.064 -0.4793  0.1524 -0.3639
  559TIP3   OH223167   6.301   6.364  13.172 -0.1822 -0.8001  0.3132
  559TIP3    H123168   6.256   6.447  13.191  0.5864 -0.8742  2.7947
  559TIP3    H223169   6.255   6.299  13.225  0.4556 -1.5906 -0.0770
  560TIP3   OH223170   5.823   2.353  16.018 -0.4038 -0.4907  0.0735
  560TIP3    H123171   5.835   2.270  15.972  1.0579 -0.2466 -0.0187
  560TIP3    H223172   5.888   2.412  15.980  1.7036 -0.6113  3.1863
  561TIP3   OH223173   0.270   5.540  16.837  0.2207  0.4374  0.1937
  561TIP3    H123174   0.179   5.516  16.855  0.3089 -0.7915 -0.9046
  561TIP3    H223175   0.264   5.610  16.772  0.0739  0.2929  0.0537
  562TIP3   OH223176   6.060   0.334   1.789 -0.1077 -0.1484 -0.0559
  562TIP3    H123177   5.995   0.316   1.722  0.1743  1.0356 -0.6676
  562TIP3    H223178   6.047   0.426   1.812  0.9600 -0.0520  0.2381
  563TIP3   OH223179   2.657   4.786  13.827  0.0195 -0.8267 -0.2137
  563TIP3    H123180   2.648   4.783  13.922 -0.1321 -0.5016 -0.2161
  563TIP3    H223181   2.746   4.755  13.810 -0.6264 -2.8505 -0.1051
  564TIP3   OH223182   4.341   3.879  16.258  0.1705 -0.2098  0.2762
  564TIP3    H123183   4.434   3.889  16.280  0.3043  0.2667 -0.4647
  564TIP3    H223184   4.326   3.785  16.262  0.3344 -0.1999  1.7501
  565TIP3   OH223185   4.015   4.358  16.968  0.0665  0.0713 -0.0761
  565TIP3    H123186   4.073   4.350  17.044 -0.9644 -1.7805  0.5725
  565TIP3    H223187   3.951   4.287  16.979 -0.2180 -0.1439 -2.5869
  566TIP3   OH223188   0.545   6.519   4.011  0.0536 -0.0476 -0.3158
  566TIP3    H123189   0.526   6.612   3.998  1.7456  0.7423  2.1152
  566TIP3    H223190   0.464   6.474   3.985 -0.0366  1.8197 -3.7812
  567TIP3   OH223191   2.304   0.937  12.250 -0.2725  0.0702  1.3140
  567TIP3    H123192   2.251   0.926  12.171 -0.6339  0.9254  1.4252
  567TIP3    H223193   2.253   0.895  12.319 -1.3898  1.8392  1.6387
  568TIP3   OH223194   6.062   6.797  11.598  0.1567 -0.6473 -0.1008
  568TIP3    H123195   6.072   6.751  11.515  0.0431 -1.1305  0.1546
  568TIP3    H223196   5.968   6.809  11.608  0.1680 -0.6215 -0.0212
  569TIP3   OH223197   2.692   6.499   0.689 -0.0007 -0.1168  0.7609
  569TIP3    H123198   2.743   6.424   0.720 -2.7505 -2.9239 -0.9409
  569TIP3    H223199   2.652   6.534   0.768 -0.0617 -1.6094  1.4379
  570TIP3   OH223200   1.426   4.624  13.768 -0.5186  0.0373 -0.4848
  570TIP3    H123201   1.400   4.703  13.722  0.9124  1.0850  0.4290
  570TIP3    H223202   1.382   4.629  13.853 -0.2945 -0.0482 -0.3603
  571TIP3   OH223203   2.733   6.246  15.435  0.4470  0.0110 -0.3213
  571TIP3    H123204   2.665   6.306  15.407 -0.6862 -0.8948  0.4266
  571TIP3    H223205   2.743   6.185  15.362  0.0333 -0.2035 -0.2006
  572TIP3   OH223206   2.542   4.405   4.553 -0.0244  0.5424  0.0351
  572TIP3    H123207   2.539   4.448   4.639 -1.2261 -1.2605  0.9576
  572TIP3    H223208   2.464   4.350   4.551  0.2491  0.1571 -2.0389
  573TIP3   OH223209   3.811   6.088   3.086 -0.0992 -0.1108 -0.5356
  573TIP3    H123210   3.781   6.016   3.031  0.9609  0.4126 -1.8462
  573TIP3    H223211   3.790   6.167   3.035 -3.5778  0.7989  1.9071
  574TIP3   OH223212   5.670   4.610  15.618 -0.2479 -0.3795  0.1234
  574TIP3    H123213   5.742   4.648  15.568 -1.1432 -0.3031 -1.1472
  574TIP3    H223214   5.665   4.664  15.697  0.1306  0.5472 -0.4672
  575TIP3   OH223215   3.120   5.068  14.365  0.4050 -0.0661 -0.1589
  575TIP3    H123216   3.196   5.124  14.372  1.1410 -1.0967  0.4211
  575TIP3    H223217   3.150   4.982  14.395 -1.0674 -0.4237  0.4283
  576TIP3   OH223218   0.377   4.035   1.903 -0.8642  0.6400  1.3436
  576TIP3    H123219   0.433   4.076   1.837 -0.5461  0.5841  1.5732
  576TIP3    H223220   0.361   4.104   1.967 -2.8583  1.3017  0.1934
  577TIP3   OH223221   2.180   2.202  14.829 -0.5618 -0.3651  0.3085
  577TIP3    H123222   2.147   2.281  14.872 -1.7676 -0.9650  0.5094
  577TIP3    H223223   2.235   2.236  14.758 -0.2655  0.6411  0.9951
  578TIP3   OH223224   0.635   2.516   4.140 -0.5236 -0.2182  0.5261
  578TIP3    H123225   0.630   2.429   4.100 -0.3150  1.0405 -2.5048
  578TIP3    H223226   0.544   2.538   4.159 -0.9886  0.1668 -1.8505
  579TIP3   OH223227   6.221   1.876  11.073  0.5334  0.0239 -0.3103
  579TIP3    H123228   6.229   1.809  11.141  1.3980 -0.7940 -1.1720
  579TIP3    H223229   6.137   1.857  11.031  0.1032  0.3900  0.3647
  580TIP3   OH223230   2.788   0.056  14.835 -0.4314  0.2915  0.7107
  580TIP3    H123231   2.840   0.035  14.914  0.6375 -0.5886 -0.1800
  580TIP3    H223232   2.801  -0.020  14.778 -0.5355  1.2454 -0.6362
  581TIP3   OH223233   1.430   1.833   5.249  0.0182 -0.1251  0.0079
  581TIP3    H123234   1.424   1.893   5.324  0.0909  0.1196 -0.1818
  581TIP3    H223235   1.520   1.799   5.254 -0.2858 -0.8840  0.6205
  582TIP3   OH223236   3.606   4.174  11.996 -0.3475 -0.7051  0.2059
  582TIP3    H123237   3.528   4.216  11.960 -0.0196 -0.1287  0.1684
  582TIP3    H223238   3.668   4.171  11.923  0.3865  0.6291  0.7502
  583TIP3   OH223239   4.199   6.595   3.406  0.5662 -0.7412  0.1856
  583TIP3    H123240   4.143   6.521   3.430  0.3492 -1.0440 -1.1693
  583TIP3    H223241   4.171   6.619   3.318  1.1632  0.4624  0.3075
  584TIP3   OH223242   0.854   0.911   4.015  0.4092 -0.0104  0.2127
  584TIP3    H123243   0.822   0.966   3.943 -1.2470 -0.5361  0.4904
  584TIP3    H223244   0.820   0.823   3.995  0.7443 -0.3643  1.1288
  585TIP3   OH223245   0.226   1.517   2.031  0.7357  0.1218  0.1716
  585TIP3    H123246   0.139   1.511   2.071 -0.2933  1.8188 -1.6118
  585TIP3    H223247   0.256   1.427   2.024 -0.5680 -0.4481  1.4556
  586TIP3   OH223248   3.832   5.894   2.866 -0.0426 -0.3519 -0.7943
  586TIP3    H123249   3.874   5.829   2.923 -0.2707 -0.1154 -0.3498
  586TIP3    H223250   3.742   5.864   2.857 -0.9543  1.2725  1.6379
  587TIP3   OH223251   3.131   2.627  14.396  0.3887  0.6944  0.5883
  587TIP3    H123252   3.114   2.580  14.478 -0.1277  1.7392  1.1004
  587TIP3    H223253   3.163   2.713  14.424  1.2825  0.6894 -0.3269
  588TIP3   OH223254   1.074   2.801   2.704 -1.0725 -0.6559 -0.5005
  588TIP3    H123255   1.057   2.895   2.702 -3.2542 -0.9970 -0.5369
  588TIP3    H223256   1.102   2.783   2.793 -0.3910  0.0478 -0.5600
  589TIP3   OH223257   6.449   2.921  15.572 -0.4789 -0.0350  0.2097
  589TIP3    H123258   6.392   2.993  15.598 -1.8786 -0.4863 -1.3835
  589TIP3    H223259   6.528   2.932  15.624 -0.2479  3.1741 -0.6041
  590TIP3   OH223260   6.316   5.362   0.360  0.2947 -0.0691 -0.0452
  590TIP3    H123261   6.353   5.450   0.354 -1.7192  1.0043  2.0752
  590TIP3    H223262   6.222   5.374   0.348  0.0968 -2.1507 -1.0103
  591TIP3   OH223263   6.035   3.611  14.390 -0.2228  0.2089  0.0712
  591TIP3    H123264   6.098   3.668  14.346 -0.0742 -0.9742 -1.2719
  591TIP3    H223265   6.088   3.550  14.441 -0.3794  1.0702  1.3233
  592TIP3   OH223266   5.820   3.837  16.442 -0.4755 -0.2300  0.0605
  592TIP3    H123267   5.915   3.825  16.447 -0.1913  2.0540  1.2159
  592TIP3    H223268   5.790   3.828  16.533 -1.0003  1.5100  0.0836
  593TIP3   OH223269   6.144   1.541  15.076  0.2415 -0.6722  0.7545
  593TIP3    H123270   6.049   1.555  15.080  0.4694  0.8080  1.4032
  593TIP3    H223271   6.157   1.493  14.994 -1.0242 -0.5994  0.4838
  594TIP3   OH223272   6.472   1.733   5.240  0.2088  0.6008 -0.1190
  594TIP3    H123273   6.530   1.657   5.243  0.7513  0.9992 -0.2737
  594TIP3    H223274   6.486   1.778   5.323 -1.0165 -0.1137  0.4938
  595TIP3   OH223275   1.108   3.220   2.595  0.0443 -0.1720  0.1392
  595TIP3    H123276   1.111   3.133   2.555  0.5193  0.0461 -0.3165
  595TIP3    H223277   1.060   3.274   2.532 -1.7502 -0.4794  1.1948
  596TIP3   OH223278   0.169   2.349   1.907 -0.6529 -0.6813  0.1097
  596TIP3    H123279   0.233   2.387   1.967  0.1088 -1.6590 -0.0545
  596TIP3    H223280   0.187   2.390   1.823 -1.8055  0.7890  0.5315
  597TIP3   OH223281   0.091   4.360   3.036  0.2204  0.0743 -0.2249
  597TIP3    H123282   0.072   4.365   2.943  0.6507  0.5803 -0.2940
  597TIP3    H223283   0.006   4.367   3.079  0.0418  0.0555 -0.5774
  598TIP3   OH223284   5.113   6.152   4.754  0.4990  0.1508  0.0179
  598TIP3    H123285   5.166   6.190   4.824 -1.1825  2.5119  0.1170
  598TIP3    H223286   5.073   6.074   4.794  1.9663 -0.3192  0.6530
  599TIP3   OH223287   1.249   0.053   6.308  0.1021 -0.7897  0.1843
  599TIP3    H123288   1.335   0.078   6.343 -0.3482 -1.4681  1.8795
  599TIP3    H223289   1.195   0.131   6.322  0.5461 -0.1492 -1.4266
  600TIP3   OH223290   5.191   2.142   1.575  0.3033 -0.0288 -0.1603
  600TIP3    H123291   5.220   2.079   1.509  0.3993 -0.0844 -0.0658
  600TIP3    H223292   5.188   2.091   1.656  0.2976  0.0679 -0.1000
  601TIP3   OH223293   1.866   4.161   4.608  0.1151 -0.6029  0.0726
  601TIP3    H123294   1.879   4.178   4.515  1.3623  2.8501  0.7435
  601TIP3    H223295   1.802   4.226   4.636  0.1486 -1.2462  1.7626
  602TIP3   OH223296   2.295   6.133  15.095  0.1055 -0.0125 -0.0976
  602TIP3    H123297   2.365   6.170  15.040  0.8181 -0.1081  0.7225
  602TIP3    H223298   2.214   6.153  15.048  0.5922  1.2253 -0.4444
  603TIP3   OH223299   0.445   6.320   0.703  0.1702 -0.1854 -0.3326
  603TIP3    H123300   0.490   6.395   0.663  0.6886  0.2608  1.0210
  603TIP3    H223301   0.446   6.339   0.797  0.4211 -1.9594  0.0583
  604TIP3   OH223302   2.446   6.765   0.535 -0.4675  0.7684 -0.5307
  604TIP3    H123303   2.486   6.806   0.612  0.2498 -1.2025  0.2315
  604TIP3    H223304   2.494   6.801   0.461  0.7726  0.6145  0.1724
  605TIP3   OH223305   1.856   2.761  13.025  0.0563  0.1077 -0.0620
  605TIP3    H123306   1.932   2.818  13.014  0.0849  0.3379  1.1435
  605TIP3    H223307   1.805   2.802  13.095 -1.6749  0.4521 -1.4689
  606TIP3   OH223308   1.963   2.150  16.016  0.2288 -0.8128  0.5077
  606TIP3    H123309   1.947   2.094  16.092 -0.7823 -0.0941  0.8470
  606TIP3    H223310   1.960   2.239  16.050 -0.5706 -0.4652 -0.4143
  607TIP3   OH223311   4.886   5.419  13.495 -1.0138 -0.2655  0.5071
  607TIP3    H123312   4.834   5.418  13.575 -0.6939  2.3064  0.8208
  607TIP3    H223313   4.976   5.434  13.524 -0.8964  0.6930 -0.2987
  608TIP3   OH223314   4.233   0.685   4.813  0.1671 -0.4436  0.3695
  608TIP3    H123315   4.244   0.684   4.718  2.3977  1.0330  0.5263
  608TIP3    H223316   4.319   0.659   4.847 -1.2597 -3.3690  2.0555
  609TIP3   OH223317   0.548   3.067   2.493 -0.3786  0.4750  0.4637
  609TIP3    H123318   0.606   3.053   2.418 -1.9884  2.7214 -1.3408
  609TIP3    H223319   0.489   2.992   2.491 -0.4118  0.5192 -0.5417
  610TIP3   OH223320   2.408   4.537   0.495  0.0487 -0.1383 -0.1989
  610TIP3    H123321   2.448   4.456   0.462  1.4140  0.2666  0.3902
  610TIP3    H223322   2.474   4.574   0.554 -1.3207  0.4409  1.0303
  611TIP3   OH223323   4.155   3.075  12.533 -0.3650  0.3468 -0.8723
  611TIP3    H123324   4.085   3.072  12.597  1.2214  0.9317  1.0055
  611TIP3    H223325   4.225   3.021  12.571  0.1381 -0.4739 -2.8015
  612TIP3   OH223326   2.010   1.415   0.349  0.6091 -0.2776  0.3777
  612TIP3    H123327   1.950   1.489   0.343  0.7663 -0.0382  1.4852
  612TIP3    H223328   1.990   1.375   0.433  2.0588 -0.1169  0.8313
  613TIP3   OH223329   5.282   0.470   2.151  0.1445  0.4675  0.0065
  613TIP3    H123330   5.239   0.552   2.175  1.0032  1.1044 -0.5515
  613TIP3    H223331   5.322   0.439   2.232 -3.4790 -1.5748  1.2590
  614TIP3   OH223332   4.739   4.643   0.187  0.2283  0.6710  0.4750
  614TIP3    H123333   4.650   4.609   0.191  0.8140 -0.8887  1.2386
  614TIP3    H223334   4.787   4.593   0.254  1.6720  1.4724  0.0969
  615TIP3   OH223335   2.183   2.096   6.397  0.3710  0.0371 -0.0192
  615TIP3    H123336   2.225   2.176   6.430 -0.1573 -0.0402  0.8800
  615TIP3    H223337   2.209   2.028   6.459  0.1979 -0.3258 -0.3454
  616TIP3   OH223338   1.862   1.859  16.507  0.0887  0.8604  0.0566
  616TIP3    H123339   1.881   1.776  16.549  1.3765  1.3080  0.4045
  616TIP3    H223340   1.766   1.864  16.505 -0.0201  0.6062  2.4851
  617TIP3   OH223341   6.070   6.535  13.398 -0.0070 -0.1735 -0.4985
  617TIP3    H123342   6.001   6.543  13.463  0.5750  1.5420 -0.0552
  617TIP3    H223343   6.037   6.469  13.336 -1.6001 -0.0874  0.2241
  618TIP3   OH223344   6.049   1.654  16.903 -0.2664  0.9068  0.2489
  618TIP3    H123345   5.991   1.578  16.911  0.9194  0.0283  0.7053
  618TIP3    H223346   6.020   1.714  16.971 -3.0401  2.1835 -1.8354
  619TIP3   OH223347   3.124   4.532  13.032 -0.7289  0.2911  0.2337
  619TIP3    H123348   3.084   4.534  12.945 -0.7682 -0.6236  0.2163
  619TIP3    H223349   3.182   4.456  13.030 -0.0955  0.7506  0.7404
  620TIP3   OH223350   4.759   4.022  16.193  0.1917 -0.7745 -0.1416
  620TIP3    H123351   4.807   3.948  16.155  1.5207 -1.1495  2.0818
  620TIP3    H223352   4.684   3.982  16.236  1.3193 -1.0236  1.7245
  621TIP3   OH223353   4.819   0.914   2.798  0.3994  0.0642 -0.7166
  621TIP3    H123354   4.746   0.938   2.741 -0.2326 -3.1327 -1.4720
  621TIP3    H223355   4.888   0.978   2.778 -0.5068  0.2767 -3.6099
  622TIP3   OH223356   5.876   1.898  15.159 -0.6009 -0.4454 -0.3498
  622TIP3    H123357   5.864   1.882  15.252 -0.0249 -0.5866 -0.2924
  622TIP3    H223358   5.795   1.939  15.130 -1.3922 -1.7983 -0.1074
  623TIP3   OH223359   1.610   0.841   2.606 -1.0193  0.3150 -0.1369
  623TIP3    H123360   1.600   0.918   2.662  0.5902  0.8242 -0.5060
  623TIP3    H223361   1.591   0.873   2.518 -0.7550  0.1887 -0.2396
  624TIP3   OH223362   4.283   3.105   2.364  0.4377  0.0993  0.1811
  624TIP3    H123363   4.344   3.107   2.291  0.4854 -1.3355  0.1442
  624TIP3    H223364   4.206   3.153   2.333  0.6943  0.0180 -0.5995
  625TIP3   OH223365   6.162   0.197  11.510  0.1599 -0.8045  0.7938
  625TIP3    H123366   6.143   0.135  11.580 -2.0982 -1.1345 -0.0469
  625TIP3    H223367   6.079   0.208  11.464  1.7779 -1.4875 -2.5960
  626TIP3   OH223368   4.573   1.509  15.980  0.0659 -0.0877 -0.8559
  626TIP3    H123369   4.549   1.582  15.923 -2.4169  0.1864  0.4269
  626TIP3    H223370   4.523   1.434  15.946 -0.3286 -0.2616  0.0622
  627TIP3   OH223371   5.143   4.893   0.540 -0.1754 -0.3743  0.8593
  627TIP3    H123372   5.085   4.817   0.543 -1.6985  0.7668  1.8443
  627TIP3    H223373   5.165   4.902   0.447 -0.6581 -1.4932  0.6147
  628TIP3   OH223374   1.157   5.078  15.890  0.5500 -0.3485 -0.1662
  628TIP3    H123375   1.090   5.091  15.822  0.6155  0.3322 -0.1120
  628TIP3    H223376   1.177   4.985  15.886 -1.7918 -0.9946  1.1024
  629TIP3   OH223377   6.161   5.328  10.711  0.3982 -0.2527 -0.6297
  629TIP3    H123378   6.086   5.331  10.652  0.4435 -1.5106 -0.7867
  629TIP3    H223379   6.127   5.288  10.791  0.4747  0.9105  0.0101
  630TIP3   OH223380   1.794   1.550  14.301  0.0506 -0.0223  0.3736
  630TIP3    H123381   1.785   1.642  14.276  1.5112  0.3095  0.9604
  630TIP3    H223382   1.872   1.520  14.254  0.5237 -0.4952  1.4382
  631TIP3   OH223383   1.794   2.752   0.693  0.0616 -0.8454 -0.3994
  631TIP3    H123384   1.732   2.726   0.625  0.8415 -1.7063 -0.8078
  631TIP3    H223385   1.769   2.699   0.769 -2.2186  1.6978  0.7688
  632TIP3   OH223386   1.042   4.437  12.330  0.4040  0.1056  0.4448
  632TIP3    H123387   1.101   4.381  12.381 -0.3647 -0.0528  1.1790
  632TIP3    H223388   1.083   4.523  12.333  1.7438 -0.4318 -0.9234
  633TIP3   OH223389   3.587   6.681  13.590  0.2811 -0.0969  0.2342
  633TIP3    H123390   3.502   6.656  13.625 -0.4864  1.2391 -0.6194
  633TIP3    H223391   3.581   6.665  13.496 -0.2493  3.0891 -0.3705
  634TIP3   OH223392   4.005   3.100   4.135  0.1139  0.2192  0.0137
  634TIP3    H123393   4.051   3.061   4.209  1.2884 -0.5914 -1.1099
  634TIP3    H223394   3.931   3.146   4.175  0.3816 -0.6716  1.6341
  635TIP3   OH223395   0.637   6.585   3.159 -0.1944  0.0836 -0.0084
  635TIP3    H123396   0.566   6.520   3.156 -0.3279  0.2538 -1.4518
  635TIP3    H223397   0.616   6.641   3.233 -0.5546 -0.9860  0.7223
  636TIP3   OH223398   0.904   3.512  14.068 -0.4226  0.2551  0.1112
  636TIP3    H123399   0.972   3.567  14.027 -0.7272  0.5769  0.0265
  636TIP3    H223400   0.926   3.513  14.161  0.7992 -1.2160 -0.1264
  637TIP3   OH223401   0.912   2.779   0.969 -0.7612 -0.3785  1.2179
  637TIP3    H123402   0.832   2.829   0.982 -0.9116 -0.8782  2.3064
  637TIP3    H223403   0.946   2.810   0.885 -2.2464 -0.3894  0.5819
  638TIP3   OH223404   3.376   5.697  13.535 -0.5188  0.2273  0.6124
  638TIP3    H123405   3.426   5.645  13.598 -0.3552 -1.2628 -0.6759
  638TIP3    H223406   3.363   5.781  13.578 -1.9944 -1.2872  3.4062
  639TIP3   OH223407   4.215   5.897  14.313 -0.1413 -0.0237 -0.3167
  639TIP3    H123408   4.222   5.804  14.291 -0.0494  0.0954 -0.8117
  639TIP3    H223409   4.306   5.925  14.322 -0.1892 -0.2484  1.0235
  640TIP3   OH223410   0.173   6.480   2.176 -0.5646 -0.0549 -0.3925
  640TIP3    H123411   0.242   6.425   2.215  0.1528 -0.1325 -1.6937
  640TIP3    H223412   0.175   6.458   2.083  0.4327  2.8569 -1.1687
  641TIP3   OH223413   4.938   5.035  15.160  0.5122  0.2130 -0.2509
  641TIP3    H123414   4.849   5.044  15.195 -0.2372 -0.1013 -1.9871
  641TIP3    H223415   4.942   4.944  15.129  1.7480 -0.0346  0.5611
  642TIP3   OH223416   4.351   2.651   6.197 -0.0631 -0.0018  0.2001
  642TIP3    H123417   4.273   2.705   6.208  0.1544  0.2854  0.3521
  642TIP3    H223418   4.424   2.711   6.210  0.2742 -0.9617  4.0809
  643TIP3   OH223419   3.708   0.760   3.210 -0.4620 -0.3285  0.1499
  643TIP3    H123420   3.640   0.752   3.276 -1.3753  1.9231 -0.4299
  643TIP3    H223421   3.687   0.841   3.163  1.3513 -0.7421 -1.5189
  644TIP3   OH223422   0.590   2.237  15.625  0.8330  0.0175 -0.4916
  644TIP3    H123423   0.533   2.230  15.549 -1.8965  1.8555  1.2060
  644TIP3    H223424   0.649   2.310  15.605 -0.7407  1.3602 -0.3726
  645TIP3   OH223425   0.610   2.935   0.431  0.5777  0.2145  0.0498
  645TIP3    H123426   0.653   2.893   0.357 -0.0100  0.1993 -0.2904
  645TIP3    H223427   0.584   3.021   0.398  0.8894  0.4627  0.4399
  646TIP3   OH223428   2.145   5.620  14.786  0.1159  0.1755  0.3578
  646TIP3    H123429   2.064   5.569  14.785  0.4650 -0.4926 -2.0728
  646TIP3    H223430   2.162   5.639  14.693  3.8326 -1.5304  0.5226
  647TIP3   OH223431   1.373   2.353   4.184  0.3227 -0.2702 -0.6309
  647TIP3    H123432   1.282   2.324   4.187  0.6126 -1.1412 -0.0154
  647TIP3    H223433   1.385   2.384   4.094 -0.7251  0.3675 -0.5691
  648TIP3   OH223434   2.171   0.465   3.327  0.0723  0.3629  0.0727
  648TIP3    H123435   2.217   0.440   3.407  0.7422  1.3767  0.0236
  648TIP3    H223436   2.206   0.551   3.306 -0.9990  0.6334 -0.6371
  649TIP3   OH223437   1.098   2.602  15.085 -0.0764  0.3274 -0.7401
  649TIP3    H123438   1.127   2.519  15.046 -1.2924 -0.5224  0.0812
  649TIP3    H223439   1.006   2.610  15.058 -0.1938  0.9931 -0.1512
  650TIP3   OH223440   6.328   4.466   5.601  0.1684 -0.0769  0.3317
  650TIP3    H123441   6.420   4.440   5.604  0.4106  0.8518  1.6828
  650TIP3    H223442   6.328   4.547   5.550  0.2825  0.6176  1.4290
  651TIP3   OH223443   2.252   1.119  15.820 -0.0374 -0.0364  0.3135
  651TIP3    H123444   2.180   1.182  15.814 -0.5128 -0.6982 -1.5066
  651TIP3    H223445   2.218   1.052  15.880 -0.4028  0.3023  0.5012
  652TIP3   OH223446   3.234   1.914  16.443 -0.4911  0.0495  0.2553
  652TIP3    H123447   3.165   1.943  16.384 -0.5123 -3.5342 -1.8034
  652TIP3    H223448   3.188   1.877  16.518 -0.6798  0.2820  0.2534
  653TIP3   OH223449   5.515   3.979  11.677  0.1120  0.0669  0.2163
  653TIP3    H123450   5.535   3.906  11.618 -0.6221  0.5453 -0.6506
  653TIP3    H223451   5.560   4.054  11.637  1.2291  0.0221  1.3395
  654TIP3   OH223452   3.807   6.650  14.953 -0.6424  0.2508 -0.1961
  654TIP3    H123453   3.868   6.584  14.918 -0.7317  0.1414 -0.1428
  654TIP3    H223454   3.787   6.620  15.041 -0.0916  0.7483  0.1063
  655TIP3   OH223455   3.519   1.393  11.000  0.1323 -0.5553 -0.3701
  655TIP3    H123456   3.427   1.383  10.977 -0.3778 -1.4399  1.8217
  655TIP3    H223457   3.545   1.307  11.032  1.4925 -0.0950 -0.1898
  656TIP3   OH223458   3.097   0.348  11.166  0.4040 -0.6532 -0.1754
  656TIP3    H123459   3.115   0.254  11.157  1.8320 -0.6726  2.0301
  656TIP3    H223460   3.173   0.390  11.124 -0.3843 -0.4371 -1.4364
  657TIP3   OH223461   2.269   0.201   5.064 -0.0877 -0.1960 -0.0685
  657TIP3    H123462   2.237   0.291   5.057  0.8732  0.3074  1.4631
  657TIP3    H223463   2.364   0.209   5.063  0.0631 -1.4927 -2.6848
  658TIP3   OH223464   2.552   6.543   0.960 -0.5776  0.1971 -0.3484
  658TIP3    H123465   2.520   6.487   1.031  0.4646  0.7171  0.5597
  658TIP3    H223466   2.528   6.632   0.987  1.3039  0.5678  0.2194
  659TIP3   OH223467   4.974   6.179  12.445 -0.2005  0.4281  0.0672
  659TIP3    H123468   4.976   6.133  12.361  0.2224  0.7472 -0.1027
  659TIP3    H223469   5.046   6.242  12.439 -0.9736  1.3425  0.1512
  660TIP3   OH223470   6.732   0.830  16.351 -0.5957 -0.2514 -0.1422
  660TIP3    H123471   6.660   0.800  16.406  0.0722  0.2620  1.0277
  660TIP3    H223472   6.764   0.909  16.393  0.0957  0.0258 -1.1350
  661TIP3   OH223473   0.780   3.688  11.270  0.1745  0.0559 -0.3419
  661TIP3    H123474   0.801   3.760  11.330  1.7344 -1.3369  0.8660
  661TIP3    H223475   0.830   3.614  11.303 -3.7381 -2.5629  0.3941
  662TIP3   OH223476   5.788   4.660   1.374 -0.0870 -0.2097 -0.0622
  662TIP3    H123477   5.870   4.632   1.334 -0.1990  0.9340 -1.1407
  662TIP3    H223478   5.790   4.756   1.369 -0.2242  0.0152  2.4481
  663TIP3   OH223479   4.576   6.372  16.178 -0.1762 -0.0052 -0.4054
  663TIP3    H123480   4.508   6.431  16.145  0.8109  1.0627 -0.6198
  663TIP3    H223481   4.582   6.392  16.271 -0.5916 -0.5593 -0.2562
  664TIP3   OH223482   4.498   5.646   5.960 -0.3434  0.2283  0.4657
  664TIP3    H123483   4.551   5.602   5.893 -1.5311 -0.0227 -0.3358
  664TIP3    H223484   4.557   5.712   5.997  0.6630 -0.3232 -0.1041
  665TIP3   OH223485   6.570   1.324  13.574  0.4510 -0.2382  0.0713
  665TIP3    H123486   6.556   1.238  13.614 -0.8678  0.4282  1.0982
  665TIP3    H223487   6.488   1.371  13.588  0.6293  0.7049 -1.7620
  666TIP3   OH223488   0.110   3.473   0.067 -0.1501  0.5689 -0.1705
  666TIP3    H123489   0.057   3.427   0.132  0.3827 -0.7996 -0.6786
  666TIP3    H223490   0.046   3.519   0.012 -0.8359 -0.8741 -0.6322
  667TIP3   OH223491   0.692   0.190   6.596 -0.3185 -0.3558  0.2833
  667TIP3    H123492   0.765   0.206   6.536 -1.2139 -2.2998 -1.4788
  667TIP3    H223493   0.657   0.276   6.615  1.7095  0.5277  0.2547
  668TIP3   OH223494   0.158   5.767   1.237 -0.3124 -0.2454 -0.0490
  668TIP3    H123495   0.189   5.726   1.156  1.1427  0.9474 -0.1404
  668TIP3    H223496   0.196   5.713   1.307 -1.0587 -0.9080 -0.1345
  669TIP3   OH223497   5.644   0.033  14.107  0.0586 -0.5045 -0.3344
  669TIP3    H123498   5.695   0.058  14.184  1.1790 -0.5783 -1.0299
  669TIP3    H223499   5.703  -0.023  14.056 -1.7619 -3.1924  0.3102
  670TIP3   OH223500   1.378   1.328  14.329 -0.3441  0.3017  0.4547
  670TIP3    H123501   1.358   1.381  14.406  1.2364  0.9444  0.4587
  670TIP3    H223502   1.378   1.238  14.362  1.2423  0.6263  1.4707
  671TIP3   OH223503   6.840   6.243   1.738 -0.4799  0.3406  0.7033
  671TIP3    H123504   6.890   6.276   1.663  1.2202 -1.0150  1.1902
  671TIP3    H223505   6.759   6.209   1.700 -0.4712  1.3605 -0.2757
  672TIP3   OH223506   2.006   2.445   0.024  0.4967  0.1322 -0.0002
  672TIP3    H123507   2.038   2.371   0.075 -0.4290 -0.0717  0.3046
  672TIP3    H223508   1.939   2.408  -0.034  1.6958  0.3091 -1.5638
  673TIP3   OH223509   3.499   0.080  11.852 -0.1560  0.7003  0.2768
  673TIP3    H123510   3.548   0.160  11.833 -1.0996  0.8448 -1.8519
  673TIP3    H223511   3.422   0.084  11.794 -0.9809 -1.0574  1.1575
  674TIP3   OH223512   2.248   2.014  14.232  0.6702 -0.0583 -0.3087
  674TIP3    H123513   2.293   1.931  14.249 -0.3884 -0.6041 -0.0691
  674TIP3    H223514   2.243   2.057  14.318  0.4337 -0.1557 -0.2730
  675TIP3   OH223515   2.844   5.185  13.897  0.5295 -0.4352  0.0566
  675TIP3    H123516   2.887   5.141  13.970  2.3780  1.6065  0.3282
  675TIP3    H223517   2.784   5.247  13.938  0.8661  0.0378 -0.1418
  676TIP3   OH223518   3.418   4.039   0.900  0.2198 -0.3266  0.9586
  676TIP3    H123519   3.442   3.947   0.908 -0.5092 -0.3864  2.8489
  676TIP3    H223520   3.354   4.042   0.829  0.5710 -1.1925  0.5996
  677TIP3   OH223521   1.863   3.362  11.774  0.1535  0.0531  0.2597
  677TIP3    H123522   1.919   3.408  11.836  0.0800  1.3830 -0.6226
  677TIP3    H223523   1.832   3.285  11.822 -0.6575  1.5037  2.2283
  678TIP3   OH223524   2.221   2.623  13.676  0.6218 -0.4297  0.2239
  678TIP3    H123525   2.130   2.593  13.666 -0.4605  2.3888  0.6095
  678TIP3    H223526   2.273   2.556  13.634 -1.7240 -1.6730 -0.9070
  679TIP3   OH223527   1.349   3.155   0.716  0.3974 -0.3952  0.1007
  679TIP3    H123528   1.285   3.084   0.725  1.2691 -1.4919 -1.6179
  679TIP3    H223529   1.412   3.139   0.785 -0.9455  0.5109  1.6120
  680TIP3   OH223530   0.228   4.947   2.528  0.0955 -0.8582 -0.0847
  680TIP3    H123531   0.167   4.950   2.454  0.4992  0.3012 -0.3844
  680TIP3    H223532   0.224   5.034   2.566  1.4766 -0.7911 -0.0451
  681TIP3   OH223533   5.895   3.601  12.571 -0.6146 -0.3228  0.1780
  681TIP3    H123534   5.948   3.600  12.651 -0.1876  0.1435 -0.0856
  681TIP3    H223535   5.845   3.683  12.577  1.7016  1.3413 -1.4379
  682TIP3   OH223536   3.296   6.414   5.608 -0.2858  0.0144 -0.5509
  682TIP3    H123537   3.221   6.469   5.633 -1.7092 -1.1874 -1.9911
  682TIP3    H223538   3.278   6.388   5.518  1.7838 -0.5177 -0.8733
  683TIP3   OH223539   1.902   2.773  13.946 -0.2553  0.6828  0.3942
  683TIP3    H123540   1.993   2.757  13.970 -0.2872  0.8238  0.6122
  683TIP3    H223541   1.902   2.863  13.912 -0.4226  0.9032  0.9672
  684TIP3   OH223542   4.303   0.289  12.560 -0.1529  0.3459  0.1429
  684TIP3    H123543   4.224   0.341  12.573 -1.8474 -2.0540  0.0198
  684TIP3    H223544   4.303   0.267  12.467  1.7614  1.8804 -0.2937
  685TIP3   OH223545   0.377   1.535   2.351 -0.0471 -0.3081  0.6646
  685TIP3    H123546   0.426   1.590   2.289 -1.0713  0.3959  0.4634
  685TIP3    H223547   0.354   1.457   2.300  0.2939 -0.3527  0.5717
  686TIP3   OH223548   2.647   0.371   1.913 -0.3804  0.2240  0.4085
  686TIP3    H123549   2.600   0.320   1.848 -0.6343  1.7609 -0.6818
  686TIP3    H223550   2.739   0.367   1.885 -0.3049 -0.2155  0.7253
  687TIP3   OH223551   4.903   6.101   1.881 -0.1390  0.0191 -0.1403
  687TIP3    H123552   4.981   6.047   1.888  0.5643  0.3299 -3.8614
  687TIP3    H223553   4.835   6.042   1.850 -0.1089  0.6322 -1.4427
  688TIP3   OH223554   6.250   3.744  14.914  0.6052  0.3731  0.1945
  688TIP3    H123555   6.323   3.741  14.975 -0.0357  0.9452  1.0133
  688TIP3    H223556   6.267   3.820  14.859 -0.2109  1.5292  1.4937
  689TIP3   OH223557   5.551   3.608   2.252  0.1561 -0.0209  0.2096
  689TIP3    H123558   5.492   3.550   2.301  0.4117  0.5390  1.2198
  689TIP3    H223559   5.631   3.609   2.304  0.3702  0.7425 -0.1278
  690TIP3   OH223560   6.599   5.535  15.208 -0.3778 -0.0652 -0.3673
  690TIP3    H123561   6.504   5.521  15.214 -0.1645 -1.2309  0.9697
  690TIP3    H223562   6.609   5.602  15.141 -2.0851 -0.6650 -1.2983
  691TIP3   OH223563   0.770   4.720   3.302  0.3049 -0.0418  0.1062
  691TIP3    H123564   0.676   4.735   3.297  0.2098  0.2142  1.9250
  691TIP3    H223565   0.807   4.779   3.236 -0.8093 -0.6337 -1.1110
  692TIP3   OH223566   4.917   4.920  12.828 -0.2206  0.0202 -0.4007
  692TIP3    H123567   4.888   4.916  12.919 -1.9674 -2.1755 -0.9654
  692TIP3    H223568   4.998   4.869  12.826 -1.1087 -1.4463 -0.3381
  693TIP3   OH223569   1.876   1.321   1.159 -0.4489  0.0483 -0.2781
  693TIP3    H123570   1.836   1.344   1.243 -1.2313  0.2032 -0.6873
  693TIP3    H223571   1.970   1.339   1.171 -0.3240 -1.3720  1.0524
  694TIP3   OH223572   0.894   0.589  13.116 -0.9402 -0.3702  0.0378
  694TIP3    H123573   0.973   0.643  13.111 -2.5322  2.0625  0.0417
  694TIP3    H223574   0.912   0.515  13.058  0.8355  0.7719 -0.9515
  695TIP3   OH223575   3.964   0.652   3.495  0.0638 -0.3087 -0.1838
  695TIP3    H123576   3.930   0.742   3.486 -0.1588 -0.5835 -2.5744
  695TIP3    H223577   3.894   0.606   3.543 -0.0656  0.6272  0.5768
  696TIP3   OH223578   1.897   5.248  15.828  0.2363 -0.2966 -0.3760
  696TIP3    H123579   1.807   5.261  15.859  0.1062 -2.0190  0.0694
  696TIP3    H223580   1.929   5.336  15.809 -1.1754  0.4398  0.5126
  697TIP3   OH223581   0.260   2.554   4.474 -0.1934  0.1479  0.7056
  697TIP3    H123582   0.200   2.536   4.546  0.4325  1.5580  1.6126
  697TIP3    H223583   0.342   2.581   4.516  0.9908 -1.3812 -0.5062
  698TIP3   OH223584   4.846   2.456   5.187  0.2678 -0.6022  0.1240
  698TIP3    H123585   4.773   2.462   5.249  1.2362  0.9972  1.2074
  698TIP3    H223586   4.812   2.406   5.114 -0.9264 -2.6453  1.9674
  699TIP3   OH223587   4.523   6.317  11.146  0.6045 -0.4925  0.8604
  699TIP3    H123588   4.534   6.232  11.189  0.4570 -1.5031 -0.9747
  699TIP3    H223589   4.596   6.321  11.084  0.9361  1.0034  1.3182
  700TIP3   OH223590   1.286   5.935  11.180  0.0764  0.1517 -0.0407
  700TIP3    H123591   1.328   6.021  11.180 -1.1514  0.7789 -0.7936
  700TIP3    H223592   1.281   5.910  11.272  2.5615 -0.2140  0.0605
  701TIP3   OH223593   1.878   2.595   2.419 -0.7771  0.3143 -0.0236
  701TIP3    H123594   1.859   2.502   2.425  1.0716 -0.1917 -1.2134
  701TIP3    H223595   1.897   2.622   2.509  1.8420 -1.2461 -0.0235
  702TIP3   OH223596   6.261   6.251   3.095  0.4928  0.4197  0.2518
  702TIP3    H123597   6.311   6.304   3.034  0.8680 -0.9172 -0.6563
  702TIP3    H223598   6.176   6.238   3.052  0.9918 -1.0891 -0.3475
  703TIP3   OH223599   3.890   0.230  16.858 -0.1128  0.3374  0.2794
  703TIP3    H123600   3.857   0.171  16.790 -0.6034  1.9870 -0.9790
  703TIP3    H223601   3.985   0.228  16.847 -0.2128  1.1719 -1.0246
  704TIP3   OH223602   0.656   0.141  11.805  0.1910  0.7687 -0.1100
  704TIP3    H123603   0.697   0.055  11.817 -3.1321 -0.8888  0.7505
  704TIP3    H223604   0.707   0.201  11.859  1.7673 -0.9645  0.4133
  705TIP3   OH223605   1.044   2.659   0.413 -0.3751  0.0283 -0.0631
  705TIP3    H123606   1.130   2.684   0.447  0.8967 -0.5963 -2.5649
  705TIP3    H223607   1.011   2.595   0.476  1.2442 -0.1414  0.6671
  706TIP3   OH223608   2.449   3.661  14.551  0.0132 -0.1504  0.1535
  706TIP3    H123609   2.520   3.713  14.513  0.6776  0.7655  2.4913
  706TIP3    H223610   2.492   3.592  14.600 -0.7793 -0.7942 -0.0357
  707TIP3   OH223611   3.263   2.310   0.781 -0.2711 -0.4562  0.1691
  707TIP3    H123612   3.309   2.251   0.722  0.3253 -0.1784  0.3538
  707TIP3    H223613   3.330   2.370   0.813 -0.7800  0.0134  0.3658
  708TIP3   OH223614   0.307   2.392  12.930  0.1168  0.1364 -0.3213
  708TIP3    H123615   0.266   2.478  12.927 -1.3892 -0.5529 -0.7749
  708TIP3    H223616   0.329   2.373  12.839  1.5573  0.5174 -0.0780
  709TIP3   OH223617   1.071   6.540  11.762  0.4295 -0.4220  0.2874
  709TIP3    H123618   1.081   6.601  11.835 -0.5454  0.7597 -0.5405
  709TIP3    H223619   0.982   6.506  11.771  0.4173 -0.5139 -0.1837
  710TIP3   OH223620   2.857   2.418   0.308  0.3879 -0.0110 -1.0070
  710TIP3    H123621   2.834   2.326   0.291  1.1510 -0.6197  0.9155
  710TIP3    H223622   2.788   2.468   0.265 -0.0007 -1.4828 -2.1713
  711TIP3   OH223623   3.959   5.663   2.694  0.2381 -0.7438 -0.0318
  711TIP3    H123624   4.053   5.658   2.679  0.2146 -0.3521 -0.3099
  711TIP3    H223625   3.934   5.573   2.716  0.3395 -1.2605 -1.8665
  712TIP3   OH223626   6.470   5.292   3.677 -0.0969 -0.2835 -0.1611
  712TIP3    H123627   6.458   5.385   3.654  1.2595 -0.2031 -0.6156
  712TIP3    H223628   6.552   5.290   3.725 -1.7451 -0.7914  2.8580
  713TIP3   OH223629   0.890   0.265  16.753  0.4523  0.1873  0.0340
  713TIP3    H123630   0.861   0.225  16.671  0.2988  2.3273 -0.9972
  713TIP3    H223631   0.810   0.287  16.800  0.5386 -0.7263  0.6468
  714TIP3   OH223632   0.736   6.258   2.088  0.2198  0.2941 -0.8271
  714TIP3    H123633   0.812   6.316   2.099 -0.1506  0.7118 -0.4177
  714TIP3    H223634   0.661   6.317   2.081 -0.2136 -0.1378 -0.0106
  715TIP3   OH223635   1.470   4.386   5.517  0.0357  0.9324  0.0596
  715TIP3    H123636   1.404   4.321   5.493  0.2494 -0.4158  2.7162
  715TIP3    H223637   1.551   4.353   5.480 -0.0192  0.1534  0.6200
  716TIP3   OH223638   0.765   5.488   2.992  0.1594 -0.4530  0.1802
  716TIP3    H123639   0.818   5.409   2.983 -0.2590 -0.6655 -0.5865
  716TIP3    H223640   0.755   5.501   3.086  0.3263 -1.2566  0.3115
  717TIP3   OH223641   3.821   4.298   0.553 -0.0001 -0.0695  0.1515
  717TIP3    H123642   3.727   4.282   0.565 -0.2693  0.8480 -0.6140
  717TIP3    H223643   3.860   4.270   0.636 -0.7227 -2.0659 -0.1191
  718TIP3   OH223644   6.420   5.666   4.159 -0.2785 -0.3596  0.2178
  718TIP3    H123645   6.487   5.601   4.178  0.1430 -0.9474 -2.7172
  718TIP3    H223646   6.467   5.734   4.110 -1.4260  0.2914 -0.0111
  719TIP3   OH223647   2.815   2.356   0.967 -0.1502  1.0048 -0.0755
  719TIP3    H123648   2.750   2.299   1.008 -1.1379  2.4648  0.4916
  719TIP3    H223649   2.765   2.409   0.906  0.8547  0.8328 -1.0877
  720TIP3   OH223650   1.284   6.196  16.328 -0.0318 -0.2192  0.0778
  720TIP3    H123651   1.300   6.218  16.236 -0.9451  0.1923  0.0019
  720TIP3    H223652   1.235   6.114  16.325  1.4121 -1.1257  0.2800
  721TIP3   OH223653   0.126   5.821   5.865 -0.0242 -0.8645 -1.1874
  721TIP3    H123654   0.068   5.895   5.850  1.5551  0.5874 -0.5561
  721TIP3    H223655   0.072   5.743   5.849 -1.9586  0.4005 -1.0880
  722TIP3   OH223656   1.719   0.788   2.293 -0.0724  0.2450 -0.3561
  722TIP3    H123657   1.660   0.715   2.273  2.4571 -2.3499  0.8849
  722TIP3    H223658   1.701   0.853   2.224 -2.0328 -1.7903 -1.9322
  723TIP3   OH223659   0.040   0.687   5.495 -0.6791  0.6049 -0.6871
  723TIP3    H123660   0.021   0.601   5.458 -4.0456  0.8301  0.2100
  723TIP3    H223661   0.059   0.671   5.587  0.8611  0.6853 -0.9614
  724TIP3   OH223662   1.005   0.920   1.868  0.1983 -0.1689  0.1932
  724TIP3    H123663   1.024   0.874   1.786 -0.4441 -0.1892  0.0549
  724TIP3    H223664   0.939   0.866   1.911  1.8322 -1.1613  1.5998
  725TIP3   OH223665   5.248   5.003  10.327 -0.3522 -0.1994  0.4214
  725TIP3    H123666   5.275   4.912  10.341 -0.0120 -0.4352 -1.5442
  725TIP3    H223667   5.154   4.997  10.309 -0.5993  0.0104  1.5301
  726TIP3   OH223668   5.352   2.591   2.138  0.3187 -0.1599  0.3637
  726TIP3    H123669   5.386   2.537   2.210 -1.8884  1.0945  2.5344
  726TIP3    H223670   5.371   2.681   2.165 -2.5378  0.4592  0.6356
  727TIP3   OH223671   4.873   2.217  14.833  0.1744  0.1709 -0.0997
  727TIP3    H123672   4.804   2.246  14.773  1.1635 -0.4652 -1.5822
  727TIP3    H223673   4.938   2.287  14.830  1.0262 -0.6396 -1.1327
  728TIP3   OH223674   4.334   5.131   1.536 -0.4721  0.7172 -0.4521
  728TIP3    H123675   4.292   5.080   1.605 -0.9497 -0.2553 -1.4242
  728TIP3    H223676   4.406   5.076   1.506 -1.4805  0.1977 -2.0632
  729TIP3   OH223677   5.744   1.773   3.209  0.0753  0.0213  0.2064
  729TIP3    H123678   5.724   1.744   3.298 -1.0303  1.3802  0.4455
  729TIP3    H223679   5.824   1.727   3.185 -0.4856 -1.5925  1.2973
  730TIP3   OH223680   1.709   6.421  14.097  0.0068  0.3818  0.3066
  730TIP3    H123681   1.766   6.497  14.103 -0.3154  0.5566  1.1820
  730TIP3    H223682   1.750   6.366  14.030 -0.1671  1.6575 -0.8988
  731TIP3   OH223683   3.247   1.011  11.164  0.2192  0.6909 -0.0753
  731TIP3    H123684   3.324   1.008  11.107  1.2401  2.8010  1.0822
  731TIP3    H223685   3.270   0.955  11.238 -0.5323 -0.9024 -0.9995
  732TIP3   OH223686   0.406   3.759   1.007 -0.1929  0.3635 -0.1753
  732TIP3    H123687   0.359   3.685   1.045  0.0896  0.1577 -0.2271
  732TIP3    H223688   0.343   3.799   0.947 -0.7886  0.9371  0.8077
  733TIP3   OH223689   4.542   5.001  13.351 -0.9465 -0.2634 -0.7087
  733TIP3    H123690   4.509   5.086  13.380 -0.1241  0.1254 -0.8816
  733TIP3    H223691   4.619   5.022  13.297  1.1923 -1.1933  1.7739
  734TIP3   OH223692   4.074   1.725  16.004  0.1533 -0.5404  0.0648
  734TIP3    H123693   4.116   1.644  16.033  0.1959 -0.8858 -0.9057
  734TIP3    H223694   4.096   1.730  15.910 -1.9557 -0.7285 -0.4860
  735TIP3   OH223695   3.172   4.079   2.202 -0.0948 -1.0647 -0.4480
  735TIP3    H123696   3.219   4.018   2.144  1.2881 -1.2010  0.7511
  735TIP3    H223697   3.082   4.047   2.204  0.1718 -1.9134 -1.3664
  736TIP3   OH223698   3.322   2.940   3.480  0.4644 -0.4437  0.0976
  736TIP3    H123699   3.402   2.962   3.432  0.3083  1.3306  0.5973
  736TIP3    H223700   3.332   2.847   3.501  1.2914 -0.8722 -1.8948
  737TIP3   OH223701   3.278   3.607  15.742  0.3764  0.3541 -0.3021
  737TIP3    H123702   3.273   3.695  15.777  1.0597  0.9913 -1.7006
  737TIP3    H223703   3.351   3.566  15.788  0.4536  0.7364 -0.0882
  738TIP3   OH223704   6.260   3.998  16.762 -0.0735 -0.5494  0.1819
  738TIP3    H123705   6.265   4.093  16.765  1.4057 -0.6168  1.3834
  738TIP3    H223706   6.168   3.978  16.776 -0.6038  0.7119 -1.2978
  739TIP3   OH223707   2.019   4.858  15.253  0.1151 -0.1610  0.2120
  739TIP3    H123708   2.062   4.844  15.338 -0.7856 -3.3963  0.2748
  739TIP3    H223709   2.090   4.855  15.189  0.4297 -1.6083  0.5971
  740TIP3   OH223710   2.813   3.088   1.727  0.4621 -0.2495 -0.0064
  740TIP3    H123711   2.811   3.121   1.817 -0.8173  0.4639 -0.2658
  740TIP3    H223712   2.780   2.998   1.734 -0.0279 -0.0586  0.1940
  741TIP3   OH223713   3.377   0.878   3.138 -0.5797 -0.2531 -0.3885
  741TIP3    H123714   3.365   0.944   3.206 -0.0253  0.0357 -0.5676
  741TIP3    H223715   3.294   0.829   3.137 -0.8926  0.2641 -0.0755
  742TIP3   OH223716   6.076   2.948   5.187  0.9499  0.3261  0.3198
  742TIP3    H123717   6.164   2.910   5.194  0.8640 -0.1916 -1.0521
  742TIP3    H223718   6.028   2.887   5.130  0.3440  1.6914 -0.6955
  743TIP3   OH223719   3.218   4.693   0.124 -0.1606 -0.2119 -0.3347
  743TIP3    H123720   3.270   4.644   0.188  1.4212  0.5060 -1.0094
  743TIP3    H223721   3.227   4.785   0.152 -1.3406 -0.0918 -0.2995
  744TIP3   OH223722   3.615   3.724  14.024 -0.1455  0.1283 -0.5365
  744TIP3    H123723   3.582   3.759  13.942 -1.4470 -0.6490 -0.3623
  744TIP3    H223724   3.576   3.780  14.092 -0.0320  0.0225 -0.3833
  745TIP3   OH223725   5.349   3.961  16.328  0.1091  0.0581  0.2753
  745TIP3    H123726   5.420   4.000  16.277  1.1348 -0.6135  1.1553
  745TIP3    H223727   5.278   3.948  16.265  0.3862  1.6764 -0.4079
  746TIP3   OH223728   5.153   5.119  15.699 -0.4529  0.0739 -0.3637
  746TIP3    H123729   5.230   5.175  15.686 -0.5079  0.0209 -0.9172
  746TIP3    H223730   5.175   5.066  15.776  0.1928 -0.1560 -0.7014
  747TIP3   OH223731   3.425   2.230   4.083  0.3175  0.2880  0.0650
  747TIP3    H123732   3.400   2.194   4.168 -0.2632 -1.6214 -0.8503
  747TIP3    H223733   3.508   2.187   4.063 -0.2936 -0.4387 -0.9800
  748TIP3   OH223734   4.922   6.833  14.751  0.3052 -0.1022  0.4827
  748TIP3    H123735   4.942   6.742  14.728 -0.7075 -0.3580  0.5686
  748TIP3    H223736   5.007   6.871  14.775  1.0681 -0.4163 -1.5710
  749TIP3   OH223737   3.403   2.502   4.794  0.5636 -0.1471  0.5333
  749TIP3    H123738   3.347   2.533   4.865 -0.1021 -1.9111  0.8410
  749TIP3    H223739   3.436   2.418   4.825 -1.2181 -1.9191 -1.9094
  750TIP3   OH223740   1.183   3.397   5.532  0.2455  0.2446 -0.3174
  750TIP3    H123741   1.208   3.372   5.443  0.4576  0.1004 -0.2173
  750TIP3    H223742   1.093   3.365   5.541 -1.4238  3.8917 -1.9459
  751TIP3   OH223743   3.158   1.142  16.793  0.0867  0.1820  0.3352
  751TIP3    H123744   3.183   1.194  16.716  1.4656  0.1146  0.6951
  751TIP3    H223745   3.135   1.208  16.859  2.3047  0.4328  0.9464
  752TIP3   OH223746   2.481   5.641   4.424 -0.0003  1.0390  0.3051
  752TIP3    H123747   2.386   5.654   4.421 -0.2000 -0.3349 -0.2759
  752TIP3    H223748   2.502   5.598   4.341  0.7453 -0.8706  1.4156
  753TIP3   OH223749   4.026   0.833   5.765 -0.0548  0.1971  0.1050
  753TIP3    H123750   3.959   0.876   5.712  1.7261  0.1005 -2.4300
  753TIP3    H223751   4.083   0.903   5.795 -0.2945  0.1189  0.7527
  754TIP3   OH223752   6.484   3.420   4.077  0.3816  0.4208 -0.0450
  754TIP3    H123753   6.477   3.324   4.078  0.1540  0.4112 -1.0949
  754TIP3    H223754   6.427   3.447   4.005 -0.2528  1.4175  0.8107
  755TIP3   OH223755   6.713   6.562   5.113 -0.9023  0.6931  0.3006
  755TIP3    H123756   6.799   6.536   5.080 -1.0474  1.5900 -0.8681
  755TIP3    H223757   6.732   6.618   5.188 -0.4890  0.3536  0.4520
  756TIP3   OH223758   5.998   4.288   4.790 -0.0347 -0.1730 -0.8774
  756TIP3    H123759   5.938   4.234   4.739  1.4724 -1.1633 -1.6831
  756TIP3    H223760   6.053   4.332   4.724  0.8355 -0.1589 -0.1642
  757TIP3   OH223761   4.712   1.447   5.522  0.2310 -0.3131  0.2406
  757TIP3    H123762   4.733   1.383   5.455  1.1942  0.6549 -0.4106
  757TIP3    H223763   4.617   1.461   5.514  0.3153 -0.3135 -0.8268
  758TIP3   OH223764   0.628   1.113  13.344  0.0344 -0.2908  0.2224
  758TIP3    H123765   0.650   1.180  13.278  1.2904 -0.5171  0.3975
  758TIP3    H223766   0.629   1.160  13.427  1.9375 -0.7022  0.4680
  759TIP3   OH223767   0.172   1.488  14.843 -0.0159  0.4850 -0.3540
  759TIP3    H123768   0.093   1.435  14.835 -0.1119  0.7169 -0.9914
  759TIP3    H223769   0.242   1.425  14.860 -0.3195  0.2727  0.1553
  760TIP3   OH223770   6.743   6.815   3.188  0.0735  0.7212  0.3441
  760TIP3    H123771   6.797   6.741   3.213  0.3479  1.3121  1.5552
  760TIP3    H223772   6.670   6.814   3.250 -0.6544  0.6683 -0.4894
  761TIP3   OH223773   0.401   1.992   1.935 -0.3706  0.1951 -0.8765
  761TIP3    H123774   0.463   1.920   1.927 -2.3397 -1.4412 -2.2717
  761TIP3    H223775   0.365   2.003   1.847 -2.2985  0.8530 -0.0605
  762TIP3   OH223776   4.313   4.006   0.999  0.0214  0.0542 -0.0370
  762TIP3    H123777   4.361   4.026   0.919  0.3542  1.6993  0.5226
  762TIP3    H223778   4.381   3.978   1.061 -0.0410  0.1019  0.0535
  763TIP3   OH223779   6.185   0.174   3.740 -0.6735  0.0320  0.1542
  763TIP3    H123780   6.240   0.235   3.691 -1.8567  0.1505 -1.0969
  763TIP3    H223781   6.244   0.136   3.806  1.5854 -1.5528 -2.5209
  764TIP3   OH223782   4.939   5.547   4.780 -0.3783  0.3191 -0.1583
  764TIP3    H123783   5.006   5.597   4.734 -0.3365 -0.1647 -0.6364
  764TIP3    H223784   4.935   5.463   4.733 -1.1165  0.2373  0.0323
  765TIP3   OH223785   2.982   0.194  10.336 -0.1669  0.1239 -0.1219
  765TIP3    H123786   2.965   0.215  10.245 -0.7428  1.0635  0.1923
  765TIP3    H223787   2.980   0.098  10.340 -0.1661  0.0805 -1.0809
  766TIP3   OH223788   0.683   0.190   5.314  0.6948 -0.1226 -0.0916
  766TIP3    H123789   0.663   0.151   5.399  1.5080 -0.1382  0.1009
  766TIP3    H223790   0.716   0.118   5.262 -0.1517 -0.1880 -0.5496
  767TIP3   OH223791   6.293   3.095  14.230  0.5565 -0.2505  0.0495
  767TIP3    H123792   6.290   3.016  14.284  2.6117 -2.0067 -2.1848
  767TIP3    H223793   6.343   3.158  14.283  0.4266 -1.0552  1.1603
  768TIP3   OH223794   3.607   5.457  14.789 -0.3345  0.1109  0.7705
  768TIP3    H123795   3.598   5.378  14.736 -0.2902 -0.2351  1.2687
  768TIP3    H223796   3.518   5.480  14.814 -0.4253  0.6872 -0.0311
  769TIP3   OH223797   5.152   6.669  11.894  0.1343 -0.0819  0.2978
  769TIP3    H123798   5.107   6.667  11.809  0.9997  1.1095 -0.2131
  769TIP3    H223799   5.218   6.738  11.885  1.3100 -1.0080  1.4047
  770TIP3   OH223800   5.048   0.988   6.094  0.1373 -0.2832 -0.0757
  770TIP3    H123801   5.011   1.004   6.181  1.3873 -0.0079  0.4299
  770TIP3    H223802   5.036   1.070   6.048 -0.3671 -0.3727 -0.1169
  771TIP3   OH223803   0.290   0.179  16.425 -0.6095 -0.1267 -0.3108
  771TIP3    H123804   0.330   0.172  16.512 -0.3720 -0.4970 -0.4470
  771TIP3    H223805   0.243   0.096  16.414 -1.7505  0.4504  0.0113
  772TIP3   OH223806   1.357   4.129   0.268  0.3242 -0.2986 -0.3316
  772TIP3    H123807   1.404   4.175   0.199 -1.5243  1.2441 -0.6427
  772TIP3    H223808   1.386   4.170   0.350  0.3623 -0.1245 -0.4327
  773TIP3   OH223809   5.901   3.209   4.230  0.2781 -0.1052 -0.2932
  773TIP3    H123810   5.834   3.276   4.243 -0.2039 -0.7525  0.6742
  773TIP3    H223811   5.968   3.253   4.178  0.3661  1.4009  0.9873
  774TIP3   OH223812   2.413   1.076   4.784  0.2017 -0.0836  0.1768
  774TIP3    H123813   2.361   1.037   4.855  0.2605  2.1429  1.5333
  774TIP3    H223814   2.358   1.068   4.707 -0.9905 -0.2173  1.0183
  775TIP3   OH223815   5.105   4.480  15.727  0.5754  0.2934 -0.3298
  775TIP3    H123816   5.119   4.386  15.721  2.0130  0.4333  0.2823
  775TIP3    H223817   5.104   4.498  15.821  0.7428  0.9342 -0.4435
  776TIP3   OH223818   2.168   0.357  11.240  0.1150 -0.5091 -0.4798
  776TIP3    H123819   2.229   0.284  11.229 -1.0454 -1.2592 -2.4458
  776TIP3    H223820   2.173   0.404  11.157  0.8722  1.7443  0.7693
  777TIP3   OH223821   4.179   2.798   2.341  0.2003 -0.2693 -0.6497
  777TIP3    H123822   4.207   2.725   2.287  0.6424 -0.1209 -0.6271
  777TIP3    H223823   4.255   2.816   2.397 -0.3433 -0.6033  0.2115
  778TIP3   OH223824   2.715   3.273  15.824  0.1466  0.0306  0.7244
  778TIP3    H123825   2.787   3.280  15.887 -2.3635 -0.3235  3.9085
  778TIP3    H223826   2.678   3.361  15.819  0.7450  0.2128 -0.8867
  779TIP3   OH223827   1.503   1.342  12.592 -0.1134  0.1605  0.5325
  779TIP3    H123828   1.476   1.407  12.527  2.6910  1.1642  0.2519
  779TIP3    H223829   1.476   1.379  12.676 -0.1909  0.7996  0.2322
  780TIP3   OH223830   2.627   6.595  13.045 -0.2400 -0.3560  0.3938
  780TIP3    H123831   2.665   6.521  13.092  0.0529  0.1400  0.9552
  780TIP3    H223832   2.561   6.630  13.106  0.5421  0.6462  0.6867
  781TIP3   OH223833   0.525   0.394  11.884  0.7229  0.4603 -0.2794
  781TIP3    H123834   0.569   0.310  11.868  0.3488  0.3319 -0.6516
  781TIP3    H223835   0.544   0.446  11.805 -0.2760  0.1934 -0.7088
  782TIP3   OH223836   4.507   4.317   2.572  0.6264 -0.3570 -0.3722
  782TIP3    H123837   4.416   4.287   2.581  0.6450 -0.0901  0.8717
  782TIP3    H223838   4.559   4.237   2.579  0.4827 -0.5714 -1.5487
  783TIP3   OH223839   4.773   1.773  13.167  0.0120 -0.3159 -0.9283
  783TIP3    H123840   4.721   1.846  13.201 -0.4245 -0.2510 -1.7101
  783TIP3    H223841   4.708   1.713  13.130  0.3554 -1.1707 -0.1926
  784TIP3   OH223842   0.126   6.803  12.477  0.1293 -0.2278  0.0323
  784TIP3    H123843   0.205   6.836  12.519  0.6342 -1.2732 -0.0647
  784TIP3    H223844   0.146   6.712  12.456 -1.2825 -0.6786  0.4790
  785TIP3   OH223845   6.306   6.592   3.535  0.3248 -0.6330  0.3781
  785TIP3    H123846   6.266   6.574   3.450  0.0423 -1.0201  0.5903
  785TIP3    H223847   6.251   6.546   3.598  0.0092  0.3734  0.8695
  786TIP3   OH223848   5.821   4.308   4.404  0.5043 -0.4350  0.2488
  786TIP3    H123849   5.915   4.313   4.425  1.2269  0.0204 -2.6553
  786TIP3    H223850   5.798   4.396   4.374  0.2640 -1.4032 -2.8350
  787TIP3   OH223851   0.923   4.193   0.046  0.3792 -0.0122  0.3522
  787TIP3    H123852   0.975   4.239  -0.020  0.1075 -0.0567  0.1041
  787TIP3    H223853   0.885   4.263   0.099 -2.2888  0.2595 -1.6997
  788TIP3   OH223854   1.979   6.556  15.748  0.1703 -0.0701  0.3763
  788TIP3    H123855   1.909   6.517  15.800  0.0437  1.6454  1.5678
  788TIP3    H223856   1.942   6.637  15.713  0.8649 -0.2448 -0.8574
  789TIP3   OH223857   5.641   0.088   5.791  0.3449  0.4055  0.0117
  789TIP3    H123858   5.553   0.105   5.755  0.7278 -1.4259 -2.0018
  789TIP3    H223859   5.684   0.174   5.788 -0.6033  0.8766 -1.3062
  790TIP3   OH223860   2.069   1.559  11.128 -0.0644  0.4485  0.0202
  790TIP3    H123861   2.091   1.647  11.097  1.6483  0.3190  0.7685
  790TIP3    H223862   1.989   1.572  11.179  1.2605  1.9953  1.8776
  791TIP3   OH223863   3.394   5.302  13.975 -0.5693  0.0810 -0.1560
  791TIP3    H123864   3.470   5.358  13.962 -0.7876 -0.0451 -2.4447
  791TIP3    H223865   3.422   5.216  13.943 -1.2137 -0.3246  0.3593
  792TIP3   OH223866   1.272   4.930  10.462 -0.6274 -0.3219  0.3490
  792TIP3    H123867   1.368   4.928  10.465 -0.5153  0.3688 -1.4333
  792TIP3    H223868   1.245   4.944  10.553  1.0012  0.7053  0.7093
  793TIP3   OH223869   6.474   5.707  14.972 -0.0639 -0.3645 -0.3402
  793TIP3    H123870   6.512   5.794  14.987 -1.7543  0.7578 -2.0315
  793TIP3    H223871   6.461   5.703  14.877 -1.8261 -1.6652 -0.0865
  794TIP3   OH223872   5.275   4.523   0.522 -0.0096 -0.2776 -0.1074
  794TIP3    H123873   5.345   4.462   0.545 -0.0441  0.0693  0.9432
  794TIP3    H223874   5.315   4.609   0.525 -0.2249 -0.1570 -0.5502
  795TIP3   OH223875   5.583   6.156  15.820 -1.0232  0.2885  0.3514
  795TIP3    H123876   5.531   6.221  15.868 -1.3368  0.2866  0.0173
  795TIP3    H223877   5.653   6.207  15.780 -0.9371  0.3345  0.5576
  796TIP3   OH223878   3.059   2.235  13.647  0.0214 -0.4351  0.5683
  796TIP3    H123879   3.073   2.315  13.597 -0.7799  0.4193  1.6414
  796TIP3    H223880   3.082   2.164  13.588 -0.8661  0.5264 -0.9843
  797TIP3   OH223881   0.974   3.968  15.004 -0.1110 -0.0152 -0.5645
  797TIP3    H123882   0.997   3.908  14.933  0.0016 -0.5076 -0.1203
  797TIP3    H223883   1.017   3.932  15.081  1.0953  1.4029 -0.5434
  798TIP3   OH223884   6.640   5.935   4.169  0.5094  0.3094 -0.0072
  798TIP3    H123885   6.675   5.990   4.099  0.7461 -0.3584 -0.4280
  798TIP3    H223886   6.575   5.990   4.212  0.4648  0.7898 -0.6617
  799TIP3   OH223887   2.112   1.738   4.957 -0.4890 -0.3077 -0.0439
  799TIP3    H123888   2.168   1.663   4.976  0.0072  0.1601  0.3635
  799TIP3    H223889   2.083   1.770   5.042 -0.8370 -0.1406 -0.2212
  800TIP3   OH223890   2.542   6.572  15.708  0.0895 -0.0677  0.6242
  800TIP3    H123891   2.611   6.564  15.643 -0.3833 -1.1137  0.2317
  800TIP3    H223892   2.466   6.604  15.659  0.0193  0.1336  0.8621
  801TIP3   OH223893   6.828   3.536  14.685  0.4812 -0.0822 -0.4225
  801TIP3    H123894   6.746   3.497  14.716  1.7137 -0.7051  2.3070
  801TIP3    H223895   6.877   3.462  14.648  0.2362  0.0967 -1.1096
  802TIP3   OH223896   2.267   5.974  13.326  0.1351  0.6402 -0.0726
  802TIP3    H123897   2.193   6.010  13.376 -0.7561  1.3622 -1.8207
  802TIP3    H223898   2.341   6.032  13.348 -0.2046  0.8783  0.4776
  803TIP3   OH223899   3.077   6.595  10.919  0.3337  0.3042 -0.1308
  803TIP3    H123900   3.051   6.676  10.875 -2.0572 -0.9469 -1.2022
  803TIP3    H223901   3.007   6.578  10.981  1.3784 -0.3722  0.8934
  804TIP3   OH223902   5.348   4.871   3.100  0.3780  0.4382  0.3633
  804TIP3    H123903   5.287   4.861   3.026  1.2664  1.2380 -0.5107
  804TIP3    H223904   5.428   4.828   3.071  1.0408  1.5600  0.4528
  805TIP3   OH223905   3.221   5.401  13.576  0.5385  0.4792  0.7122
  805TIP3    H123906   3.232   5.459  13.651 -0.6471  0.6900  0.7379
  805TIP3    H223907   3.206   5.459  13.501  1.0542  0.2520  0.4254
  806TIP3   OH223908   5.580   3.125  16.211  0.1259 -0.1737  0.4048
  806TIP3    H123909   5.657   3.175  16.239 -0.5342  0.7492  0.6207
  806TIP3    H223910   5.615   3.039  16.186  1.1631  0.0873  0.9002
  807TIP3   OH223911   3.341   1.588  11.119 -0.4961 -0.2884 -0.5146
  807TIP3    H123912   3.280   1.545  11.058  0.6089 -1.5166 -0.8013
  807TIP3    H223913   3.426   1.580  11.077 -0.1830  1.9300 -0.3948
  808TIP3   OH223914   5.556   3.197  14.863 -0.3941  0.2386 -0.2328
  808TIP3    H123915   5.568   3.104  14.843 -0.0120  0.1584  0.3649
  808TIP3    H223916   5.501   3.229  14.791 -1.8754 -0.7937  0.3906
  809TIP3   OH223917   0.798   5.710  16.869 -0.7397  0.2314  0.0464
  809TIP3    H123918   0.814   5.694  16.962  2.5758 -0.6745 -0.5193
  809TIP3    H223919   0.735   5.782  16.867 -0.5729  0.5791  2.9947
  810TIP3   OH223920   4.739   5.125   1.135 -0.2144  1.2000 -0.0891
  810TIP3    H123921   4.645   5.141   1.143 -0.1561  1.6179 -0.2119
  810TIP3    H223922   4.779   5.187   1.195 -0.0606  0.3610  0.6856
  811TIP3   OH223923   0.212   4.006  14.347  0.3010  0.3313 -0.2319
  811TIP3    H123924   0.231   4.008  14.441  0.1382 -1.3125 -0.1415
  811TIP3    H223925   0.268   4.074  14.310  1.6067 -0.1128  0.8510
  812TIP3   OH223926   2.155   4.100  11.281  0.2863 -0.2581  0.1164
  812TIP3    H123927   2.179   4.170  11.219  1.3809 -0.4958  0.2521
  812TIP3    H223928   2.061   4.110  11.292 -0.0143 -0.4241 -1.8722
  813TIP3   OH223929   4.618   0.634  15.897  0.2003 -0.0154 -0.1878
  813TIP3    H123930   4.665   0.717  15.904 -0.9696  0.7103 -0.5367
  813TIP3    H223931   4.677   0.569  15.935  0.8451  1.0901  0.7562
  814TIP3   OH223932   4.952   2.591  11.565 -0.1524 -0.1527  0.0858
  814TIP3    H123933   4.994   2.521  11.516  0.0866  0.6624 -0.9041
  814TIP3    H223934   4.858   2.574  11.556 -0.3618  1.8476 -3.7116
  815TIP3   OH223935   2.383   3.606  13.788 -0.0130 -0.1029 -0.5192
  815TIP3    H123936   2.428   3.595  13.872 -0.8307 -0.1866 -0.0882
  815TIP3    H223937   2.450   3.586  13.723  0.2415 -1.4920  0.1312
  816TIP3   OH223938   1.784   4.971  15.348 -0.3976 -0.2261 -0.0183
  816TIP3    H123939   1.857   4.936  15.298  0.8335  0.1140  1.4764
  816TIP3    H223940   1.761   4.902  15.411 -0.7618  0.0223  0.1300
  817TIP3   OH223941   6.767   3.168  13.863 -0.2911  0.1706  0.6647
  817TIP3    H123942   6.731   3.093  13.816 -1.3936  1.2409 -0.2437
  817TIP3    H223943   6.727   3.163  13.950  1.5521 -1.6623  1.5159
  818TIP3   OH223944   5.408   2.598   5.068  0.3805 -0.2463 -0.0341
  818TIP3    H123945   5.376   2.533   5.005 -0.7698  1.8025 -1.6505
  818TIP3    H223946   5.423   2.677   5.016 -0.6854  1.5663  2.2605
  819TIP3   OH223947   1.959   4.638   2.971  0.3190  0.2077  0.1077
  819TIP3    H123948   2.026   4.664   3.034 -1.0408  1.5305  1.0588
  819TIP3    H223949   1.981   4.687   2.892 -0.6300  2.2080  1.0334
  820TIP3   OH223950   2.048   2.904   5.190 -0.6237  0.3586  0.4594
  820TIP3    H123951   1.984   2.975   5.191  1.5346  2.4755 -0.7867
  820TIP3    H223952   2.060   2.883   5.097 -0.8050 -1.2952  0.7751
  821TIP3   OH223953   1.094   2.877  11.523  0.1763  0.1142  0.6341
  821TIP3    H123954   1.189   2.863  11.526  0.5338  1.5574 -1.9488
  821TIP3    H223955   1.081   2.942  11.455 -2.8385 -1.3062 -0.3002
  822TIP3   OH223956   3.633   2.101   5.698  0.2949  0.1077 -0.2655
  822TIP3    H123957   3.671   2.182   5.731 -0.0730  0.1081  0.1705
  822TIP3    H223958   3.585   2.126   5.620 -1.8809  0.7603  1.2054
  823TIP3   OH223959   2.872   5.655  12.208  0.6694  0.3882 -0.0398
  823TIP3    H123960   2.882   5.688  12.297 -0.3586  0.9175 -0.1138
  823TIP3    H223961   2.917   5.570  12.209  3.1431  1.6191  0.2246
  824TIP3   OH223962   0.854   3.086  12.988  0.1635 -0.0023 -0.1302
  824TIP3    H123963   0.772   3.133  12.993 -0.8305 -1.7440  0.9995
  824TIP3    H223964   0.919   3.145  13.027 -1.3665 -0.1945  3.0015
  825TIP3   OH223965   3.371   1.167   5.601 -0.4500  0.2114 -0.2386
  825TIP3    H123966   3.397   1.259   5.606  0.2407  0.1855 -2.3066
  825TIP3    H223967   3.439   1.121   5.650 -0.5416  0.7548  0.4179
  826TIP3   OH223968   2.811   4.572  16.191 -0.0985  0.0502 -1.1088
  826TIP3    H123969   2.850   4.659  16.193 -0.5247  0.2668 -1.9234
  826TIP3    H223970   2.783   4.560  16.100 -1.6993 -0.2072 -0.6146
  827TIP3   OH223971   2.380   0.656  10.832 -0.1987  0.4028  0.8733
  827TIP3    H123972   2.427   0.739  10.820 -0.2718  0.3004 -0.2898
  827TIP3    H223973   2.287   0.680  10.821 -0.1573  0.0275 -0.4377
  828TIP3   OH223974   4.527   5.101   4.501  0.1288 -0.5313 -0.1880
  828TIP3    H123975   4.470   5.028   4.527  2.4596 -2.3291  0.2572
  828TIP3    H223976   4.545   5.148   4.582  0.0254 -0.5192 -0.1716
  829TIP3   OH223977   5.750   1.613  16.581  1.1648  0.5639  0.4832
  829TIP3    H123978   5.683   1.681  16.575  0.0485 -0.1501  3.1914
  829TIP3    H223979   5.828   1.660  16.611  1.5819  1.1942 -1.4413
  830TIP3   OH223980   4.261   5.054  16.112  0.3792 -0.1464 -0.8246
  830TIP3    H123981   4.275   5.148  16.121  1.9183 -0.4299  0.2492
  830TIP3    H223982   4.348   5.016  16.126 -0.1423 -1.7039 -1.6479
  831TIP3   OH223983   1.422   5.224  15.121 -0.4539  0.1753  0.4282
  831TIP3    H123984   1.472   5.199  15.199 -2.1105  0.6779  1.7239
  831TIP3    H223985   1.465   5.178  15.049  2.3763  1.2467  1.2833
  832TIP3   OH223986   5.503   4.836  14.092 -0.2580  0.4316 -0.4213
  832TIP3    H123987   5.524   4.754  14.047  0.2101  0.8005 -0.8858
  832TIP3    H223988   5.427   4.815  14.145  0.5386 -0.6077  0.3439
  833TIP3   OH223989   2.269   3.334   0.474 -0.2108 -0.3420 -0.1061
  833TIP3    H123990   2.223   3.264   0.428 -0.7277  0.6559 -1.1882
  833TIP3    H223991   2.205   3.367   0.537 -1.1942  1.2268 -1.7973
  834TIP3   OH223992   6.159   5.075   4.457  0.1227  0.0930  0.2789
  834TIP3    H123993   6.122   5.084   4.544  0.7112 -1.6558  0.7579
  834TIP3    H223994   6.251   5.098   4.467  0.3319 -0.7179  0.2678
  835TIP3   OH223995   0.765   6.515  16.914  0.3841 -0.0948 -0.3049
  835TIP3    H123996   0.832   6.550  16.972  1.1711 -0.7674 -0.7808
  835TIP3    H223997   0.689   6.571  16.928  1.5782  1.8254 -1.0670
  836TIP3   OH223998   0.638   2.358  14.463 -0.0624  0.1144  0.8173
  836TIP3    H123999   0.547   2.350  14.433 -0.0429  2.6959 -0.1768
  836TIP3    H224000   0.637   2.436  14.519  1.6169  0.4625  0.4080
  837TIP3   OH224001   5.476   4.103   2.363 -0.3053  0.4019  0.5011
  837TIP3    H124002   5.489   4.014   2.329  0.7844  1.1252 -1.1180
  837TIP3    H224003   5.442   4.152   2.289  1.9602  2.0084  0.4115
  838TIP3   OH224004   3.124   1.666  11.912  0.0065 -0.4855  0.2659
  838TIP3    H124005   3.040   1.671  11.958  0.3256 -0.1411  0.8218
  838TIP3    H224006   3.130   1.747  11.862  0.2171 -0.2869  0.6052
  839TIP3   OH224007   3.355   3.741   0.899  0.5081  0.0028 -0.2186
  839TIP3    H124008   3.448   3.725   0.884  0.5546  0.3721 -0.3463
  839TIP3    H224009   3.317   3.655   0.912  0.9842 -0.0953  0.5265
  840TIP3   OH224010   3.920   0.549   0.368  0.2934 -0.5378  0.2411
  840TIP3    H124011   3.982   0.502   0.425  1.2396 -0.4553 -0.6883
  840TIP3    H224012   3.880   0.480   0.315 -1.0681 -0.6890  1.4247
  841TIP3   OH224013   6.094   1.916   5.289 -0.9464  0.2696 -0.0800
  841TIP3    H124014   6.066   1.873   5.208  0.0641 -0.3769 -0.1150
  841TIP3    H224015   6.045   1.998   5.291  1.0639  1.7194 -2.8456
  842TIP3   OH224016   4.468   1.994  16.298  0.1546  0.1694  0.0049
  842TIP3    H124017   4.534   1.946  16.248 -0.0354  0.0158 -0.0990
  842TIP3    H224018   4.445   2.069  16.243  0.1693  0.1686 -0.0020
  843TIP3   OH224019   5.782   3.290  13.357 -0.3251  0.2655 -0.2261
  843TIP3    H124020   5.840   3.305  13.432  2.7411  0.1665 -2.4024
  843TIP3    H224021   5.757   3.377  13.328  1.8651  0.5736 -1.4277
  844TIP3   OH224022   2.977   6.024  12.808  0.2508 -0.1159 -0.5155
  844TIP3    H124023   3.008   6.029  12.718  2.4394  0.4152  0.2077
  844TIP3    H224024   2.944   6.112  12.828  1.2892  0.2363 -0.3095
  845TIP3   OH224025   3.003   2.343   4.169  0.3124 -0.8299  0.2870
  845TIP3    H124026   3.030   2.403   4.100 -2.0366 -0.0572 -0.0642
  845TIP3    H224027   3.064   2.270   4.163  0.6769 -0.4050 -2.0796
  846TIP3   OH224028   1.659   1.211   2.506  0.1017 -0.1679 -0.0328
  846TIP3    H124029   1.653   1.126   2.549 -0.1796 -0.6831 -1.0553
  846TIP3    H224030   1.747   1.213   2.468  0.0948 -0.0181 -0.0425
  847TIP3   OH224031   1.184   6.593  13.288  0.3685  0.4450  0.4466
  847TIP3    H124032   1.100   6.551  13.301 -0.3480  1.5949 -0.2743
  847TIP3    H224033   1.189   6.660  13.356  0.3032  0.9640 -0.0543
  848TIP3   OH224034   5.912   6.014   4.463  0.6580  0.0132  0.1402
  848TIP3    H124035   6.006   6.025   4.452  1.1199 -2.4198  1.1804
  848TIP3    H224036   5.891   5.933   4.417 -0.5687 -0.5320  1.5712
  849TIP3   OH224037   0.298   4.001   6.573 -0.1830 -0.6390 -0.0780
  849TIP3    H124038   0.202   4.006   6.572 -0.2207  2.0848 -3.5590
  849TIP3    H224039   0.324   4.065   6.639 -0.9166  1.6546 -1.8630
  850TIP3   OH224040   3.632   3.935   4.074  0.0304 -0.3420  0.3103
  850TIP3    H124041   3.537   3.933   4.057  0.3796  0.6206 -2.2441
  850TIP3    H224042   3.657   3.843   4.082 -1.1254 -0.6046  1.2271
  851TIP3   OH224043   2.081   6.020   2.270 -0.4159 -0.1410  0.9718
  851TIP3    H124044   2.087   5.926   2.253  0.0420 -0.0323  0.5227
  851TIP3    H224045   2.156   6.058   2.225 -1.4873  0.6363 -0.2564
  852TIP3   OH224046   6.649   3.849  14.938 -0.0626 -0.7361  0.2779
  852TIP3    H124047   6.591   3.907  14.890  0.1511 -0.4904  0.3164
  852TIP3    H224048   6.734   3.858  14.894  0.4413  0.4063  1.4463
  853TIP3   OH224049   6.058   2.834   4.900  0.1649 -0.0185  0.1569
  853TIP3    H124050   5.982   2.863   4.950  0.1316 -0.1576  0.1860
  853TIP3    H224051   6.054   2.738   4.902 -0.8261 -0.0582 -1.6088
  854TIP3   OH224052   4.616   4.455  14.055 -0.0057 -0.5235 -0.3008
  854TIP3    H124053   4.534   4.406  14.049 -0.5473  0.4092 -0.7865
  854TIP3    H224054   4.649   4.458  13.965 -1.0311  1.7025 -0.6604
  855TIP3   OH224055   4.127   4.347   0.692  0.0849 -0.0635  0.0434
  855TIP3    H124056   4.046   4.324   0.737  0.2752  0.6541  0.7669
  855TIP3    H224057   4.124   4.443   0.684 -0.3936 -0.1987 -2.3379
  856TIP3   OH224058   1.328   2.208  11.715  0.2013 -0.3369 -0.6108
  856TIP3    H124059   1.288   2.285  11.755  2.0761  0.8183 -0.8570
  856TIP3    H224060   1.259   2.142  11.715 -0.6455  0.4605  2.0964
  857TIP3   OH224061   0.210   4.410   1.830  0.4868 -0.1261 -0.3913
  857TIP3    H124062   0.225   4.491   1.879  0.7290 -0.5400  0.2338
  857TIP3    H224063   0.291   4.397   1.781  0.9394 -0.6349  0.4664
  858TIP3   OH224064   3.517   5.632  14.299  0.7380  0.1766 -0.0229
  858TIP3    H124065   3.555   5.635  14.387 -0.1388 -1.0527  0.4324
  858TIP3    H224066   3.466   5.712  14.292 -0.6515 -0.5459  1.3107
  859TIP3   OH224067   3.008   3.273  12.311 -0.1751 -1.1375  0.2270
  859TIP3    H124068   2.963   3.191  12.333 -0.0570 -1.5488 -0.9813
  859TIP3    H224069   3.089   3.245  12.268 -0.1717 -0.3968 -0.2687
  860TIP3   OH224070   5.729   6.349   5.081  0.4654 -0.0044 -0.1648
  860TIP3    H124071   5.809   6.401   5.080 -0.3834  1.3524 -0.0504
  860TIP3    H224072   5.756   6.262   5.052  1.8720  0.5729 -0.6433
  861TIP3   OH224073   3.403   2.123  14.779  0.2576  0.2866 -0.6089
  861TIP3    H124074   3.465   2.080  14.720  0.2133 -0.4325 -0.1402
  861TIP3    H224075   3.321   2.076  14.767  0.5213 -0.5973  0.8099
  862TIP3   OH224076   1.924   0.423  11.775 -0.1813 -0.3864 -0.2463
  862TIP3    H124077   1.985   0.433  11.703 -0.9078  0.5614 -0.7565
  862TIP3    H224078   1.897   0.331  11.771 -0.1589 -0.3611 -1.1373
  863TIP3   OH224079   0.393   3.748   4.845  0.0262 -0.1682 -0.0125
  863TIP3    H124080   0.406   3.794   4.928 -1.2771  0.9288 -0.3761
  863TIP3    H224081   0.427   3.808   4.779 -1.2727  0.0996 -0.4608
  864TIP3   OH224082   2.201   4.198   1.951 -0.2876 -0.6262 -0.0908
  864TIP3    H124083   2.150   4.220   2.028 -0.0842  1.6583 -0.5538
  864TIP3    H224084   2.141   4.212   1.877  0.7645  1.6610 -0.6056
  865TIP3   OH224085   2.469   1.259   2.754  0.0022  0.6998  0.1242
  865TIP3    H124086   2.511   1.337   2.790 -1.4720  1.6904 -0.2236
  865TIP3    H224087   2.375   1.279   2.755 -0.5442 -1.5310  1.1379
  866TIP3   OH224088   2.362   2.111  13.532  0.0489 -0.1864  0.3697
  866TIP3    H124089   2.287   2.122  13.474  0.7829  0.3857 -0.5078
  866TIP3    H224090   2.409   2.036  13.497  1.5331  1.2980 -1.0228
  867TIP3   OH224091   0.713   6.550   2.895 -0.3084 -0.2643 -0.0683
  867TIP3    H124092   0.798   6.590   2.876 -0.3376  0.3320  0.9524
  867TIP3    H224093   0.698   6.571   2.988 -1.3874 -0.7013 -0.1368
  868TIP3   OH224094   2.651   3.539  10.848  0.5430 -0.4094 -0.7697
  868TIP3    H124095   2.701   3.505  10.775 -0.2990 -0.8122 -1.1741
  868TIP3    H224096   2.560   3.540  10.817 -0.0068 -1.7266  0.6724
  869TIP3   OH224097   6.717   2.682  10.575  0.3577 -0.1256 -0.0954
  869TIP3    H124098   6.785   2.749  10.583  0.4750 -0.4392  1.8732
  869TIP3    H224099   6.636   2.731  10.559  0.6166  0.4287  0.2693
  870TIP3   OH224100   1.620   1.425  14.482 -0.2172  0.2885 -0.7562
  870TIP3    H124101   1.666   1.462  14.407 -1.2036  0.1602 -1.4384
  870TIP3    H224102   1.662   1.465  14.558  1.8842 -0.7799 -1.2738
  871TIP3   OH224103   1.085   2.281  14.938 -0.0865 -0.0142 -0.2971
  871TIP3    H124104   1.017   2.323  14.989 -0.1863  0.5836 -0.9050
  871TIP3    H224105   1.165   2.293  14.989 -0.5843 -1.6103  0.9146
  872TIP3   OH224106   5.496   5.858  12.749 -0.0191 -0.1720  0.6226
  872TIP3    H124107   5.502   5.763  12.754  0.8516 -0.6039 -3.8412
  872TIP3    H224108   5.586   5.889  12.752  0.0963 -0.0244 -1.7464
  873TIP3   OH224109   5.735   5.962   3.309  0.0892 -0.2804  0.3690
  873TIP3    H124110   5.641   5.983   3.311  0.0900 -0.2197  2.3833
  873TIP3    H224111   5.777   6.040   3.273 -0.6392 -0.4307 -0.8596
  874TIP3   OH224112   3.442   1.282   4.561  0.8194 -0.1729  0.3554
  874TIP3    H124113   3.478   1.342   4.494  3.0535 -0.7471  0.9513
  874TIP3    H224114   3.504   1.288   4.633 -0.7930 -0.6477  1.8388
  875TIP3   OH224115   0.715   3.701   2.988  0.1723 -0.4687 -0.0740
  875TIP3    H124116   0.762   3.746   2.917 -0.9144  0.1888 -0.3908
  875TIP3    H224117   0.644   3.654   2.943 -1.3900  1.0811  0.6985
  876TIP3   OH224118   2.404   1.750  16.783  0.0098 -0.2769  0.2819
  876TIP3    H124119   2.393   1.812  16.711  1.4503 -0.5124 -0.1526
  876TIP3    H224120   2.453   1.799  16.849 -0.6423 -0.3108  0.8090
  877TIP3   OH224121   4.198   4.451   4.164 -0.1694  0.3399  0.1774
  877TIP3    H124122   4.127   4.468   4.102  1.4475  0.3255 -1.7540
  877TIP3    H224123   4.220   4.537   4.199 -2.7372  0.1037  2.7854
  878TIP3   OH224124   5.941   2.341  12.998  0.2882 -0.2044 -0.0795
  878TIP3    H124125   5.855   2.382  12.986  0.7527  1.0133  0.5795
  878TIP3    H224126   5.941   2.267  12.937 -0.0894  1.5505 -2.3067
  879TIP3   OH224127   1.542   5.190  16.855 -0.3897  0.4297 -0.4871
  879TIP3    H124128   1.583   5.119  16.804 -1.1549 -0.3976  0.0087
  879TIP3    H224129   1.589   5.269  16.829  1.1483 -0.3960 -0.3357
  880TIP3   OH224130   1.213   1.455   5.408  0.0365 -0.2375 -0.0948
  880TIP3    H124131   1.214   1.551   5.409  0.2514 -0.1960 -1.4232
  880TIP3    H224132   1.129   1.431   5.446  0.3016  0.4464  0.9647
  881TIP3   OH224133   6.599   6.235   3.556  0.8140 -0.2696 -0.2555
  881TIP3    H124134   6.680   6.212   3.510  1.4588  1.2632  0.0224
  881TIP3    H224135   6.555   6.297   3.498  1.4914  1.4510  0.9889
  882TIP3   OH224136   2.027   2.055  16.890 -0.5788  0.2023  0.8390
  882TIP3    H124137   1.996   2.141  16.921  2.0518  1.5514  0.0132
  882TIP3    H224138   2.066   2.073  16.805  1.2664 -1.5429  1.2494
  883TIP3   OH224139   5.277   5.608  10.670 -0.2014  0.4133  0.0339
  883TIP3    H124140   5.245   5.668  10.602  1.4693  0.9087 -0.3577
  883TIP3    H224141   5.293   5.526  10.623 -1.7192 -0.1266  0.4124
  884TIP3   OH224142   5.143   3.966  13.859 -1.0105  0.1530 -0.4743
  884TIP3    H124143   5.204   3.946  13.930 -1.4036  0.0405 -0.1632
  884TIP3    H224144   5.079   3.895  13.862 -1.6550  0.7331 -0.2390
  885TIP3   OH224145   4.937   0.077   6.163 -0.3605 -0.4119 -0.0115
  885TIP3    H124146   4.988   0.121   6.231  3.1011  0.2674 -2.7520
  885TIP3    H224147   4.959  -0.016   6.174  0.4381 -0.2696 -0.3628
  886TIP3   OH224148   1.550   3.342   4.876  0.3264 -0.5886  0.1210
  886TIP3    H124149   1.543   3.303   4.789 -0.1454  3.1573 -1.6966
  886TIP3    H224150   1.628   3.396   4.872 -0.8243  1.2510  1.2885
  887TIP3   OH224151   1.836   5.721   4.291 -0.0322  0.0458 -0.3422
  887TIP3    H124152   1.858   5.726   4.198 -1.7721  0.2337 -0.7937
  887TIP3    H224153   1.876   5.640   4.322 -0.1747 -0.4786 -1.4804
  888TIP3   OH224154   4.108   4.955   0.343 -0.3469 -0.6583  0.2024
  888TIP3    H124155   4.168   4.982   0.413  0.1938 -0.0135 -0.4835
  888TIP3    H224156   4.061   5.034   0.320 -1.7103 -1.2188  0.9211
  889TIP3   OH224157   6.678   4.863   3.583  0.4415 -0.3786  0.3470
  889TIP3    H124158   6.774   4.856   3.579  0.4939 -0.6264  1.7629
  889TIP3    H224159   6.653   4.808   3.657 -0.7034  0.5361  0.6586
  890TIP3   OH224160   5.895   3.757  13.313  0.5686 -0.0586  0.0059
  890TIP3    H124161   5.963   3.822  13.296  0.7775 -0.6262 -1.5231
  890TIP3    H224162   5.924   3.679  13.265 -0.0935 -1.0151  1.0997
  891TIP3   OH224163   2.787   1.431  17.019 -0.4594 -0.5746  0.2635
  891TIP3    H124164   2.699   1.394  17.018 -1.8695  2.4309  0.6329
  891TIP3    H224165   2.845   1.356  17.010 -3.0688 -2.5522 -1.7117
  892TIP3   OH224166   0.485   0.764  14.579 -0.3994  0.9142 -0.8380
  892TIP3    H124167   0.554   0.706  14.610  0.0388  1.8475  0.0182
  892TIP3    H224168   0.405   0.713  14.585 -0.1201  0.6107  0.5535
  893TIP3   OH224169   4.791   1.254   2.928  0.2912 -1.1283  0.1434
  893TIP3    H124170   4.806   1.286   3.017 -0.5801 -1.3026  0.3548
  893TIP3    H224171   4.872   1.276   2.881  0.0751  0.5676  0.5165
  894TIP3   OH224172   2.386   5.781  13.749 -0.6729 -0.3178 -0.5718
  894TIP3    H124173   2.370   5.875  13.742  0.2644 -0.2036 -1.3865
  894TIP3    H224174   2.301   5.741  13.732 -1.0262  0.3702 -0.4694
  895TIP3   OH224175   2.710   1.146   1.626 -0.1048 -0.8168 -0.1282
  895TIP3    H124176   2.707   1.053   1.648 -1.4198 -0.4716  1.2877
  895TIP3    H224177   2.781   1.182   1.678  1.8127 -1.3491 -2.2265
  896TIP3   OH224178   6.144   0.431  15.242 -0.3937 -0.2686  0.0337
  896TIP3    H124179   6.054   0.449  15.269  0.1694 -0.0802  1.9056
  896TIP3    H224180   6.198   0.472  15.309  1.0733 -1.3114 -0.4544
  897TIP3   OH224181   0.316   4.922   3.828  0.3816 -0.9069 -0.5143
  897TIP3    H124182   0.270   5.006   3.829  1.4990 -0.2246 -2.0181
  897TIP3    H224183   0.361   4.918   3.912  2.7967  1.5116 -1.5495
  898TIP3   OH224184   0.235   5.568   6.216 -0.1434  0.1501 -0.2353
  898TIP3    H124185   0.142   5.575   6.235 -0.3402  0.1755 -1.1416
  898TIP3    H224186   0.276   5.633   6.272 -0.8973  1.6239 -1.3073
  899TIP3   OH224187   2.673   1.692   3.929 -0.9206  0.4683  0.0733
  899TIP3    H124188   2.606   1.754   3.901 -0.8441  0.5035 -0.0300
  899TIP3    H224189   2.623   1.622   3.972 -1.2193 -0.4841 -1.7136
  900TIP3   OH224190   0.868   4.596  14.767 -0.0154 -0.3648 -0.2655
  900TIP3    H124191   0.849   4.579  14.675 -1.1218  0.6262 -0.2516
  900TIP3    H224192   0.786   4.630  14.802  0.9203  1.0953  0.6250
  901TIP3   OH224193   5.131   2.706   0.001 -0.1325  0.3087 -0.0113
  901TIP3    H124194   5.040   2.706   0.028  0.1410  0.2690  0.9384
  901TIP3    H224195   5.165   2.791   0.028  0.6114 -0.4065  1.4316
  902TIP3   OH224196   4.293   1.284  16.236  0.0230  0.6291  0.2103
  902TIP3    H124197   4.285   1.258  16.328 -0.8481  0.9904  0.2441
  902TIP3    H224198   4.307   1.379  16.239  1.4842  0.4396  0.0176
  903TIP3   OH224199   0.674   2.904   0.926 -0.0459  0.2383 -0.0675
  903TIP3    H124200   0.690   2.870   0.838  0.3649 -2.4669  0.9803
  903TIP3    H224201   0.591   2.951   0.919 -0.9985 -1.5642 -1.4891
  904TIP3   OH224202   5.978   4.733  13.153  0.0972 -0.2904 -0.6786
  904TIP3    H124203   5.920   4.659  13.173 -0.1390 -0.0346 -0.4116
  904TIP3    H224204   5.933   4.810  13.188  0.4601 -0.0482 -0.7314
  905TIP3   OH224205   6.637   3.506   0.060 -0.1176  0.5739 -0.5882
  905TIP3    H124206   6.650   3.490  -0.034 -0.2009 -1.2234 -0.3149
  905TIP3    H224207   6.545   3.486   0.075 -0.1154  0.8968 -0.1260
  906TIP3   OH224208   0.828   4.873   3.030 -0.2046 -0.6087 -0.2743
  906TIP3    H124209   0.750   4.820   3.018  0.3067 -1.2141 -1.0223
  906TIP3    H224210   0.900   4.817   3.000  0.5918 -0.3070  0.9951
  907TIP3   OH224211   3.421   6.385   4.031 -0.5126 -0.1796 -0.2330
  907TIP3    H124212   3.357   6.455   4.024 -1.0291 -0.6928 -0.8316
  907TIP3    H224213   3.461   6.397   4.117  1.8498  2.8878 -1.5863
  908TIP3   OH224214   4.350   2.811   3.990  0.4646  0.5696 -0.3107
  908TIP3    H124215   4.397   2.892   4.008  1.0370 -0.2160  2.0811
  908TIP3    H224216   4.419   2.748   3.969  0.2687  0.1065  0.3923
  909TIP3   OH224217   1.965   3.683   1.430  0.4970 -0.0893  0.1223
  909TIP3    H124218   2.035   3.659   1.490  0.7240  0.8063  0.2304
  909TIP3    H224219   1.900   3.613   1.439  0.8933 -0.3737  0.8101
  910TIP3   OH224220   1.850   0.787  10.686  0.4650 -0.4294 -0.6041
  910TIP3    H124221   1.814   0.856  10.631  0.9907  0.0206 -0.3916
  910TIP3    H224222   1.828   0.706  10.640 -1.4871 -0.2316 -0.1064
  911TIP3   OH224223   5.216   3.358  11.752 -0.1069  0.3058 -0.0418
  911TIP3    H124224   5.129   3.358  11.713 -0.7381  0.0690  1.3038
  911TIP3    H224225   5.264   3.425  11.703 -1.3529  1.1702 -0.1337
  912TIP3   OH224226   6.275   1.196  13.740  0.5522 -0.1830  0.2324
  912TIP3    H124227   6.243   1.149  13.817 -1.1890 -1.8142 -1.3816
  912TIP3    H224228   6.370   1.188  13.745  0.4210 -1.2202  1.6217
  913TIP3   OH224229   4.214   0.743   2.237 -0.1607  0.1177 -0.0983
  913TIP3    H124230   4.130   0.756   2.281  0.2924 -0.5275  1.0072
  913TIP3    H224231   4.257   0.829   2.240 -0.5275  0.3015 -0.1224
  914TIP3   OH224232   1.542   1.615   0.869  0.0532 -0.4101 -0.6634
  914TIP3    H124233   1.553   1.535   0.817  0.5896  0.7635 -2.4549
  914TIP3    H224234   1.623   1.623   0.919 -0.6002 -1.7270  0.6758
  915TIP3   OH224235   1.877   4.548  11.999  0.5238  0.1711 -0.2617
  915TIP3    H124236   1.826   4.586  12.070  2.1923 -0.0005  1.0781
  915TIP3    H224237   1.955   4.513  12.041  0.1352 -2.7687 -1.7255
  916TIP3   OH224238   5.194   0.342  15.748  0.1770  0.3685 -0.1423
  916TIP3    H124239   5.210   0.420  15.802 -0.9247 -1.6456  3.4104
  916TIP3    H224240   5.100   0.326  15.757  0.1515 -0.6909 -1.8706
  917TIP3   OH224241   0.892   6.825   1.077 -0.3551 -0.3342 -0.3349
  917TIP3    H124242   0.953   6.772   1.025 -0.6077 -0.7370 -0.2232
  917TIP3    H224243   0.947   6.868   1.142 -0.1929 -0.7337 -0.2032
  918TIP3   OH224244   1.336   5.457  12.731 -0.1370  0.3303  0.3787
  918TIP3    H124245   1.262   5.484  12.785  0.3715  2.0129  0.2712
  918TIP3    H224246   1.413   5.479  12.784  0.3195 -0.5867  0.1188
  919TIP3   OH224247   6.015   1.804   0.030 -0.3615  0.5532 -0.1624
  919TIP3    H124248   6.104   1.785   0.059 -0.6215 -0.3053  0.1024
  919TIP3    H224249   5.965   1.816   0.110 -0.8514 -0.7546 -0.2493
  920TIP3   OH224250   1.294   3.992   6.000  0.0526 -0.4832  0.1989
  920TIP3    H124251   1.252   3.914   5.963  0.0576 -0.2785 -0.2505
  920TIP3    H224252   1.378   3.960   6.032 -0.0018 -0.6910  0.1430
  921TIP3   OH224253   3.339   1.001   5.198  0.6173  0.4915 -0.1467
  921TIP3    H124254   3.279   0.959   5.136 -1.1582  0.5423  1.4284
  921TIP3    H224255   3.360   1.086   5.159 -0.8230  0.7095 -0.4923
  922TIP3   OH224256   4.348   2.498  15.191  0.3992  0.3693  0.0963
  922TIP3    H124257   4.311   2.462  15.272  0.2924  0.6949  0.1948
  922TIP3    H224258   4.291   2.572  15.170  0.6487  0.5142 -0.0716
  923TIP3   OH224259   1.758   5.216   3.768  0.3637  0.1264  0.2808
  923TIP3    H124260   1.716   5.206   3.683  0.4172 -2.1526  0.4614
  923TIP3    H224261   1.721   5.297   3.804 -1.7750 -0.3343 -0.7275
  924TIP3   OH224262   0.489   0.398   6.694 -0.1865  0.9090  0.0830
  924TIP3    H124263   0.467   0.489   6.718 -1.6907  1.1632 -1.9970
  924TIP3    H224264   0.414   0.347   6.725  0.2457  0.4950  0.4582
  925TIP3   OH224265   5.701   1.796  11.460  0.1573 -0.8069  0.0388
  925TIP3    H124266   5.703   1.703  11.436  0.5645 -0.2538 -2.3056
  925TIP3    H224267   5.609   1.819  11.460 -0.0241 -1.3942  1.6043
  926TIP3   OH224268   6.106   1.439  15.348 -0.1049 -0.0702 -0.0771
  926TIP3    H124269   6.045   1.373  15.314 -1.2750  0.0753  1.6237
  926TIP3    H224270   6.149   1.474  15.270 -1.0628 -1.2793 -1.2011
  927TIP3   OH224271   0.205   5.282  14.277 -0.5767 -0.0814  0.9043
  927TIP3    H124272   0.272   5.218  14.303  0.7487  0.8523 -0.0303
  927TIP3    H224273   0.169   5.315  14.359  1.9505  1.2217  1.5968
  928TIP3   OH224274   0.544   0.585  16.631 -0.4795 -0.2391  1.0490
  928TIP3    H124275   0.591   0.667  16.645 -0.2060 -0.2757  0.3543
  928TIP3    H224276   0.480   0.605  16.562 -1.1364 -0.3301  1.6137
  929TIP3   OH224277   4.814   4.334   2.003  0.3751  0.0988  0.5206
  929TIP3    H124278   4.900   4.326   2.044  1.7443 -0.9660 -2.2945
  929TIP3    H224279   4.802   4.427   1.989  0.3657  0.3838  2.1763
  930TIP3   OH224280   2.728   2.376  15.357  0.1259  0.1967  0.1456
  930TIP3    H124281   2.788   2.449  15.346 -0.2039  0.3198 -0.9236
  930TIP3    H224282   2.645   2.417  15.382  0.4466  0.0291  1.5954
  931TIP3   OH224283   3.204   4.131  12.857 -0.2604  0.5537  0.1376
  931TIP3    H124284   3.120   4.107  12.897 -0.0459 -0.8010 -0.1532
  931TIP3    H224285   3.242   4.195  12.917 -0.4633 -0.5654  1.5296
  932TIP3   OH224286   5.794   4.047  16.731 -0.2166 -0.2834  0.1127
  932TIP3    H124287   5.720   4.001  16.771 -2.0990  0.3329 -2.4480
  932TIP3    H224288   5.759   4.087  16.652  2.1607  2.6341  0.3350
  933TIP3   OH224289   0.046   3.748   5.898  0.4324 -0.3444 -0.2974
  933TIP3    H124290   0.129   3.709   5.869  3.1026  3.0611  1.9275
  933TIP3    H224291   0.066   3.782   5.986 -3.5524  0.2351  0.5405
  934TIP3   OH224292   5.545   3.421  16.665  0.0867  0.2736 -0.5553
  934TIP3    H124293   5.449   3.417  16.656 -0.1946 -2.4537  2.1678
  934TIP3    H224294   5.576   3.336  16.635  0.7065 -1.9687  5.2364
  935TIP3   OH224295   0.064   6.081  14.434 -0.5331  0.3376  0.4838
  935TIP3    H124296  -0.020   6.049  14.466  0.1488 -0.7681  1.2306
  935TIP3    H224297   0.127   6.013  14.460  0.5264  0.9490 -0.4136
  936TIP3   OH224298   2.260   3.899  16.482 -0.4879 -0.4699 -0.3945
  936TIP3    H124299   2.325   3.883  16.414 -0.0050 -1.5111  0.2707
  936TIP3    H224300   2.310   3.938  16.554 -0.8743  0.0661 -0.4193
  937TIP3   OH224301   0.350   5.675  11.146 -0.2898  0.1761  0.2863
  937TIP3    H124302   0.328   5.690  11.054 -1.5222  0.6845  0.6374
  937TIP3    H224303   0.418   5.740  11.165 -0.0329  0.0780 -0.2520
  938TIP3   OH224304   4.359   2.425   3.182  0.8184 -0.4337 -0.0167
  938TIP3    H124305   4.290   2.434   3.248 -0.1529 -0.7480 -0.9579
  938TIP3    H224306   4.322   2.366   3.117  3.3161 -3.5322  1.1468
  939TIP3   OH224307   3.362   3.348   1.370 -0.2534  0.3224 -0.4985
  939TIP3    H124308   3.308   3.361   1.292  0.9528  1.6740 -1.1433
  939TIP3    H224309   3.345   3.426   1.424 -1.1212 -0.6219  0.6599
  940TIP3   OH224310   6.179   2.398   3.817 -0.5832  0.2888 -0.0891
  940TIP3    H124311   6.233   2.420   3.893 -1.8195 -0.3544  1.0264
  940TIP3    H224312   6.096   2.369   3.855 -1.9613  1.8338 -1.7539
  941TIP3   OH224313   2.152   3.352  14.994  0.3712  0.1588 -0.2709
  941TIP3    H124314   2.152   3.262  14.960  1.2866 -0.3493  0.9551
  941TIP3    H224315   2.186   3.343  15.084  0.1609  1.6915 -0.0115
  942TIP3   OH224316   5.939   4.448   5.139  0.0913 -0.1439  1.0076
  942TIP3    H124317   5.918   4.538   5.115  0.1165 -0.2967  0.3905
  942TIP3    H224318   5.886   4.394   5.080  0.5290 -0.5258  0.9540
  943TIP3   OH224319   5.141   4.287   4.594 -0.8885 -0.1922 -0.4537
  943TIP3    H124320   5.214   4.327   4.548  0.7962 -0.2735  1.9173
  943TIP3    H224321   5.112   4.354   4.656 -0.3836 -1.3232  1.0938
  944TIP3   OH224322   4.609   1.459  11.753 -0.0940  0.3743  0.0382
  944TIP3    H124323   4.689   1.465  11.805  0.0993  1.2305 -0.3325
  944TIP3    H224324   4.609   1.370  11.717 -0.6710 -0.5457  2.1761
  945TIP3   OH224325   0.627   4.337   4.763 -0.1735 -0.0864 -0.4387
  945TIP3    H124326   0.682   4.281   4.818 -1.3792 -2.5050 -1.5444
  945TIP3    H224327   0.671   4.340   4.679 -0.3286  0.2961 -0.5097
  946TIP3   OH224328   2.480   1.190  14.941 -0.3968  0.0548  0.5302
  946TIP3    H124329   2.575   1.184  14.950 -0.4314  0.2711  1.0785
  946TIP3    H224330   2.464   1.280  14.912 -0.4754  0.2203  1.0773
  947TIP3   OH224331   3.386   2.123  13.599 -0.7641  0.2635 -0.0463
  947TIP3    H124332   3.324   2.187  13.565 -0.1641  0.4374 -0.8463
  947TIP3    H224333   3.461   2.128  13.540 -0.8800 -1.4938 -0.4074
  948TIP3   OH224334   6.240   2.659   2.030 -0.4411 -0.1551 -0.4844
  948TIP3    H124335   6.249   2.567   2.055  1.5253 -0.1321 -0.9538
  948TIP3    H224336   6.268   2.662   1.938  0.3505  1.0316 -0.2249
  949TIP3   OH224337   2.072   6.601   0.361 -0.1021 -0.5803 -0.1138
  949TIP3    H124338   2.068   6.623   0.454  2.0218 -0.3175 -0.0495
  949TIP3    H224339   2.152   6.549   0.352  0.4288  0.4817 -2.0066
  950TIP3   OH224340   5.450   6.695   3.986  0.1342  0.2710 -0.6776
  950TIP3    H124341   5.521   6.759   3.981 -0.7385  1.4168  0.7838
  950TIP3    H224342   5.371   6.747   4.001 -0.7201 -1.0913 -0.2404
  951TIP3   OH224343   5.529   6.130   1.707  0.0568  0.8322  0.2653
  951TIP3    H124344   5.526   6.169   1.794 -0.7577  1.6693 -0.1109
  951TIP3    H224345   5.437   6.131   1.678  0.3997  1.1649 -0.8517
  952TIP3   OH224346   1.831   5.250   4.106 -0.3149  0.1441  0.3975
  952TIP3    H124347   1.781   5.298   4.041  0.0066 -0.0957 -0.0358
  952TIP3    H224348   1.798   5.160   4.101 -0.3016  0.1291  0.5729
  953TIP3   OH224349   0.728   0.848   4.444  0.0587  0.3102 -0.3388
  953TIP3    H124350   0.705   0.757   4.425 -1.4612  0.3380  1.0727
  953TIP3    H224351   0.823   0.848   4.451  0.0140 -1.7656  2.0684
  954TIP3   OH224352   1.530   5.407   3.624 -0.8257 -0.3302 -0.0207
  954TIP3    H124353   1.492   5.356   3.695  2.3790  0.1102  2.1807
  954TIP3    H224354   1.554   5.342   3.558 -1.4535 -1.0247  0.4166
  955TIP3   OH224355   2.149   0.151  12.584  0.5420  0.1650 -0.4244
  955TIP3    H124356   2.171   0.230  12.534 -1.0437  0.2504 -1.0659
  955TIP3    H224357   2.161   0.079  12.522  2.6151 -0.2195  0.3468
  956TIP3   OH224358   0.944   6.346   3.797  0.1933 -0.5751 -0.0944
  956TIP3    H124359   0.901   6.348   3.712  1.3140  0.0004 -0.6777
  956TIP3    H224360   1.038   6.352   3.776  0.5107 -0.9776  1.1542
  957TIP3   OH224361   3.089   1.560  16.288  0.4378 -0.4500 -0.1149
  957TIP3    H124362   3.034   1.635  16.268  0.2879 -0.8460 -1.2795
  957TIP3    H224363   3.167   1.572  16.232  1.2060 -0.2871  0.9511
  958TIP3   OH224364   3.467   2.523  12.706  0.1311 -0.0713 -0.2637
  958TIP3    H124365   3.378   2.508  12.737  0.9573 -2.5602  1.2478
  958TIP3    H224366   3.463   2.504  12.612 -1.1257  1.0533 -0.4696
  959TIP3   OH224367   5.604   6.581   2.295 -0.0714 -0.0575  0.0858
  959TIP3    H124368   5.663   6.581   2.220 -0.0685 -1.4950  0.0553
  959TIP3    H224369   5.660   6.602   2.370 -0.1923  2.0468 -0.3432
  960TIP3   OH224370   1.477   0.206   6.371  0.7200 -0.5088  0.1849
  960TIP3    H124371   1.516   0.119   6.379  1.4003 -0.1082  1.4308
  960TIP3    H224372   1.548   0.262   6.339  0.7895 -0.0584  1.1009
  961TIP3   OH224373   6.709   3.677   0.559  0.6098  0.2081 -0.0239
  961TIP3    H124374   6.643   3.740   0.588 -2.3320 -3.3828  2.0077
  961TIP3    H224375   6.696   3.672   0.464  0.0233  1.6178 -0.0518
  962TIP3   OH224376   6.825   1.124   2.636  0.5040 -0.2976  0.0721
  962TIP3    H124377   6.905   1.078   2.664  0.8980  0.8997  1.0133
  962TIP3    H224378   6.757   1.088   2.693  0.6451 -0.3235  0.2274
  963TIP3   OH224379   2.785   5.033  16.564 -0.2253 -0.0670  0.2025
  963TIP3    H124380   2.862   5.078  16.530  0.7609 -1.2282  0.8643
  963TIP3    H224381   2.723   5.034  16.490 -0.0386  1.8402  0.0240
  964TIP3   OH224382   0.906   5.183  16.653 -0.3502  0.4356 -0.4507
  964TIP3    H124383   0.851   5.149  16.582 -1.6258  1.2010  0.1342
  964TIP3    H224384   0.985   5.214  16.609 -0.0247 -1.3852 -1.2339
  965TIP3   OH224385   6.186   4.353   3.601 -0.4171 -0.4521  0.1905
  965TIP3    H124386   6.207   4.271   3.556  1.2549  0.7690 -1.4581
  965TIP3    H224387   6.171   4.415   3.530  1.6183  1.4217  1.2911
  966TIP3   OH224388   6.286   2.838   0.012 -0.5347 -0.1968 -0.1258
  966TIP3    H124389   6.282   2.825   0.107 -0.3028  0.9969  0.0697
  966TIP3    H224390   6.344   2.769  -0.019  0.0424 -0.1133  0.7140
  967TIP3   OH224391   2.550   6.060  14.436 -0.1347  0.0401 -0.5848
  967TIP3    H124392   2.497   6.131  14.400 -1.0571 -0.1140  0.3919
  967TIP3    H224393   2.547   5.991  14.370 -1.5413 -0.1262 -0.3767
  968TIP3   OH224394   2.450   1.128   2.354  0.7882  0.3122  0.5783
  968TIP3    H124395   2.429   1.195   2.420  1.5514  1.2402 -0.0884
  968TIP3    H224396   2.367   1.109   2.311  0.5522  0.7936  0.8214
  969TIP3   OH224397   3.551   2.195   4.516 -0.0130 -0.2440 -0.0854
  969TIP3    H124398   3.575   2.279   4.477  1.1080  0.4257  1.8761
  969TIP3    H224399   3.633   2.163   4.555 -0.2787 -2.5467 -1.2453
  970TIP3   OH224400   0.436   4.369   4.968 -0.9606 -0.1264 -0.2172
  970TIP3    H124401   0.358   4.423   4.955 -2.0743 -1.8014 -0.7961
  970TIP3    H224402   0.496   4.396   4.899 -2.5405 -1.3823 -2.1917
  971TIP3   OH224403   4.646   6.578  12.049 -0.4859 -0.4308  0.5517
  971TIP3    H124404   4.657   6.557  12.142  0.3832  0.9393  0.7892
  971TIP3    H224405   4.704   6.653  12.034 -2.0151  0.5873 -0.6441
  972TIP3   OH224406   3.448   1.072  14.186  0.0074  0.0638  0.2098
  972TIP3    H124407   3.422   1.079  14.278 -1.1198  1.6874 -0.1921
  972TIP3    H224408   3.543   1.062  14.189 -0.1709 -1.9908  1.5918
  973TIP3   OH224409   4.878   1.583   1.428 -0.1817 -0.6899 -0.2124
  973TIP3    H124410   4.960   1.560   1.471 -1.3427 -2.6532  1.1222
  973TIP3    H224411   4.814   1.587   1.500 -1.5317 -0.6657 -1.3786
  974TIP3   OH224412   0.270   1.308  11.060  0.6976  0.3410  0.0385
  974TIP3    H124413   0.215   1.264  11.125  0.5708  0.8860  0.3074
  974TIP3    H224414   0.248   1.401  11.069  1.7709  0.5841  0.2555
  975TIP3   OH224415   4.367   1.816  12.758  0.9648  0.6114 -0.5707
  975TIP3    H124416   4.401   1.727  12.761 -1.7172 -0.4938  2.2747
  975TIP3    H224417   4.417   1.863  12.824 -2.8433 -1.2270  4.2410
  976TIP3   OH224418   4.701   3.330   0.420 -0.1460 -0.8628  0.1432
  976TIP3    H124419   4.765   3.390   0.382 -0.7320 -0.3939 -0.1110
  976TIP3    H224420   4.641   3.386   0.469 -0.7587 -1.2249 -0.1795
  977TIP3   OH224421   4.598   1.690   4.962 -0.0802 -0.1488 -0.0236
  977TIP3    H124422   4.624   1.686   5.055 -1.1460 -1.3759  0.2561
  977TIP3    H224423   4.673   1.730   4.918  1.1672 -1.1172  1.1263
  978TIP3   OH224424   1.173   1.654   5.131 -0.0065 -0.2245 -0.2899
  978TIP3    H124425   1.268   1.666   5.141 -0.1409  0.1362  0.6214
  978TIP3    H224426   1.165   1.585   5.065  0.8759  0.3563 -1.0315
  979TIP3   OH224427   6.702   3.320  10.834  0.0287 -0.0431 -0.0347
  979TIP3    H124428   6.701   3.269  10.753  0.3219  0.3590 -0.2897
  979TIP3    H224429   6.667   3.406  10.810 -0.1747 -0.0176  0.3321
  980TIP3   OH224430   0.370   1.949  12.848 -0.8649  0.1602  0.2284
  980TIP3    H124431   0.435   1.965  12.916 -2.7471  0.7363  2.0031
  980TIP3    H224432   0.408   1.987  12.769  1.0053  0.2890  1.1462
  981TIP3   OH224433   2.724   0.157  14.424 -0.2182 -1.2406  0.0166
  981TIP3    H124434   2.798   0.171  14.482 -0.0998 -1.3247 -0.1161
  981TIP3    H224435   2.682   0.243  14.418  0.0390 -1.1268 -0.1459
  982TIP3   OH224436   1.989   1.016   1.293  0.1464  0.0382 -0.0978
  982TIP3    H124437   1.922   0.947   1.300 -0.0491  0.3245  1.2259
  982TIP3    H224438   1.944   1.095   1.323  0.5027  0.6543 -1.1622
  983TIP3   OH224439   0.473   5.474  17.029 -0.2034 -0.6857  0.0941
  983TIP3    H124440   0.403   5.524  16.987  0.2095  0.1535  0.3780
  983TIP3    H224441   0.517   5.429  16.957  0.7543  1.0515 -0.4582
  984TIP3   OH224442   6.157   2.963  11.402 -0.0290  0.0405 -0.5324
  984TIP3    H124443   6.119   3.008  11.326  0.2481  0.2235 -0.5636
  984TIP3    H224444   6.082   2.923  11.445 -0.3412  0.8695 -0.2766
  985TIP3   OH224445   0.980   0.352  10.318  0.5433 -0.4279 -0.1816
  985TIP3    H124446   0.983   0.300  10.398  0.8271 -1.0781 -0.6089
  985TIP3    H224447   0.899   0.403  10.325  0.7793 -0.1611  0.7075
  986TIP3   OH224448   5.847   3.773  13.841 -0.2437  0.8931  0.1372
  986TIP3    H124449   5.922   3.758  13.783  0.6685  1.2974  1.1494
  986TIP3    H224450   5.772   3.779  13.783  0.5922  1.0557 -0.9727
  987TIP3   OH224451   5.316   4.086  13.134  0.6035  0.4289  0.1569
  987TIP3    H124452   5.321   4.028  13.211  0.3242 -0.5456 -0.5356
  987TIP3    H224453   5.345   4.171  13.166  0.0737  0.1465  1.4518
  988TIP3   OH224454   4.159   1.753   3.168  0.1529  0.3210  0.8844
  988TIP3    H124455   4.148   1.837   3.125 -0.3639  0.1023  0.5865
  988TIP3    H224456   4.089   1.698   3.134 -0.4824  0.2335  2.2606
  989TIP3   OH224457   3.753   1.479  13.801 -0.1632  0.3511  0.2467
  989TIP3    H124458   3.705   1.408  13.759  1.2049  0.8678 -2.3959
  989TIP3    H224459   3.775   1.445  13.888 -1.6602 -1.4675 -0.0317
  990TIP3   OH224460   0.867   2.114   1.669 -0.1845  0.3320  0.0557
  990TIP3    H124461   0.812   2.107   1.747  1.4162  1.5653  1.3571
  990TIP3    H224462   0.868   2.025   1.633 -1.8056 -0.0308  0.8217
  991TIP3   OH224463   1.150   6.171   6.511 -0.6979 -0.5684 -0.0758
  991TIP3    H124464   1.243   6.151   6.503 -0.8739 -2.3110  1.4997
  991TIP3    H224465   1.106   6.101   6.463 -1.2190  1.1826 -2.2793
  992TIP3   OH224466   0.895   3.975  16.894 -0.2858  0.0294  0.0066
  992TIP3    H124467   0.898   4.070  16.897 -2.0384  0.1559 -0.9211
  992TIP3    H224468   0.979   3.950  16.855  0.1741  1.1885  0.2081
  993TIP3   OH224469   5.902   3.437   4.512  0.2815 -0.4019  0.3482
  993TIP3    H124470   5.851   3.464   4.588 -0.8868  1.2420 -0.9491
  993TIP3    H224471   5.928   3.518   4.469  0.7645 -1.2713 -1.0997
  994TIP3   OH224472   3.738   4.783   3.125 -0.4819 -0.8557  0.3493
  994TIP3    H124473   3.820   4.783   3.076 -0.2952 -0.0556  0.6515
  994TIP3    H224474   3.675   4.827   3.067 -0.0967  0.6980  1.0733
  995TIP3   OH224475   2.529   3.263   4.570 -0.2807 -0.2506 -0.2654
  995TIP3    H124476   2.624   3.266   4.556 -0.0446  2.6596  1.2481
  995TIP3    H224477   2.491   3.289   4.486  0.5504  3.2116  0.2841
  996TIP3   OH224478   5.838   1.063   5.947 -0.1673  0.3998  0.3195
  996TIP3    H124479   5.744   1.068   5.967 -0.1238  1.6419  0.2556
  996TIP3    H224480   5.879   1.127   6.005  0.3200  1.7848 -1.4558
  997TIP3   OH224481   3.197   6.462  13.096 -0.2633  0.2917  0.2511
  997TIP3    H124482   3.175   6.407  13.020  0.4515  1.0948 -0.5471
  997TIP3    H224483   3.215   6.399  13.166 -3.1912 -0.4762  0.4656
  998TIP3   OH224484   0.130   3.157  17.082 -0.0223  0.0107  0.0785
  998TIP3    H124485   0.190   3.183  17.012 -1.4906  0.8043 -0.9506
  998TIP3    H224486   0.070   3.231  17.090 -1.7139 -1.3084  0.0520
  999TIP3   OH224487   0.331   4.087   0.379  0.2034  0.1912 -0.1066
  999TIP3    H124488   0.266   4.018   0.368 -0.3474  0.9011 -1.4598
  999TIP3    H224489   0.279   4.166   0.394  0.8052  0.5047  0.3585
 1000TIP3   OH224490   1.811   0.828  13.110 -0.2050  0.4545 -0.7343
 1000TIP3    H124491   1.901   0.860  13.113 -0.6119  1.8563 -2.1565
 1000TIP3    H224492   1.813   0.753  13.050  0.1232 -0.0101 -0.1571
 1001TIP3   OH224493   5.084   5.289  11.015  0.1918  0.2668  0.1749
 1001TIP3    H124494   5.101   5.337  10.934 -0.2829  0.2898  0.0871
 1001TIP3    H224495   4.994   5.309  11.037  0.7212  1.3678  1.4744
 1002TIP3   OH224496   1.245   2.851  15.649  0.0751 -0.4149 -0.1834
 1002TIP3    H124497   1.226   2.936  15.690 -0.8796 -0.5973 -0.2042
 1002TIP3    H224498   1.308   2.809  15.708 -0.4893 -0.2425  0.5703
 1003TIP3   OH224499   5.990   5.573   5.194  0.2694  0.1145  0.6992
 1003TIP3    H124500   5.942   5.595   5.274  0.0748  0.2532  0.5474
 1003TIP3    H224501   6.081   5.564   5.222  0.3164  0.8519  0.8223
 1004TIP3   OH224502   3.271   1.472   5.672  0.6091  0.5341  0.0240
 1004TIP3    H124503   3.209   1.539   5.699 -0.9821 -0.1724 -1.6657
 1004TIP3    H224504   3.318   1.510   5.598 -0.6530 -0.3245 -1.2678
 1005TIP3   OH224505   3.346   4.391  16.892  0.0200 -0.2462  0.0208
 1005TIP3    H124506   3.316   4.471  16.936  1.5421  0.4112 -0.0725
 1005TIP3    H224507   3.285   4.380  16.818 -1.6030 -0.4884  1.3338
 1006TIP3   OH224508   5.061   1.858  15.801 -0.3350 -0.1158 -0.6135
 1006TIP3    H124509   5.011   1.926  15.755 -0.2166  0.5084  0.1668
 1006TIP3    H224510   5.002   1.827  15.869  0.7181  1.4955  1.1257
 1007TIP3   OH224511   6.625   0.266   2.485 -0.6226 -0.0723 -0.3143
 1007TIP3    H124512   6.644   0.230   2.399  1.4842 -0.0823  0.0867
 1007TIP3    H224513   6.617   0.361   2.471 -2.3766 -0.2559 -0.7908
 1008TIP3   OH224514   4.562   5.233   0.791 -0.2536 -0.5561 -0.2190
 1008TIP3    H124515   4.541   5.232   0.884 -0.7204 -1.2463 -0.3271
 1008TIP3    H224516   4.655   5.256   0.788 -0.1148 -1.0011  0.4392
 1009TIP3   OH224517   1.761   3.632  14.957 -0.0742 -0.4448 -0.2543
 1009TIP3    H124518   1.762   3.637  15.053 -0.5632 -0.7089 -0.2304
 1009TIP3    H224519   1.758   3.539  14.938  0.2265 -0.3959 -0.5305
 1010TIP3   OH224520   5.832   6.825  12.723  0.2357  0.4425  0.0756
 1010TIP3    H124521   5.771   6.804  12.653  0.9784 -2.9802  0.3123
 1010TIP3    H224522   5.918   6.809  12.686  0.7096 -0.1153  1.3583
 1011TIP3   OH224523   0.626   3.796  13.844 -0.2463 -0.0894  0.4446
 1011TIP3    H124524   0.559   3.730  13.824 -1.2247  1.6929 -3.0904
 1011TIP3    H224525   0.705   3.762  13.802 -0.6807  0.7302 -1.1288
 1012TIP3   OH224526   2.330   5.039   6.836  0.4161 -0.2067 -0.8084
 1012TIP3    H124527   2.369   5.125   6.855  0.0248  0.4955 -2.8248
 1012TIP3    H224528   2.371   4.979   6.898  1.6525  1.2206 -0.1843
 1013TIP3   OH224529   4.121   4.888  14.966 -0.0653  0.2402 -0.2074
 1013TIP3    H124530   4.209   4.880  15.002 -0.1437  0.6812  0.0874
 1013TIP3    H224531   4.082   4.962  15.013 -0.9792 -0.6379  0.4817
 1014TIP3   OH224532   6.067   4.728   2.016  0.2304 -0.1212 -0.0862
 1014TIP3    H124533   6.108   4.760   2.097 -1.0691 -1.7706  1.3127
 1014TIP3    H224534   6.101   4.639   2.006 -0.8092 -0.4934 -0.4657
 1015TIP3   OH224535   3.621   5.066  16.125  0.2595 -0.1852 -0.2982
 1015TIP3    H124536   3.674   5.073  16.205  0.2923  0.3651 -0.3636
 1015TIP3    H224537   3.618   5.155  16.091  0.9196 -0.5398 -1.3437
 1016TIP3   OH224538   6.608   2.825   4.855 -0.3328  0.0003  0.4019
 1016TIP3    H124539   6.582   2.851   4.944  0.7361  0.3593  0.6264
 1016TIP3    H224540   6.672   2.891   4.829 -0.7286 -0.0284 -0.6990
 1017TIP3   OH224541   1.200   0.485  15.523 -0.2844  0.1163  0.2036
 1017TIP3    H124542   1.158   0.508  15.606  0.6719  1.1408  0.4378
 1017TIP3    H224543   1.200   0.566  15.473  1.3654  0.1715  0.2212
 1018TIP3   OH224544   0.383   2.464   5.072 -0.4156 -0.5667  0.5133
 1018TIP3    H124545   0.388   2.550   5.113  0.3066 -0.1282 -0.4681
 1018TIP3    H224546   0.452   2.465   5.006 -0.2726 -1.9686  0.6156
 1019TIP3   OH224547   4.518   0.077  16.513 -0.1858  0.4173  0.8047
 1019TIP3    H124548   4.561   0.162  16.526  0.2425  0.3634 -0.1511
 1019TIP3    H224549   4.502   0.044  16.601  0.6156  1.0122  1.1850
 1020TIP3   OH224550   4.798   2.003  13.926 -0.2195  0.7144 -0.3244
 1020TIP3    H124551   4.779   2.060  14.000  0.7788 -0.5647  0.9770
 1020TIP3    H224552   4.872   2.046  13.881  1.5422 -0.2108  1.5221
 1021TIP3   OH224553   0.035   5.475   3.472 -0.8588 -0.8364 -0.5394
 1021TIP3    H124554   0.047   5.390   3.429  0.8374 -1.6311  1.3462
 1021TIP3    H224555  -0.051   5.504   3.442 -1.5198 -3.2255 -1.2313
 1022TIP3   OH224556   3.096   5.493   5.410 -0.2117  0.2384  0.2822
 1022TIP3    H124557   3.009   5.462   5.434 -0.0312  0.2655  0.9835
 1022TIP3    H224558   3.139   5.417   5.372 -0.0774 -0.1507  1.1884
 1023TIP3   OH224559   0.880   0.048   6.309  0.7628 -0.0721  1.0676
 1023TIP3    H124560   0.911  -0.043   6.309  0.8818 -0.0804 -1.3603
 1023TIP3    H224561   0.957   0.099   6.286  0.0152  0.3085 -0.7483
 1024TIP3   OH224562   4.334   3.265   5.797  0.6312  0.1794 -0.2782
 1024TIP3    H124563   4.311   3.358   5.787  2.6463  1.0114  1.9851
 1024TIP3    H224564   4.320   3.246   5.889 -1.9569 -2.5435 -1.0586
 1025TIP3   OH224565   6.118   5.611   1.043 -0.3761 -0.1390 -0.3789
 1025TIP3    H124566   6.166   5.684   1.083 -0.0425  1.2444 -2.9999
 1025TIP3    H224567   6.032   5.648   1.022 -0.8094 -1.0437 -0.2285
 1026TIP3   OH224568   1.333   6.350  10.853 -0.0900  0.0759  0.0757
 1026TIP3    H124569   1.242   6.337  10.879 -0.2679  0.6515 -0.2300
 1026TIP3    H224570   1.355   6.436  10.888 -0.2534  0.7672 -1.4164
 1027TIP3   OH224571   5.637   5.744  14.906 -0.0182 -0.1413 -0.1109
 1027TIP3    H124572   5.557   5.797  14.910 -0.5945 -0.9485 -0.6119
 1027TIP3    H224573   5.618   5.676  14.842  0.5880 -1.1435  0.7355
 1028TIP3   OH224574   0.586   4.642   3.072  0.1241  0.1960 -0.1593
 1028TIP3    H124575   0.589   4.562   3.020 -0.6385 -1.0260  1.5549
 1028TIP3    H224576   0.504   4.684   3.047 -0.8333 -0.9868  0.8037
 1029TIP3   OH224577   6.383   0.617   5.790  0.1737  0.4987 -0.4474
 1029TIP3    H124578   6.351   0.677   5.858  0.4694  0.1987 -0.0423
 1029TIP3    H224579   6.448   0.563   5.834 -1.1588 -1.1515 -0.4155
 1030TIP3   OH224580   1.654   4.845  12.740 -0.5030  0.7591  0.2519
 1030TIP3    H124581   1.689   4.853  12.829 -3.1976  0.2296  1.4942
 1030TIP3    H224582   1.680   4.757  12.712  0.4878  0.9788  0.4495
 1031TIP3   OH224583   3.173   5.296   1.184 -0.6657 -0.0030  0.4771
 1031TIP3    H124584   3.209   5.377   1.146  0.9952 -0.5819  0.7577
 1031TIP3    H224585   3.179   5.309   1.279  2.1602 -1.4494  0.5983
 1032TIP3   OH224586   4.528   6.554   0.243 -0.6270  0.2277  0.7563
 1032TIP3    H124587   4.614   6.580   0.208 -1.1075  1.6206  0.5410
 1032TIP3    H224588   4.542   6.547   0.337 -0.1757  0.0062  0.6787
 1033TIP3   OH224589   0.902   2.782  10.915  0.6326  0.0005 -0.1311
 1033TIP3    H124590   0.891   2.692  10.886  0.7124 -0.1553  0.3131
 1033TIP3    H224591   0.916   2.775  11.010 -0.1609  0.5333  0.0297
 1034TIP3   OH224592   6.547   1.634  16.741 -0.1340 -0.6559  0.5645
 1034TIP3    H124593   6.500   1.591  16.670  1.1291 -0.9546 -0.1123
 1034TIP3    H224594   6.546   1.727  16.717  1.6531 -0.9226 -0.7065
 1035TIP3   OH224595   2.091   0.116  10.993  0.2428  0.0237 -0.2749
 1035TIP3    H124596   2.155   0.102  10.923  1.3510 -0.1105  0.7378
 1035TIP3    H224597   2.007   0.124  10.947  1.0139  0.5647 -1.6699
 1036TIP3   OH224598   4.667   2.949  16.309 -0.2810 -0.2615 -0.6081
 1036TIP3    H124599   4.655   2.908  16.223 -0.4925  0.6661 -1.0360
 1036TIP3    H224600   4.608   2.901  16.367  0.3251 -1.3053 -0.8408
 1037TIP3   OH224601   2.104   2.395  11.963 -0.3331 -0.0213  0.1997
 1037TIP3    H124602   2.044   2.320  11.959  0.4556 -0.6911  0.5983
 1037TIP3    H224603   2.102   2.422  12.054 -0.9833  0.7644 -0.0397
 1038TIP3   OH224604   4.555   4.545  14.852  0.3525  0.0082  0.0645
 1038TIP3    H124605   4.463   4.559  14.873  0.3699  0.3263 -0.0586
 1038TIP3    H224606   4.587   4.632  14.828  1.0460  0.1889  1.5152
 1039TIP3   OH224607   5.821   0.307   5.700 -0.2966  0.1163 -0.1001
 1039TIP3    H124608   5.772   0.372   5.649 -1.7049 -1.1663 -0.4678
 1039TIP3    H224609   5.885   0.272   5.638  1.5705  2.1926  0.5352
 1040TIP3   OH224610   5.239   2.859  10.481  0.6356 -0.8141 -0.1025
 1040TIP3    H124611   5.179   2.912  10.534  0.3272 -1.3454  0.0835
 1040TIP3    H224612   5.182   2.816  10.417  0.9752 -0.3784 -0.6986
 1041TIP3   OH224613   1.652   3.037  13.925 -0.1977 -0.4134 -0.1955
 1041TIP3    H124614   1.714   3.035  13.852  1.2715 -1.3136  0.9906
 1041TIP3    H224615   1.707   3.023  14.003 -1.4727  1.9370  1.2567
 1042TIP3   OH224616   2.412   5.822   1.663 -0.4532 -0.4392 -0.5174
 1042TIP3    H124617   2.320   5.845   1.652 -0.3694  0.0517 -0.2303
 1042TIP3    H224618   2.450   5.896   1.712 -0.0326 -0.8976 -0.1414
 1043TIP3   OH224619   1.269   3.482  14.081  0.0022 -0.3759 -0.4303
 1043TIP3    H124620   1.229   3.396  14.066  0.2021 -0.2104 -2.0685
 1043TIP3    H224621   1.330   3.467  14.154  0.0062 -1.6135 -0.6522
 1044TIP3   OH224622   4.239   1.283   2.942 -0.2135  0.1531  0.5196
 1044TIP3    H124623   4.332   1.308   2.945 -0.2807  0.6082 -0.7243
 1044TIP3    H224624   4.192   1.365   2.950 -0.4435  0.3926 -2.2131
 1045TIP3   OH224625   0.238   3.071  11.790  0.3088  0.0020 -0.0552
 1045TIP3    H124626   0.295   3.047  11.863  1.8245  1.4867 -0.7058
 1045TIP3    H224627   0.290   3.055  11.712 -0.2882  1.0095 -0.6852
 1046TIP3   OH224628   2.947   3.964  16.911  0.2573 -0.7532 -0.1082
 1046TIP3    H124629   2.995   4.021  16.971  0.4016 -0.4429 -0.5111
 1046TIP3    H224630   2.870   3.937  16.960  0.3570 -0.4752  0.2052
 1047TIP3   OH224631   0.076   0.131   3.289 -0.3711  0.4725  0.0071
 1047TIP3    H124632   0.083   0.211   3.236  1.0654 -0.7829 -1.8304
 1047TIP3    H224633   0.025   0.071   3.234  0.5409 -0.6357  0.3342
 1048TIP3   OH224634   6.266   3.480   0.438  0.3001  0.5124 -0.1721
 1048TIP3    H124635   6.334   3.547   0.428  0.2848  0.4041 -1.0906
 1048TIP3    H224636   6.219   3.481   0.354 -0.3823  0.0941  0.1972
 1049TIP3   OH224637   2.506   3.397  12.191  0.1705  0.4864  0.1354
 1049TIP3    H124638   2.430   3.422  12.244  1.7537 -0.1123  2.9078
 1049TIP3    H224639   2.552   3.479  12.176 -0.7280  0.7880 -1.1829
 1050TIP3   OH224640   6.828   6.114   3.485  0.1129  0.0704  0.1857
 1050TIP3    H124641   6.901   6.159   3.444  0.3701 -0.2111  0.3268
 1050TIP3    H224642   6.825   6.028   3.442 -0.1588  0.0939  0.1527
 1051TIP3   OH224643   3.494   4.177   0.169  0.6530  0.2995 -0.5150
 1051TIP3    H124644   3.548   4.098   0.164 -0.1056 -0.3847  1.2661
 1051TIP3    H224645   3.448   4.180   0.085  2.1141 -0.0715 -1.3671
 1052TIP3   OH224646   3.660   6.264   2.914  0.4339 -0.1160 -0.0366
 1052TIP3    H124647   3.710   6.277   2.834 -1.0950  2.0399 -0.7473
 1052TIP3    H224648   3.570   6.249   2.884 -0.0429  0.0285  1.2459
 1053TIP3   OH224649   5.911   4.181  15.336 -0.1700 -0.1695  1.0015
 1053TIP3    H124650   5.876   4.096  15.312 -0.2675 -0.5620  2.4383
 1053TIP3    H224651   6.004   4.165  15.356 -0.1702  0.0670  1.2058
 1054TIP3   OH224652   5.708   3.246  11.615  0.9423  0.4618  0.4837
 1054TIP3    H124653   5.732   3.218  11.704 -1.4862  0.7781  1.3047
 1054TIP3    H224654   5.736   3.337  11.611 -0.7549  1.0925  1.7335
 1055TIP3   OH224655   6.562   2.614   4.260  0.5005 -0.2657  0.3784
 1055TIP3    H124656   6.474   2.587   4.289 -0.5095  1.5342 -0.8351
 1055TIP3    H224657   6.604   2.533   4.233 -0.9441 -1.1281  0.5980
 1056TIP3   OH224658   2.572   0.436   4.623 -0.8553 -0.3178 -0.3510
 1056TIP3    H124659   2.606   0.457   4.710 -2.5106 -0.2074  0.3094
 1056TIP3    H224660   2.560   0.520   4.580  1.0257 -0.4186 -1.1495
 1057TIP3   OH224661   5.910   0.495  13.294  0.1359 -0.3079  0.5065
 1057TIP3    H124662   5.899   0.588  13.316 -1.6105 -0.5689  0.8892
 1057TIP3    H224663   5.993   0.491  13.246  0.3786  1.3973  0.7225
 1058TIP3   OH224664   2.475   4.037  11.737 -0.5169  0.2682  0.7536
 1058TIP3    H124665   2.550   4.056  11.681 -1.6408  0.3151 -0.7855
 1058TIP3    H224666   2.505   4.059  11.825  1.6368 -0.7648  0.3434
 1059TIP3   OH224667   0.501   1.343  16.822 -0.7488  0.0819  0.0660
 1059TIP3    H124668   0.561   1.396  16.874 -2.1694  0.2971  1.5799
 1059TIP3    H224669   0.554   1.311  16.749  0.8623  1.2569  0.6584
 1060TIP3   OH224670   0.390   0.597   4.461  0.2446  0.1844 -0.3102
 1060TIP3    H124671   0.366   0.690   4.468  0.7420  0.3127 -0.2825
 1060TIP3    H224672   0.390   0.579   4.367 -0.8451 -0.0546 -0.2739
 1061TIP3   OH224673   5.458   5.357   3.112 -0.3407  0.0653 -0.1909
 1061TIP3    H124674   5.440   5.264   3.124  0.1128  0.0835  0.7269
 1061TIP3    H224675   5.386   5.402   3.157 -0.2867  0.1616 -0.1995
 1062TIP3   OH224676   3.845   4.199  17.094  0.5257  0.1308 -0.6057
 1062TIP3    H124677   3.778   4.264  17.074  0.8027  0.1946 -1.3533
 1062TIP3    H224678   3.820   4.165  17.180  0.0161  0.7599 -0.4953
 1063TIP3   OH224679   6.627   0.562  10.521 -0.1509 -0.2259 -0.5146
 1063TIP3    H124680   6.677   0.644  10.527 -2.3634  1.1519  0.4610
 1063TIP3    H224681   6.570   0.575  10.445 -2.5767  0.4748  1.2970
 1064TIP3   OH224682   1.883   2.270   4.289 -0.3409  0.2681  0.3521
 1064TIP3    H124683   1.942   2.344   4.275  1.4848 -0.9629  1.2092
 1064TIP3    H224684   1.797   2.311   4.300  0.2496  2.0973 -1.2627
 1065TIP3   OH224685   3.801   6.670  11.970  0.2902  0.4481  0.2927
 1065TIP3    H124686   3.779   6.745  12.024  1.0185  0.1110  1.0753
 1065TIP3    H224687   3.739   6.674  11.897  0.3599  1.8344  0.2853
 1066TIP3   OH224688   6.766   5.373  16.334  0.4554 -0.1812  0.3712
 1066TIP3    H124689   6.691   5.430  16.346  0.1771 -0.5704  0.5123
 1066TIP3    H224690   6.792   5.348  16.423 -0.6388 -1.8226  0.2794
 1067TIP3   OH224691   4.311   5.336  15.236 -0.3206 -0.6710 -0.3411
 1067TIP3    H124692   4.284   5.275  15.305 -0.5543 -1.6577 -1.2684
 1067TIP3    H224693   4.280   5.421  15.267 -1.1720 -1.2142  0.3874
 1068TIP3   OH224694   6.084   4.894  13.603 -0.5373 -0.1172  0.8930
 1068TIP3    H124695   6.004   4.882  13.653 -0.5096  0.3117  1.0447
 1068TIP3    H224696   6.096   4.989  13.598 -0.0277 -0.1744  0.8972
 1069TIP3   OH224697   4.724   0.203   1.362 -0.3736 -0.5628  0.4211
 1069TIP3    H124698   4.737   0.222   1.269  0.4335 -1.7083  0.2788
 1069TIP3    H224699   4.678   0.119   1.363 -1.2102 -0.1138  1.0612
 1070TIP3   OH224700   1.252   0.756   1.378 -0.2353 -0.4717  0.1711
 1070TIP3    H124701   1.245   0.660   1.371 -0.3762 -0.3586 -1.9037
 1070TIP3    H224702   1.165   0.788   1.356  0.2924  0.1781 -1.0582
 1071TIP3   OH224703   0.374   4.898   5.804  0.2600  0.8122  0.1729
 1071TIP3    H124704   0.309   4.943   5.858  0.1479 -0.9151  1.5964
 1071TIP3    H224705   0.329   4.819   5.773  0.7153  1.1669 -1.5038
 1072TIP3   OH224706   5.608   5.124  15.992 -0.1155  0.0238 -0.6470
 1072TIP3    H124707   5.516   5.150  15.990 -0.5293 -1.3310 -0.1048
 1072TIP3    H224708   5.606   5.029  15.989  1.2387 -0.0661  0.4637
 1073TIP3   OH224709   4.152   6.629   6.066  0.2009 -0.3471  0.6717
 1073TIP3    H124710   4.069   6.619   6.111 -0.6497 -0.7619 -0.9177
 1073TIP3    H224711   4.215   6.581   6.121 -0.4866  0.3248  2.0983
 1074TIP3   OH224712   4.247   1.865   4.518  0.4173  0.6188  0.0900
 1074TIP3    H124713   4.300   1.787   4.529 -0.1692  0.4609  2.3605
 1074TIP3    H224714   4.310   1.934   4.495  0.9988 -0.3609 -1.4203
 1075TIP3   OH224715   6.329   4.996  12.764 -0.0848  0.1035 -0.4328
 1075TIP3    H124716   6.348   4.905  12.742 -1.5501 -0.5491  0.8282
 1075TIP3    H224717   6.349   5.003  12.857 -0.0354  1.0661 -0.5086
 1076TIP3   OH224718   3.663   1.630  10.996  0.0351  0.1875 -0.3546
 1076TIP3    H124719   3.631   1.547  10.963 -0.3810  0.2287 -0.0590
 1076TIP3    H224720   3.724   1.661  10.928 -0.2241 -0.0936 -0.7185
 1077TIP3   OH224721   4.667   3.155  16.004 -0.3772  0.4465 -0.6276
 1077TIP3    H124722   4.758   3.165  16.031 -0.6881  2.1199 -0.1187
 1077TIP3    H224723   4.622   3.230  16.042 -1.1700  2.0794 -4.3113
 1078TIP3   OH224724   0.272   6.529  12.046 -0.9021  0.4343  0.2176
 1078TIP3    H124725   0.341   6.477  12.005 -2.4719 -1.4659 -0.1509
 1078TIP3    H224726   0.320   6.591  12.102  1.1167  0.0374 -0.9522
 1079TIP3   OH224727   1.959   3.324   5.330  0.1790  0.0015 -0.0684
 1079TIP3    H124728   1.931   3.283   5.249  0.6324 -1.6420  0.5724
 1079TIP3    H224729   2.045   3.362   5.309  0.1242 -0.0903 -0.4569
 1080TIP3   OH224730   1.621   4.202  11.510  0.1143  0.2839  0.1690
 1080TIP3    H124731   1.588   4.277  11.559 -0.7568 -1.1923  1.9545
 1080TIP3    H224732   1.670   4.151  11.575  1.0935 -0.4687 -1.1128
 1081TIP3   OH224733   5.820   2.329   3.053  0.1351 -0.8710  0.1461
 1081TIP3    H124734   5.802   2.258   3.114  1.3986 -0.7886  0.6504
 1081TIP3    H224735   5.893   2.298   3.000  0.4009 -0.1276  0.0682
 1082TIP3   OH224736   2.133   1.244  14.310 -0.0201 -0.3765 -0.6888
 1082TIP3    H124737   2.135   1.227  14.216  1.6539 -3.2147 -0.2710
 1082TIP3    H224738   2.171   1.331  14.319  0.0967 -0.1797 -2.6256
 1083TIP3   OH224739   4.787   1.987  13.516  0.7234 -0.0747  0.0018
 1083TIP3    H124740   4.858   2.050  13.514  2.7055 -2.1926 -1.8961
 1083TIP3    H224741   4.743   1.997  13.431  0.4705 -0.6270  0.0627
 1084TIP3   OH224742   4.574   4.902  15.777 -0.2889 -0.1483  0.4619
 1084TIP3    H124743   4.604   4.916  15.687  0.2123  1.3042  0.8290
 1084TIP3    H224744   4.486   4.866  15.768 -0.6153  0.8595 -0.6276
 1085TIP3   OH224745   1.258   3.140   3.227 -0.0445  0.1599 -0.1576
 1085TIP3    H124746   1.300   3.061   3.261 -0.9481  0.7121  2.4856
 1085TIP3    H224747   1.169   3.112   3.205  0.3575 -0.0600 -1.5527
 1086TIP3   OH224748   6.321   5.645  12.398  0.6409  0.0095 -0.1961
 1086TIP3    H124749   6.248   5.703  12.376 -0.4558 -0.5511  1.7390
 1086TIP3    H224750   6.307   5.567  12.343  0.1287  0.1547 -0.2775
 1087TIP3   OH224751   4.958   6.849   4.958  0.6037 -0.2258  0.0073
 1087TIP3    H124752   4.956   6.795   4.878  1.8568 -1.2617  0.6362
 1087TIP3    H224753   5.007   6.927   4.932  0.8489 -0.4734 -0.2948
 1088TIP3   OH224754   2.655   0.724  13.284  0.1325  0.2144  0.4003
 1088TIP3    H124755   2.675   0.813  13.312  1.1460  0.3339 -0.6535
 1088TIP3    H224756   2.570   0.705  13.324 -0.4996  1.9416 -0.0303
 1089TIP3   OH224757   5.281   2.171  13.365  0.5247  0.2646  0.6407
 1089TIP3    H124758   5.229   2.251  13.373  1.2860  0.9517 -0.8682
 1089TIP3    H224759   5.215   2.102  13.353 -0.1459  0.6197  2.0882
 1090TIP3   OH224760   2.041   4.492  16.888  0.2502 -0.3203  0.6635
 1090TIP3    H124761   2.112   4.461  16.944  1.5267  0.9118 -0.2321
 1090TIP3    H224762   1.997   4.412  16.859  0.2866 -1.0259  2.4546
 1091TIP3   OH224763   2.332   5.887  14.498 -0.2187  0.0537 -0.3413
 1091TIP3    H124764   2.402   5.900  14.434 -0.3933  1.5060 -0.2846
 1091TIP3    H224765   2.362   5.934  14.576  0.3131 -2.2769  0.9539
 1092TIP3   OH224766   3.242   4.266   3.212 -0.2274 -0.3797  0.5003
 1092TIP3    H124767   3.292   4.322   3.271  0.1080 -0.9972  0.8107
 1092TIP3    H224768   3.270   4.177   3.234  1.9754 -0.5545 -2.4520
 1093TIP3   OH224769   5.114   6.655  15.965 -0.6342  0.4350  0.5610
 1093TIP3    H124770   5.055   6.585  15.939  1.0345 -1.3288  1.3107
 1093TIP3    H224771   5.068   6.699  16.037 -1.5785 -0.0382  0.2642
 1094TIP3   OH224772   2.349   1.886  13.294  0.7002 -0.2464  0.5904
 1094TIP3    H124773   2.430   1.901  13.342  0.8118 -1.0376  0.6490
 1094TIP3    H224774   2.375   1.877  13.203  0.5258  0.8895  0.4153
 1095TIP3   OH224775   0.324   6.438   3.853 -0.0752  0.0389 -0.2257
 1095TIP3    H124776   0.295   6.474   3.769 -1.3240 -1.9295 -0.6947
 1095TIP3    H224777   0.249   6.450   3.911  0.4438  0.5098  0.3648
 1096TIP3   OH224778   5.940   2.889  12.618  0.5950  0.5579  0.2532
 1096TIP3    H124779   5.889   2.949  12.563 -0.9618 -0.4724  0.5140
 1096TIP3    H224780   5.970   2.943  12.691  1.7931  1.6955 -1.0307
 1097TIP3   OH224781   6.265   6.672   5.749 -0.2739 -0.3840 -0.4911
 1097TIP3    H124782   6.340   6.654   5.693 -0.0103 -1.1892  0.0951
 1097TIP3    H224783   6.204   6.721   5.694  1.0145  0.9996 -0.7390
 1098TIP3   OH224784   4.387   0.802  16.470  0.4126  0.1504 -0.0637
 1098TIP3    H124785   4.385   0.829  16.379 -1.9854 -0.0402 -0.1326
 1098TIP3    H224786   4.401   0.707  16.467  4.7814  0.6147  0.0299
 1099TIP3   OH224787   3.875   4.668  11.609 -0.0324 -0.4942 -0.1702
 1099TIP3    H124788   3.839   4.747  11.650  1.4289  1.3553 -2.2123
 1099TIP3    H224789   3.801   4.608  11.604 -2.1527  2.0005 -1.4434
 1100TIP3   OH224790   3.012   0.372   5.746  0.3908 -0.1285  0.1077
 1100TIP3    H124791   3.072   0.439   5.714  1.8608 -1.3378  0.2004
 1100TIP3    H224792   2.925   0.404   5.722  1.2078  0.5578 -2.2161
 1101TIP3   OH224793   1.917   0.477   1.665  0.2707 -0.6713 -0.0873
 1101TIP3    H124794   1.839   0.484   1.609 -0.0935 -2.1662  0.1915
 1101TIP3    H224795   1.975   0.417   1.617  2.2694  2.0447 -1.3663
 1102TIP3   OH224796   4.345   3.490  15.605  0.0535 -0.4860 -0.4479
 1102TIP3    H124797   4.253   3.504  15.582  0.7687  3.4332 -1.7478
 1102TIP3    H224798   4.345   3.488  15.701 -1.3509  0.0704 -0.4043
 1103TIP3   OH224799   4.510   3.301   1.188 -0.6339  0.2326 -0.1000
 1103TIP3    H124800   4.466   3.346   1.116 -1.2926  1.3675  0.9659
 1103TIP3    H224801   4.445   3.238   1.220 -1.2558  1.3922  0.9987
 1104TIP3   OH224802   3.566   6.191   5.801 -0.0388 -0.2041  0.2436
 1104TIP3    H124803   3.547   6.270   5.851 -0.8613 -0.9496  1.1454
 1104TIP3    H224804   3.526   6.207   5.715 -0.7748  0.0961  0.6321
 1105TIP3   OH224805   5.539   3.219   1.112  0.2696 -0.1660  0.1675
 1105TIP3    H124806   5.468   3.160   1.088 -0.0606  0.4672 -0.4331
 1105TIP3    H224807   5.590   3.169   1.176  0.3381 -1.3486 -0.7503
 1106TIP3   OH224808   2.277   6.450  14.221  0.4805  0.0950  0.2926
 1106TIP3    H124809   2.275   6.518  14.153  3.2008  0.3408  0.3357
 1106TIP3    H224810   2.295   6.498  14.302 -1.9553 -0.2886  1.1548
 1107TIP3   OH224811   4.416   2.984   5.524  0.4683  0.1226 -0.1114
 1107TIP3    H124812   4.324   2.967   5.545 -0.3119  1.2125 -2.3168
 1107TIP3    H224813   4.434   2.928   5.448  1.4872  0.2528  0.0152
 1108TIP3   OH224814   2.411   1.115  16.867 -0.1347 -0.4725  0.1838
 1108TIP3    H124815   2.323   1.151  16.874 -0.3663 -1.0702  0.4185
 1108TIP3    H224816   2.443   1.112  16.957  0.2609  0.0677  0.0643
 1109TIP3   OH224817   5.249   2.363   1.080 -0.4610  0.0864 -0.2487
 1109TIP3    H124818   5.224   2.302   1.011 -1.3748  1.4621 -1.2029
 1109TIP3    H224819   5.343   2.351   1.090 -0.6555 -1.5864 -0.2712
 1110TIP3   OH224820   4.317   6.742   0.318  0.0893 -0.6227 -0.2488
 1110TIP3    H124821   4.230   6.727   0.280 -0.9508 -2.5223  2.6066
 1110TIP3    H224822   4.373   6.676   0.277  0.0619  0.1176 -1.5354
 1111TIP3   OH224823   6.822   1.425   2.076  0.4683 -0.0450 -0.0159
 1111TIP3    H124824   6.737   1.454   2.041 -0.4932 -2.5106  0.0391
 1111TIP3    H224825   6.817   1.445   2.169  0.4532  0.9083 -0.2149
 1112TIP3   OH224826   3.011   2.047  11.411 -0.1907 -0.1177  0.1049
 1112TIP3    H124827   3.013   1.977  11.477  0.9908 -0.6203 -0.4417
 1112TIP3    H224828   3.030   2.003  11.328  0.8461  0.8751 -0.2106
 1113TIP3   OH224829   3.624   2.333   1.127 -0.2376 -0.0822  0.2870
 1113TIP3    H124830   3.705   2.358   1.172 -0.2525  1.1428 -0.3168
 1113TIP3    H224831   3.653   2.276   1.056  0.5177  2.6437 -1.7582
 1114TIP3   OH224832   1.398   2.699   5.470 -0.2922 -0.0563 -0.1953
 1114TIP3    H124833   1.391   2.624   5.410 -0.6903 -0.5330  0.4338
 1114TIP3    H224834   1.492   2.715   5.476 -0.2864  0.5111 -1.5583
 1115TIP3   OH224835   0.778   3.441  16.245 -0.9016  0.4948 -0.1340
 1115TIP3    H124836   0.845   3.493  16.289 -1.8689  1.7877 -0.1413
 1115TIP3    H224837   0.746   3.381  16.313  1.2185 -1.1594 -0.5015
 1116TIP3   OH224838   3.085   3.649  16.568  0.4313  0.3491 -0.0839
 1116TIP3    H124839   3.120   3.726  16.613  1.3079  0.0052 -0.1704
 1116TIP3    H224840   3.143   3.577  16.593 -0.7340 -0.4218  0.4708
 1117TIP3   OH224841   0.544   4.320   1.141  0.1495 -0.8654  0.0487
 1117TIP3    H124842   0.480   4.250   1.123  0.5300 -0.8640 -1.4822
 1117TIP3    H224843   0.626   4.286   1.105  0.5673 -0.0582  0.2339
 1118TIP3   OH224844   4.644   0.718   6.169  0.0214 -0.0607 -0.2374
 1118TIP3    H124845   4.697   0.784   6.214 -2.2357  0.8190  1.3241
 1118TIP3    H224846   4.666   0.636   6.214 -0.9347  0.5320  1.4113
 1119TIP3   OH224847   6.354   0.954   5.148  0.3453  0.7605 -0.2746
 1119TIP3    H124848   6.291   0.900   5.196  1.3647 -0.1989  0.0231
 1119TIP3    H224849   6.379   1.022   5.210  1.8300 -0.6078  0.6936
 1120TIP3   OH224850   3.725   5.753  13.493 -0.1478 -0.5759 -0.1220
 1120TIP3    H124851   3.680   5.688  13.439  1.8849 -1.2567 -1.0728
 1120TIP3    H224852   3.818   5.736  13.479  0.4695  2.4109 -0.2406
 1121TIP3   OH224853   6.192   2.524  14.152 -0.0756  0.4304  0.2680
 1121TIP3    H124854   6.278   2.494  14.181 -1.0311 -2.9845  0.0567
 1121TIP3    H224855   6.138   2.445  14.151 -3.1663  2.3558  0.0747
 1122TIP3   OH224856   1.692   3.334  10.573  0.6065 -0.4201 -0.1219
 1122TIP3    H124857   1.717   3.247  10.541 -0.7278 -0.4427 -1.2023
 1122TIP3    H224858   1.613   3.356  10.523 -2.5347 -0.9804  4.0641
 1123TIP3   OH224859   1.516   4.670  10.569  0.3042  0.5369 -0.9758
 1123TIP3    H124860   1.517   4.678  10.473 -1.0565 -0.8649 -1.1597
 1123TIP3    H224861   1.442   4.611  10.586 -0.4508  1.9674  1.0408
 1124TIP3   OH224862   4.038   2.173  14.557  0.2241  0.4997 -0.5183
 1124TIP3    H124863   4.107   2.240  14.552  1.1034 -0.3522 -0.2215
 1124TIP3    H224864   4.064   2.118  14.631  0.8433 -1.5759 -2.1683
 1125TIP3   OH224865   5.832   2.465   1.929 -0.2883  0.2732  0.6175
 1125TIP3    H124866   5.775   2.389   1.916 -0.3488  0.2804  0.8374
 1125TIP3    H224867   5.856   2.462   2.021 -0.2404  0.4879  0.6133
 1126TIP3   OH224868   5.739   1.154   3.608 -0.0050  0.4723  0.2456
 1126TIP3    H124869   5.686   1.192   3.678  0.3737 -0.5095  1.1089
 1126TIP3    H224870   5.677   1.104   3.555  0.3061 -3.5299  3.1908
 1127TIP3   OH224871   2.580   2.447  11.222  0.0003 -0.8668  0.7793
 1127TIP3    H124872   2.660   2.484  11.258 -0.2486  0.3305  0.1536
 1127TIP3    H224873   2.597   2.440  11.128 -0.0716 -2.0752  0.8467
 1128TIP3   OH224874   4.063   0.683  10.686 -0.5165  0.3335 -0.7444
 1128TIP3    H124875   4.100   0.690  10.598 -1.9864 -0.6446 -1.4656
 1128TIP3    H224876   4.052   0.589  10.701  1.7783  0.2760  1.4325
 1129TIP3   OH224877   0.753   3.717  12.216  0.6709  0.1633  0.3142
 1129TIP3    H124878   0.804   3.790  12.181  0.7305  0.8613  1.7787
 1129TIP3    H224879   0.738   3.740  12.308 -2.8633  0.3313 -0.1528
 1130TIP3   OH224880   0.022   3.463  12.882  0.0875  0.3844  0.0316
 1130TIP3    H124881   0.048   3.372  12.893  2.0246  0.8234 -0.6134
 1130TIP3    H224882  -0.065   3.458  12.840  0.3718 -1.1523 -0.4479
 1131TIP3   OH224883   3.817   6.311  15.603  0.5852  0.2532 -0.2977
 1131TIP3    H124884   3.756   6.257  15.552  0.8664 -0.9957  0.6235
 1131TIP3    H224885   3.766   6.340  15.679  0.7520  0.3584 -0.2259
 1132TIP3   OH224886   6.724   4.259  16.282  0.7319  0.0509  0.2126
 1132TIP3    H124887   6.738   4.284  16.374 -3.4979 -0.5284  1.2154
 1132TIP3    H224888   6.670   4.330  16.247 -0.1293 -1.1314 -0.9209
 1133TIP3   OH224889   1.109   2.356  10.712 -0.2651  0.2350  0.3905
 1133TIP3    H124890   1.163   2.341  10.789  2.3105 -0.3284 -1.3763
 1133TIP3    H224891   1.114   2.450  10.697 -0.4997  0.2992  0.7015
 1134TIP3   OH224892   0.101   6.830  14.238  0.4325  0.5739  0.0848
 1134TIP3    H124893   0.049   6.891  14.185 -0.5528  0.2299  0.6203
 1134TIP3    H224894   0.192   6.852  14.218  0.0891  1.7085 -0.3011
 1135TIP3   OH224895   0.684   0.836  15.971  0.9048  0.3034  0.3793
 1135TIP3    H124896   0.687   0.916  16.024  1.1507 -0.4542  1.5447
 1135TIP3    H224897   0.594   0.831  15.940  0.1527 -0.3293  2.5131
 1136TIP3   OH224898   2.028   1.550  14.168  0.2278  0.3291 -0.2432
 1136TIP3    H124899   2.122   1.535  14.161  0.3923  1.6656 -1.2619
 1136TIP3    H224900   2.018   1.645  14.159 -1.1475  0.3018  0.7238
 1137TIP3   OH224901   0.794   2.195  13.559 -0.3539  0.5949  0.5976
 1137TIP3    H124902   0.800   2.136  13.633 -0.4826  0.8882  0.8449
 1137TIP3    H224903   0.859   2.162  13.496 -1.2207 -0.4962  0.2347
 1138TIP3   OH224904   2.718   1.404  16.670  0.6389 -0.5957 -0.0909
 1138TIP3    H124905   2.633   1.409  16.713  0.2482 -1.4734 -0.7289
 1138TIP3    H224906   2.741   1.495  16.651  0.9350 -0.1570  2.1390
 1139TIP3   OH224907   1.252   6.779  13.474  0.0263  0.3329 -0.1418
 1139TIP3    H124908   1.179   6.839  13.489  1.0682  1.8423 -0.8871
 1139TIP3    H224909   1.253   6.724  13.552 -0.8896  1.3483  0.6290
 1140TIP3   OH224910   2.583   4.456   2.451 -0.3520 -0.7658 -0.1810
 1140TIP3    H124911   2.557   4.447   2.359  1.5374  1.2941 -1.0322
 1140TIP3    H224912   2.654   4.520   2.449 -0.9444  0.1547  2.8537
 1141TIP3   OH224913   2.361   2.026  12.668 -0.0219  0.5460 -0.6642
 1141TIP3    H124914   2.324   2.111  12.690 -0.5637  0.6166 -1.7720
 1141TIP3    H224915   2.313   1.999  12.589 -1.1178 -1.5809  0.6313
 1142TIP3   OH224916   3.757   4.195   4.495 -0.0886 -0.1249  0.2432
 1142TIP3    H124917   3.827   4.200   4.431 -0.7791  1.4896 -0.4515
 1142TIP3    H224918   3.801   4.179   4.578  0.9034 -1.2006 -0.4562
 1143TIP3   OH224919   1.662   1.239  15.412  0.2632  0.0611  0.0471
 1143TIP3    H124920   1.703   1.155  15.391 -0.3396 -0.3483  0.5098
 1143TIP3    H224921   1.720   1.304  15.371  0.5860 -0.5854 -0.5480
 1144TIP3   OH224922   5.517   3.738  12.067  0.3347  0.3227 -0.0938
 1144TIP3    H124923   5.501   3.659  12.015 -1.4132 -0.7483  1.8818
 1144TIP3    H224924   5.448   3.799  12.039 -0.5607 -0.2266  0.8375
 1145TIP3   OH224925   0.391   6.652  13.891 -0.1306  0.3195  0.2615
 1145TIP3    H124926   0.437   6.621  13.813 -0.3977 -0.8772  0.5658
 1145TIP3    H224927   0.374   6.573  13.942 -2.0503  0.7920  0.4205
 1146TIP3   OH224928   1.530   5.903   2.130  0.0046  0.5087  0.0948
 1146TIP3    H124929   1.532   5.974   2.195  0.0846  1.4503 -0.8910
 1146TIP3    H224930   1.617   5.905   2.090 -0.5927  1.1746 -1.2621
 1147TIP3   OH224931   1.665   1.459  15.593 -0.2892 -0.2921 -0.2494
 1147TIP3    H124932   1.670   1.382  15.536 -1.5418  0.7629 -1.9019
 1147TIP3    H224933   1.744   1.510  15.574  1.1322 -1.6289  1.6870
 1148TIP3   OH224934   1.920   4.750  11.035  0.5518 -0.0708 -0.3271
 1148TIP3    H124935   1.892   4.696  10.962 -0.3645  0.7238 -0.5785
 1148TIP3    H224936   1.965   4.825  10.995  0.7479 -0.0329 -0.0428
 1149TIP3   OH224937   2.788   4.488   0.966 -0.0818  0.6098  0.4535
 1149TIP3    H124938   2.846   4.502   1.041  0.6437 -1.6777  0.3834
 1149TIP3    H224939   2.843   4.507   0.890  0.8821 -2.1130  0.3614
 1150TIP3   OH224940   3.683   0.941  14.420  0.2552  0.4186  0.9646
 1150TIP3    H124941   3.627   0.889  14.478 -0.3371 -0.4274 -0.3310
 1150TIP3    H224942   3.755   0.969  14.477 -0.1056 -0.7024  2.0305
 1151TIP3   OH224943   2.575   5.950  11.606  0.4143 -0.6150  0.6359
 1151TIP3    H124944   2.666   5.920  11.599  1.2820  1.1887  2.8760
 1151TIP3    H224945   2.574   6.034  11.562 -0.2978 -0.8337  0.2236
 1152TIP3   OH224946   3.173   3.784   0.344 -0.1797  0.0313 -0.2199
 1152TIP3    H124947   3.099   3.810   0.290  1.2678 -0.7801 -2.7627
 1152TIP3    H224948   3.232   3.859   0.341  1.4318 -1.2097 -2.7789
 1153TIP3   OH224949   2.005   0.284  12.283 -0.0747  0.6792  0.3161
 1153TIP3    H124950   2.077   0.328  12.327  0.2669 -0.1020  0.5614
 1153TIP3    H224951   2.004   0.322  12.195  1.8471 -0.5803 -0.3184
 1154TIP3   OH224952   5.693   4.424   5.261 -0.1520 -0.4626 -0.3438
 1154TIP3    H124953   5.781   4.453   5.234 -0.5107  0.9156 -0.1325
 1154TIP3    H224954   5.695   4.329   5.251  1.5774 -0.5338  0.2563
 1155TIP3   OH224955   1.849   6.235  13.939 -0.1473  0.4346  0.1939
 1155TIP3    H124956   1.817   6.146  13.956  0.0976  0.6843  2.2726
 1155TIP3    H224957   1.935   6.238  13.981  1.4870  0.6197 -2.9220
 1156TIP3   OH224958   2.868   1.225   4.944 -0.8734 -0.1433  0.2148
 1156TIP3    H124959   2.776   1.233   4.966 -0.9329 -1.1234  0.3472
 1156TIP3    H224960   2.869   1.214   4.849 -1.0157 -1.6608  0.3643
 1157TIP3   OH224961   3.233   4.861  12.356 -0.2003 -0.0030 -0.1591
 1157TIP3    H124962   3.147   4.848  12.396 -0.5939 -1.0995 -1.2800
 1157TIP3    H224963   3.218   4.846  12.262  1.3512 -1.0322 -0.2847
 1158TIP3   OH224964   5.161   5.829   0.747  0.5584 -0.1902  0.5395
 1158TIP3    H124965   5.167   5.906   0.804 -1.2341 -0.3029  0.9425
 1158TIP3    H224966   5.114   5.860   0.670  1.1748 -0.5341  0.0124
 1159TIP3   OH224967   0.805   3.638  13.687  0.1772  0.4968 -0.3506
 1159TIP3    H124968   0.765   3.551  13.687  0.3530  0.3347  2.3628
 1159TIP3    H224969   0.899   3.621  13.694  0.2364  0.9195 -0.1301
 1160TIP3   OH224970   2.626   6.620  16.227 -0.0023  0.1063 -0.1464
 1160TIP3    H124971   2.660   6.557  16.164  0.4429  0.6159 -0.4267
 1160TIP3    H224972   2.586   6.689  16.173  2.4563  1.7626 -0.0225
 1161TIP3   OH224973   4.842   4.409  14.472  0.1703 -0.3632  0.2890
 1161TIP3    H124974   4.753   4.418  14.438  0.2835 -0.4929 -0.0514
 1161TIP3    H224975   4.849   4.318  14.499  0.8610 -0.9302 -1.6455
 1162TIP3   OH224976   4.609   2.815  11.811  0.4521  0.5347  0.0570
 1162TIP3    H124977   4.619   2.722  11.794  0.7803  0.2711  1.5326
 1162TIP3    H224978   4.696   2.844  11.840  0.2926  1.2411 -0.1443
 1163TIP3   OH224979   2.899   4.617  13.158  0.0038  0.0347  0.3979
 1163TIP3    H124980   2.903   4.588  13.249  0.6987 -1.3080 -0.0354
 1163TIP3    H224981   2.983   4.592  13.120  0.2133  1.7110 -0.3059
 1164TIP3   OH224982   2.514   1.650   6.403 -0.3368 -0.2437 -0.3179
 1164TIP3    H124983   2.477   1.656   6.315  0.8808 -0.0474 -0.8452
 1164TIP3    H224984   2.600   1.692   6.396  0.3430 -1.4052  0.6382
 1165TIP3   OH224985   0.443   5.425  16.026  0.9843 -0.2115  0.0778
 1165TIP3    H124986   0.500   5.498  16.052  0.0457  0.5059  0.1632
 1165TIP3    H224987   0.403   5.396  16.108 -0.3547  0.6580 -0.2393
 1166TIP3   OH224988   5.611   1.801   0.439  0.2726 -0.5392 -0.6523
 1166TIP3    H124989   5.686   1.749   0.467 -0.1059 -1.0518 -0.5608
 1166TIP3    H224990   5.544   1.736   0.416 -0.3680 -0.0888 -0.0980
 1167TIP3   OH224991   4.367   5.498  15.016  0.1500  0.2920 -0.1327
 1167TIP3    H124992   4.277   5.520  14.990  0.7073  1.3948 -1.2144
 1167TIP3    H224993   4.357   5.424  15.076 -1.4960  0.5351 -0.0631
 1168TIP3   OH224994   4.639   3.137   0.902  0.1853 -0.2071 -0.1834
 1168TIP3    H124995   4.547   3.165   0.901  0.3282  0.3389 -2.3009
 1168TIP3    H224996   4.646   3.075   0.830  1.4702 -0.2468 -0.0446
 1169TIP3   OH224997   4.680   5.591  15.551 -0.2618  0.7308 -0.0026
 1169TIP3    H124998   4.716   5.542  15.625 -0.8789 -1.5049 -1.0893
 1169TIP3    H224999   4.755   5.606  15.493 -0.0727  1.0464  0.3249
 1170TIP3   OH225000   2.727   4.037  12.683 -0.0648  0.3084 -0.1527
 1170TIP3    H125001   2.666   4.106  12.657  1.0498  1.6982  0.7562
 1170TIP3    H225002   2.671   3.966  12.713 -1.2621  0.5641 -1.6285
 1171TIP3   OH225003   1.447   0.177   3.973  0.2169  0.1743  0.3426
 1171TIP3    H125004   1.402   0.215   4.048  0.3834 -1.1060  1.1326
 1171TIP3    H225005   1.482   0.252   3.925 -0.1047  1.0306  1.4007
 1172TIP3   OH225006   5.366   0.007   1.608 -0.2340 -0.3505 -0.4257
 1172TIP3    H125007   5.305   0.067   1.651 -0.1824  0.3572 -1.3214
 1172TIP3    H225008   5.403  -0.044   1.680 -1.9550 -0.8777  0.1228
 1173TIP3   OH225009   6.303   5.562  15.298  0.2842  0.2494  0.0413
 1173TIP3    H125010   6.247   5.609  15.360 -0.4398  0.2390 -0.5941
 1173TIP3    H225011   6.249   5.489  15.267  1.7409 -1.6856  1.8017
 1174TIP3   OH225012   6.834   4.004   0.997  0.0050 -0.1029 -0.2017
 1174TIP3    H125013   6.818   4.047   0.913 -0.4546  1.7246  0.7524
 1174TIP3    H225014   6.929   4.009   1.009 -0.0929  1.2896  0.1744
 1175TIP3   OH225015   5.109   0.705  16.507  0.0765 -0.3542  0.2909
 1175TIP3    H125016   5.174   0.762  16.547  0.8517 -0.7424 -0.3841
 1175TIP3    H225017   5.159   0.632  16.471 -0.5674 -0.0851 -1.2820
 1176TIP3   OH225018   4.032   5.184  11.974 -0.2563  0.1603 -0.2349
 1176TIP3    H125019   4.057   5.184  11.881 -0.0040 -0.1191 -0.1707
 1176TIP3    H225020   4.116   5.183  12.020 -0.3759 -1.1594 -0.0126
 1177TIP3   OH225021   5.663   2.838  13.825  0.0704 -0.4064 -0.0954
 1177TIP3    H125022   5.729   2.806  13.886  0.6763 -0.1445 -0.6096
 1177TIP3    H225023   5.637   2.923  13.860 -2.7229 -1.9799  2.2064
 1178TIP3   OH225024   5.259   3.515  16.284 -0.0989  0.4485 -0.1536
 1178TIP3    H125025   5.263   3.434  16.233  1.1741 -0.7197  1.6942
 1178TIP3    H225026   5.317   3.575  16.237 -1.1360  0.3980 -1.5990
 1179TIP3   OH225027   4.467   1.937   0.865  0.4010  0.1307 -0.4889
 1179TIP3    H125028   4.501   1.874   0.802  0.6835 -0.6569  0.4291
 1179TIP3    H225029   4.396   1.982   0.818  0.5501 -0.4910 -1.3353
 1180TIP3   OH225030   2.708   3.239  13.191  0.2336 -0.4010 -0.4675
 1180TIP3    H125031   2.692   3.161  13.245 -1.2750  0.0189 -0.2731
 1180TIP3    H225032   2.753   3.205  13.114  1.1484 -1.2081  0.3825
 1181TIP3   OH225033   4.685   0.212  11.842  0.3510 -0.3286 -0.2173
 1181TIP3    H125034   4.743   0.258  11.903 -0.8462  0.8608  0.0769
 1181TIP3    H225035   4.736   0.202  11.762  1.4487 -0.6191  0.5071
 1182TIP3   OH225036   3.613   3.489   5.603  0.1086  0.2792  0.1655
 1182TIP3    H125037   3.629   3.542   5.525  0.8049  0.4310  0.4039
 1182TIP3    H225038   3.542   3.535   5.649 -1.0270 -0.3592 -0.8640
 1183TIP3   OH225039   3.478   2.145  14.434  0.2472 -0.2853  0.1521
 1183TIP3    H125040   3.421   2.121  14.361  1.3315  0.5181 -1.0058
 1183TIP3    H225041   3.453   2.235  14.454  2.1188  0.6799 -1.4648
 1184TIP3   OH225042   2.319   0.403  13.391 -0.2761 -0.3990 -0.0292
 1184TIP3    H125043   2.355   0.432  13.475  0.6022 -1.4527 -0.0211
 1184TIP3    H225044   2.253   0.338  13.415  0.7134 -1.4924 -0.1491
 1185TIP3   OH225045   0.770   4.047  15.708  0.1650  0.1485  0.0334
 1185TIP3    H125046   0.760   4.137  15.738 -0.6149 -0.2106  0.8832
 1185TIP3    H225047   0.689   4.004  15.733 -0.1444 -0.4174 -1.7624
 1186TIP3   OH225048   5.952   4.378   5.479 -0.6644 -0.6099 -0.4802
 1186TIP3    H125049   5.958   4.367   5.574  0.5820 -0.4487 -0.5269
 1186TIP3    H225050   5.859   4.395   5.463 -1.0607 -1.5897  0.5969
 1187TIP3   OH225051   2.407   5.686  14.860 -0.2212 -0.9283 -0.5636
 1187TIP3    H125052   2.383   5.765  14.908  1.8571 -0.5690 -0.0370
 1187TIP3    H225053   2.324   5.639  14.849 -1.2541  0.5509  0.4928
 1188TIP3   OH225054   5.552   0.408   5.129 -0.2613  0.0204 -0.6171
 1188TIP3    H125055   5.573   0.350   5.056  1.4413  0.3218 -0.4223
 1188TIP3    H225056   5.561   0.496   5.092 -1.5300  0.1896 -0.5714
 1189TIP3   OH225057   2.190   3.687  13.566 -0.5555  0.0605 -0.0641
 1189TIP3    H125058   2.259   3.656  13.625 -0.3655  0.1413 -0.2408
 1189TIP3    H225059   2.200   3.782  13.567 -1.5736  0.1661  1.0070
 1190TIP3   OH225060   4.602   3.791   1.957  0.4565 -0.1537 -0.0613
 1190TIP3    H125061   4.519   3.839   1.952  0.4757  0.0687  1.2644
 1190TIP3    H225062   4.631   3.805   2.047  0.0034 -3.4001  0.7140
 1191TIP3   OH225063   6.540   4.508  10.709 -0.2060  0.0255 -0.1990
 1191TIP3    H125064   6.461   4.513  10.655 -0.7910 -1.9628  0.3743
 1191TIP3    H225065   6.589   4.434  10.672  0.6054  0.2179  0.4536
 1192TIP3   OH225066   3.779   0.597   0.639 -0.1127 -0.1571  0.1730
 1192TIP3    H125067   3.697   0.639   0.666 -0.0273 -0.5088  1.0059
 1192TIP3    H225068   3.787   0.619   0.546 -2.4073 -2.0980 -0.5947
 1193TIP3   OH225069   2.611   1.244  14.579 -0.7033  0.4325 -0.4483
 1193TIP3    H125070   2.529   1.272  14.538 -1.0768 -1.1743 -0.8650
 1193TIP3    H225071   2.586   1.218  14.668 -0.8224 -0.7612 -0.8049
 1194TIP3   OH225072   6.042   6.477  11.066  0.2616  0.1131 -0.4749
 1194TIP3    H125073   6.002   6.391  11.077  0.8116 -0.0137  0.7620
 1194TIP3    H225074   6.130   6.467  11.102 -0.6180  1.9306  2.5809
 1195TIP3   OH225075   6.529   6.354  11.533  0.5023 -0.0072  0.2481
 1195TIP3    H125076   6.513   6.417  11.604 -2.6134 -1.4025  0.9625
 1195TIP3    H225077   6.512   6.269  11.573  1.9526 -1.1117 -1.3877
 1196TIP3   OH225078   2.821   0.267   2.978 -0.2583 -0.1245 -0.4979
 1196TIP3    H125079   2.896   0.227   2.934 -0.4906  0.9331 -1.9515
 1196TIP3    H225080   2.749   0.257   2.916 -1.1376 -0.4390  0.5531
 1197TIP3   OH225081   2.491   0.876   3.287 -0.2605  0.4892 -0.0243
 1197TIP3    H125082   2.545   0.799   3.269  2.6052  1.8968  1.7498
 1197TIP3    H225083   2.524   0.942   3.225  2.4833  2.2903  3.0438
 1198TIP3   OH225084   2.073   3.293  11.948 -0.2749 -0.5387  0.6222
 1198TIP3    H125085   2.136   3.309  12.019 -0.2451 -0.4218  0.5699
 1198TIP3    H225086   1.987   3.310  11.988 -0.2516 -0.3746  0.6022
 1199TIP3   OH225087   5.192   0.289  12.489  0.5265 -0.1480 -0.2657
 1199TIP3    H125088   5.200   0.346  12.566 -0.6755  1.0816 -0.9970
 1199TIP3    H225089   5.252   0.328  12.425 -0.4576  0.4737 -0.8420
 1200TIP3   OH225090   4.589   6.725  13.378 -0.0278  0.1257 -0.4262
 1200TIP3    H125091   4.627   6.648  13.420 -0.0405  0.3750  0.0463
 1200TIP3    H225092   4.523   6.689  13.319 -1.3823 -0.1653  1.1667
 1201TIP3   OH225093   4.866   2.846  11.839 -0.0496  0.7193  0.2767
 1201TIP3    H125094   4.922   2.897  11.780 -0.3505  1.6343  0.7643
 1201TIP3    H225095   4.897   2.868  11.927  0.0444 -0.2220  0.4876
 1202TIP3   OH225096   2.756   6.505   3.786 -0.1372  0.3836 -0.7921
 1202TIP3    H125097   2.750   6.463   3.872  1.5833  1.3471 -0.1445
 1202TIP3    H225098   2.770   6.433   3.725  0.7743 -0.1649  0.0303
 1203TIP3   OH225099   6.177   4.333   5.828 -0.8090 -0.2548 -0.8653
 1203TIP3    H125100   6.198   4.285   5.748  0.2203  0.3383 -0.9766
 1203TIP3    H225101   6.226   4.415   5.820 -0.1903 -0.4370  0.6308
 1204TIP3   OH225102   4.575   1.478   2.465  0.2232 -0.5132 -0.2860
 1204TIP3    H125103   4.564   1.458   2.558 -1.3090 -0.6652 -0.4706
 1204TIP3    H225104   4.498   1.530   2.443  1.8817  1.8779 -0.8588
 1205TIP3   OH225105   2.355   4.293   0.781  0.1522 -0.3598  0.3541
 1205TIP3    H125106   2.422   4.334   0.835  1.1446 -1.2885 -0.1295
 1205TIP3    H225107   2.288   4.360   0.771  1.2666  0.7983  0.3909
 1206TIP3   OH225108   1.945   6.393  14.670 -0.3196  0.5292 -0.0395
 1206TIP3    H125109   1.874   6.364  14.728 -2.1713  1.8540 -1.4790
 1206TIP3    H225110   1.960   6.484  14.695  0.7341  0.3276  0.0908
 1207TIP3   OH225111   0.299   0.197   3.725 -0.1609 -0.4477 -0.7292
 1207TIP3    H125112   0.363   0.244   3.672 -0.0373  0.8522  0.5002
 1207TIP3    H225113   0.331   0.107   3.728  2.5278  0.4251  1.0664
 1208TIP3   OH225114   1.080   6.577  16.713 -0.4229 -0.4742 -0.0822
 1208TIP3    H125115   1.161   6.606  16.755 -2.0599  3.8643  0.6955
 1208TIP3    H225116   1.055   6.498  16.761  2.6634 -1.3074  0.3780
 1209TIP3   OH225117   3.374   3.394   2.490  0.6252 -0.2056 -0.0920
 1209TIP3    H125118   3.430   3.364   2.562 -0.2306 -1.8590 -0.0776
 1209TIP3    H225119   3.434   3.402   2.415  0.5810 -4.5361 -0.7920
 1210TIP3   OH225120   6.415   2.484   0.187 -0.6098  0.0343  0.0293
 1210TIP3    H125121   6.461   2.516   0.264 -0.3387 -0.5620  0.1223
 1210TIP3    H225122   6.325   2.471   0.217 -0.5747  0.0986  0.1649
 1211TIP3   OH225123   4.799   4.213  13.187  0.0492  0.3753 -0.3301
 1211TIP3    H125124   4.737   4.268  13.234 -2.8312 -1.0325 -2.2088
 1211TIP3    H225125   4.807   4.254  13.101  0.6815 -0.2099 -0.5563
 1212TIP3   OH225126   1.922   3.054   0.915 -0.7058  0.0272  0.0122
 1212TIP3    H125127   1.980   2.978   0.922  1.9470  1.8524 -0.6728
 1212TIP3    H225128   1.838   3.023   0.949 -0.2461 -3.6471 -1.6512
 1213TIP3   OH225129   6.529   1.310   3.575 -0.3527  0.2992  0.2743
 1213TIP3    H125130   6.499   1.399   3.556 -2.6769 -0.2960  0.7999
 1213TIP3    H225131   6.587   1.288   3.503 -2.5930  0.9858 -1.8652
 1214TIP3   OH225132   1.368   2.401  16.928  0.4756 -0.2086 -0.4987
 1214TIP3    H125133   1.324   2.344  16.864 -2.4279 -0.4853  1.5450
 1214TIP3    H225134   1.425   2.342  16.977  1.2985 -0.3440 -1.5871
 1215TIP3   OH225135   1.026   2.542   2.262 -0.2074 -0.1474 -0.3607
 1215TIP3    H125136   1.003   2.582   2.346  0.6949  0.8997 -0.5916
 1215TIP3    H225137   0.974   2.462   2.259 -2.1612  1.0246  0.0842
 1216TIP3   OH225138   5.521   1.658  15.292  0.4396 -0.2618 -0.0057
 1216TIP3    H125139   5.531   1.745  15.252  1.4255 -0.9604 -1.3691
 1216TIP3    H225140   5.437   1.626  15.259 -0.4415  0.5554  1.3387
 1217TIP3   OH225141   6.074   3.416   0.853  0.0381 -0.0448  0.2201
 1217TIP3    H125142   6.006   3.478   0.879 -0.4824  0.0545 -1.2908
 1217TIP3    H225143   6.066   3.344   0.916 -2.2576 -0.5696 -0.5717
 1218TIP3   OH225144   6.849   0.851  13.522  0.4855 -0.0098  0.9022
 1218TIP3    H125145   6.851   0.879  13.613  0.7990  2.4463  0.2012
 1218TIP3    H225146   6.775   0.790  13.517 -1.0545  1.6356  2.3348
 1219TIP3   OH225147   3.704   5.273  14.243  0.3719 -0.4316 -0.2362
 1219TIP3    H125148   3.676   5.326  14.169 -0.7164 -1.6225 -0.7126
 1219TIP3    H225149   3.663   5.313  14.319  0.3781 -0.0121 -0.4525
 1220TIP3   OH225150   5.366   1.320  13.564 -0.0787  0.1244  0.1159
 1220TIP3    H125151   5.347   1.304  13.472 -0.5093  1.1872 -0.0028
 1220TIP3    H225152   5.381   1.233  13.601 -1.2866 -0.4473 -0.6603
 1221TIP3   OH225153   2.089   3.919  15.827 -0.1475  0.3743  0.2780
 1221TIP3    H125154   2.126   4.001  15.793  1.5845 -0.1512  0.7833
 1221TIP3    H225155   2.052   3.944  15.912  1.6025  0.4295  1.0739
 1222TIP3   OH225156   5.332   6.730   3.171 -0.1483  0.0924  0.0776
 1222TIP3    H125157   5.313   6.755   3.081 -2.7261 -0.2953  0.4347
 1222TIP3    H225158   5.342   6.635   3.168  0.9569  0.2023  0.0380
 1223TIP3   OH225159   2.523   2.999   2.098 -0.3369 -0.1276 -0.2439
 1223TIP3    H125160   2.497   2.916   2.137  0.2732  0.6734  1.9723
 1223TIP3    H225161   2.535   3.059   2.172 -0.0615  1.7533 -1.7215
 1224TIP3   OH225162   1.487   3.194   0.437  0.2592 -0.0881  0.2487
 1224TIP3    H125163   1.528   3.107   0.444 -1.1620 -0.8164 -0.1063
 1224TIP3    H225164   1.417   3.192   0.502 -0.9011  0.1315 -0.9700
 1225TIP3   OH225165   4.240   3.264  15.304  1.3153  0.1796 -0.1651
 1225TIP3    H125166   4.237   3.345  15.254 -1.6720  0.2220 -0.0633
 1225TIP3    H225167   4.234   3.195  15.238  1.0580  0.1177 -0.0754
 1226TIP3   OH225168   2.575   6.605   5.952  0.1533 -0.0209 -0.0294
 1226TIP3    H125169   2.528   6.622   6.034  1.9249  0.7033  0.8917
 1226TIP3    H225170   2.667   6.622   5.973  0.7419 -0.5153 -1.9938
 1227TIP3   OH225171   0.209   6.571   3.058 -0.3270  0.7640 -0.2621
 1227TIP3    H125172   0.256   6.653   3.070 -2.6857  2.2633 -0.5549
 1227TIP3    H225173   0.141   6.573   3.126 -0.0761 -1.2710  0.1157
 1228TIP3   OH225174   2.370   1.816  12.369  0.1129 -0.1000  0.0695
 1228TIP3    H125175   2.354   1.859  12.285 -1.3653 -1.2541 -0.2943
 1228TIP3    H225176   2.464   1.824  12.383  0.3142  0.5244 -1.4690
 1229TIP3   OH225177   2.701   0.114  17.055 -0.0299 -0.0016  0.2567
 1229TIP3    H125178   2.796   0.124  17.051  0.1132 -0.5577  1.4798
 1229TIP3    H225179   2.671   0.191  17.103 -0.3703  0.8617 -1.2922
 1230TIP3   OH225180   5.110   3.882   4.319  0.0400  0.5722  0.1512
 1230TIP3    H125181   5.080   3.957   4.371  0.7608  0.0843  1.3100
 1230TIP3    H225182   5.039   3.866   4.257 -0.2036  2.0908  0.0040
 1231TIP3   OH225183   2.217   0.890   1.364 -0.3883  0.2204 -0.2059
 1231TIP3    H125184   2.142   0.937   1.328 -0.8921 -0.8959 -0.6372
 1231TIP3    H225185   2.273   0.872   1.289 -0.9680 -1.2481 -0.3154
 1232TIP3   OH225186   0.285   2.359  11.491  0.3210  0.1208 -0.0399
 1232TIP3    H125187   0.371   2.389  11.464 -0.0726  0.1109 -1.3605
 1232TIP3    H225188   0.224   2.399  11.428 -0.7261  0.7364  1.3018
 1233TIP3   OH225189   3.129   4.160   5.381 -0.2115 -0.2244  0.0819
 1233TIP3    H125190   3.138   4.237   5.324 -2.3467  1.6799  2.0989
 1233TIP3    H225191   3.076   4.099   5.331  1.3302 -0.3821 -1.4759
 1234TIP3   OH225192   3.796   6.526   1.937 -0.2349 -0.2650 -0.4002
 1234TIP3    H125193   3.883   6.533   1.899 -1.2949  1.0587 -2.8541
 1234TIP3    H225194   3.782   6.432   1.949  1.3941 -0.5120 -0.2124
 1235TIP3   OH225195   1.726   6.147   5.624  0.5025  0.9098 -0.7211
 1235TIP3    H125196   1.676   6.156   5.706  0.5749 -0.9728 -0.4351
 1235TIP3    H225197   1.676   6.198   5.560 -0.9942  0.2783 -0.0960
 1236TIP3   OH225198   3.738   0.208  14.103  0.0848 -0.0706 -0.0802
 1236TIP3    H125199   3.752   0.120  14.069  1.0602  0.0688 -0.0913
 1236TIP3    H225200   3.726   0.263  14.026  1.8913  0.1798 -0.2281
 1237TIP3   OH225201   2.847   1.985   3.287  0.1049  0.1577 -0.3048
 1237TIP3    H125202   2.844   2.045   3.213  0.4592  1.9524  1.0829
 1237TIP3    H225203   2.847   1.898   3.247 -2.7189  0.9445 -2.3335
 1238TIP3   OH225204   1.175   6.336  15.837  0.1418 -0.0756 -0.3793
 1238TIP3    H125205   1.230   6.290  15.900 -0.5036  1.8057  1.6748
 1238TIP3    H225206   1.085   6.316  15.864 -0.1697 -0.1379 -1.4048
 1239TIP3   OH225207   1.234   2.422  13.848  0.1682  0.7491  0.3795
 1239TIP3    H125208   1.199   2.374  13.774  1.3047  1.2014 -0.4927
 1239TIP3    H225209   1.185   2.504  13.849  1.4912  1.6243 -1.1846
 1240TIP3   OH225210   1.701   1.352   0.167 -0.0383  0.0741  0.0394
 1240TIP3    H125211   1.632   1.324   0.227  0.8581  0.6996  1.4206
 1240TIP3    H225212   1.737   1.271   0.132 -3.2747 -0.3059 -3.0050
 1241TIP3   OH225213   0.676   0.871  16.673 -0.3808  0.0057  0.3023
 1241TIP3    H125214   0.617   0.946  16.660 -0.3126  0.1973  1.0507
 1241TIP3    H225215   0.764   0.910  16.670 -0.2994 -0.2239 -0.4471
 1242TIP3   OH225216   2.976   3.780   0.858  0.2391  0.0276 -0.3130
 1242TIP3    H125217   2.967   3.830   0.940 -1.2596  0.2575 -0.5962
 1242TIP3    H225218   2.971   3.689   0.886  0.8632  0.0760 -0.0264
 1243TIP3   OH225219   2.931   5.022  15.666  0.4400  0.2108  0.5561
 1243TIP3    H125220   2.956   4.934  15.696 -0.7336  0.0514  1.0802
 1243TIP3    H225221   2.880   5.006  15.586  1.5153  0.5118 -0.2141
 1244TIP3   OH225222   1.463   0.116  14.931  0.2472 -0.3133  0.4044
 1244TIP3    H125223   1.430   0.077  14.850 -1.9916  0.6984  0.7752
 1244TIP3    H225224   1.513   0.192  14.902 -0.7383  0.1837 -0.0377
 1245TIP3   OH225225   1.839   6.431   6.258  0.7684  0.1317 -0.5133
 1245TIP3    H125226   1.916   6.488   6.267  0.8789 -0.3114  1.8424
 1245TIP3    H225227   1.767   6.482   6.294  0.7712 -0.9754  1.1477
 1246TIP3   OH225228   0.277   1.677   2.848 -0.0700  0.4259  0.0555
 1246TIP3    H125229   0.256   1.584   2.836 -1.9907  0.8697 -0.3826
 1246TIP3    H225230   0.371   1.683   2.831  0.1134 -1.4369  0.1694
 1247TIP3   OH225231   5.807   2.020  13.082  0.0253 -0.2638 -0.6344
 1247TIP3    H125232   5.758   2.093  13.045 -0.2526 -0.4049 -0.5479
 1247TIP3    H225233   5.890   2.058  13.112  0.4689 -0.2270 -1.8518
 1248TIP3   OH225234   1.103   0.278   3.639  0.0310 -0.3873 -0.1877
 1248TIP3    H125235   1.095   0.212   3.709  0.0306 -0.2600 -0.0671
 1248TIP3    H225236   1.194   0.273   3.611  0.4062  0.5542  0.8041
 1249TIP3   OH225237   1.016   6.630   4.713  0.0203 -0.3189 -0.2793
 1249TIP3    H125238   1.030   6.698   4.779  2.3511  0.6966 -1.6870
 1249TIP3    H225239   0.921   6.626   4.703 -0.2640  1.6543  0.9457
 1250TIP3   OH225240   3.030   6.643   3.346  0.1672  0.1317 -0.2869
 1250TIP3    H125241   3.069   6.727   3.368  0.1827 -0.0860  0.5383
 1250TIP3    H225242   2.967   6.626   3.416 -0.6135 -0.0394 -1.0194
 1251TIP3   OH225243   3.938   1.042  13.923  0.4309 -0.1220  0.0763
 1251TIP3    H125244   3.981   0.977  13.868 -0.9738 -0.7328 -0.3529
 1251TIP3    H225245   3.983   1.124  13.903  1.1751 -0.6735 -0.5764
 1252TIP3   OH225246   2.905   6.126  11.555 -0.9214 -0.0163 -0.3369
 1252TIP3    H125247   2.926   6.194  11.618 -0.5805 -0.2939 -0.1451
 1252TIP3    H225248   2.818   6.148  11.523 -1.8672 -0.8194  1.5029
 1253TIP3   OH225249   4.486   3.905   1.169 -0.0507 -0.4052  0.0887
 1253TIP3    H125250   4.554   3.967   1.142 -1.0020  0.3443 -0.6824
 1253TIP3    H225251   4.508   3.882   1.259  1.3861 -0.4260 -0.2506
 1254TIP3   OH225252   1.506   3.911  16.534 -0.0980  0.1725 -0.1837
 1254TIP3    H125253   1.589   3.914  16.487 -0.6407  1.6075 -1.1237
 1254TIP3    H225254   1.522   3.960  16.615  0.1852 -0.2717  0.0338
 1255TIP3   OH225255   5.630   6.316  12.706 -0.1390  0.2036  0.2048
 1255TIP3    H125256   5.540   6.330  12.733 -0.1242 -0.1595  0.4400
 1255TIP3    H225257   5.670   6.266  12.778  0.1704  0.1077 -0.0314
 1256TIP3   OH225258   2.843   4.511  12.152  0.3410 -0.1008  0.2281
 1256TIP3    H125259   2.910   4.526  12.086  0.7868  1.9098  1.0763
 1256TIP3    H225260   2.872   4.561  12.228  0.0037 -2.5504  2.1190
 1257TIP3   OH225261   5.830   4.880   0.983  0.2767  0.0738 -0.0892
 1257TIP3    H125262   5.783   4.842   1.057  0.5797 -0.4442 -0.1631
 1257TIP3    H225263   5.827   4.975   1.000  0.3205 -0.0351  0.5738
 1258TIP3   OH225264   0.894   5.598   5.975  0.1080 -0.0631  0.3991
 1258TIP3    H125265   0.829   5.570   6.039 -1.1031  0.0667 -0.7338
 1258TIP3    H225266   0.875   5.690   5.961  1.3253  0.2857  0.9291
 1259TIP3   OH225267   5.759   1.770   5.291  0.5534  0.9222  0.3610
 1259TIP3    H125268   5.842   1.815   5.277  0.5541  0.3815 -1.5456
 1259TIP3    H225269   5.761   1.696   5.231 -1.2162  0.7588  0.4653
 1260TIP3   OH225270   1.226   5.888   5.617 -0.6541 -0.0318  0.3732
 1260TIP3    H125271   1.190   5.923   5.536 -1.3546  1.2124  1.1917
 1260TIP3    H225272   1.173   5.928   5.686  0.3974 -0.4843  1.4740
 1261TIP3   OH225273   3.963   1.114   6.174 -0.5566 -0.1126 -0.4135
 1261TIP3    H125274   3.896   1.170   6.214 -0.7584  0.6036 -1.6916
 1261TIP3    H225275   4.045   1.140   6.216 -0.7694  0.5955 -0.4235
 1262TIP3   OH225276   4.816   3.129   2.468  0.0165  0.6602 -0.3330
 1262TIP3    H125277   4.779   3.201   2.417  1.5969  1.6034 -0.2214
 1262TIP3    H225278   4.809   3.157   2.559  0.9293  0.8349 -0.3084
 1263TIP3   OH225279   6.113   0.168  13.755 -0.0591  0.1489 -0.1700
 1263TIP3    H125280   6.085   0.182  13.846  1.1396 -4.0033  1.0766
 1263TIP3    H225281   6.038   0.126  13.713 -0.0379  0.5332 -0.5918
 1264TIP3   OH225282   0.561   3.798   4.142  0.3104  0.2445 -0.7014
 1264TIP3    H125283   0.601   3.778   4.227 -0.0964  0.1353 -0.5357
 1264TIP3    H225284   0.503   3.724   4.124 -2.6144  2.0030  0.7601
 1265TIP3   OH225285   1.825   6.143   0.207 -0.2636  0.2115 -0.3360
 1265TIP3    H125286   1.786   6.104   0.285 -0.7030  2.3138  0.5702
 1265TIP3    H225287   1.765   6.121   0.136 -0.0867 -1.3471 -0.0355
 1266TIP3   OH225288   0.852   4.667  11.442 -0.9354 -0.2504  0.1642
 1266TIP3    H125289   0.818   4.727  11.375 -1.8525  0.0216  0.8582
 1266TIP3    H225290   0.936   4.705  11.467 -0.2824 -0.6854 -1.2559
 1267TIP3   OH225291   3.115   6.028  11.411 -0.2816  0.4684  0.0629
 1267TIP3    H125292   3.084   6.008  11.323  0.6584  2.2275 -0.7131
 1267TIP3    H225293   3.038   6.066  11.455 -0.4237  0.7445 -0.4129
 1268TIP3   OH225294   1.414   0.907   4.372  0.0718 -0.6693 -0.0953
 1268TIP3    H125295   1.376   0.972   4.432 -1.6761 -0.4890 -1.3233
 1268TIP3    H225296   1.483   0.954   4.325 -2.3671  0.9714 -2.2908
 1269TIP3   OH225297   4.808   1.971  11.405 -0.3052 -0.2097  0.0885
 1269TIP3    H125298   4.889   2.007  11.440 -1.0170  0.7001  0.8669
 1269TIP3    H225299   4.824   1.961  11.312  1.5841 -2.4939  0.5725
 1270TIP3   OH225300   5.672   3.876  14.267 -0.0369 -0.0636  0.2326
 1270TIP3    H125301   5.698   3.791  14.231  0.4893 -0.0344  0.5342
 1270TIP3    H225302   5.602   3.906  14.209 -0.8425 -1.1040  0.6429
 1271TIP3   OH225303   5.477   1.576  16.172 -0.5114  0.4562 -0.0831
 1271TIP3    H125304   5.434   1.616  16.247 -1.2448  1.0325 -0.7936
 1271TIP3    H225305   5.568   1.564  16.200 -0.7651  0.6894  0.8772
 1272TIP3   OH225306   4.550   0.921   0.190  0.4029  0.5252 -0.3505
 1272TIP3    H125307   4.609   0.978   0.141  1.1101 -0.3921 -0.5906
 1272TIP3    H225308   4.483   0.896   0.127  0.5551  0.4320 -0.4756
 1273TIP3   OH225309   3.032   5.023   2.708  0.2634  0.2042  0.4153
 1273TIP3    H125310   3.069   4.982   2.630 -1.8985  0.8083 -1.0102
 1273TIP3    H225311   2.947   4.982   2.720 -0.0857  1.1772  1.5855
 1274TIP3   OH225312   5.833   3.852  11.059  0.4169 -0.2243  0.0317
 1274TIP3    H125313   5.781   3.774  11.079 -1.4182  0.7345 -0.7800
 1274TIP3    H225314   5.773   3.910  11.013  1.6671  1.7785  0.7893
 1275TIP3   OH225315   2.532   6.782   1.093 -0.4856  1.0047 -0.6695
 1275TIP3    H125316   2.491   6.840   1.029  1.1058  1.6680 -1.1320
 1275TIP3    H225317   2.616   6.823   1.112  1.3670 -1.8610 -2.0895
 1276TIP3   OH225318   6.720   2.546   1.657 -0.0013 -0.3488  0.6981
 1276TIP3    H125319   6.693   2.552   1.748 -2.3236  0.8424  0.0105
 1276TIP3    H225320   6.738   2.636   1.630 -1.9050 -0.3026 -0.6566
 1277TIP3   OH225321   6.035   2.315  12.641  0.3469  0.1975  0.3895
 1277TIP3    H125322   5.993   2.400  12.656 -0.8271 -0.1051 -0.9793
 1277TIP3    H225323   5.970   2.251  12.670  0.8759 -0.2564  0.5937
 1278TIP3   OH225324   2.184   3.645   2.940  0.1507 -0.2149  0.3486
 1278TIP3    H125325   2.139   3.634   2.856 -1.6198 -1.1431  1.3579
 1278TIP3    H225326   2.199   3.556   2.971  3.4376  0.0013 -0.2291
 1279TIP3   OH225327   0.119   1.537  12.696  0.1625  0.2289  0.1386
 1279TIP3    H125328   0.026   1.557  12.696  0.2862  0.8310 -0.3797
 1279TIP3    H225329   0.153   1.582  12.773  0.0368  0.0824  0.2783
 1280TIP3   OH225330   3.770   6.813  13.977  0.2891 -0.1969  0.0579
 1280TIP3    H125331   3.752   6.722  14.001  1.5728 -0.4568  0.1060
 1280TIP3    H225332   3.796   6.808  13.885  0.4990  0.1018  0.1012
 1281TIP3   OH225333   3.150   0.436  12.729  0.1376 -0.3182  0.1289
 1281TIP3    H125334   3.088   0.384  12.678  0.1324  0.8003 -1.0466
 1281TIP3    H225335   3.223   0.451  12.670  1.2846 -1.0889  1.2932
 1282TIP3   OH225336   5.511   1.676   5.956 -0.0610 -0.4230 -0.0468
 1282TIP3    H125337   5.551   1.629   6.029  2.9516  2.0676  0.0986
 1282TIP3    H225338   5.435   1.720   5.995  0.8012 -0.0988  1.3080
 1283TIP3   OH225339   3.199   2.436  16.062  0.2586 -0.3550 -0.2109
 1283TIP3    H125340   3.111   2.399  16.056  0.5087 -0.9317 -0.4534
 1283TIP3    H225341   3.197   2.489  16.141 -0.2875 -0.4176 -0.1759
 1284TIP3   OH225342   5.750   5.515   2.195  0.6792  0.3509 -0.8002
 1284TIP3    H125343   5.693   5.484   2.265  0.6605  2.4622  0.2017
 1284TIP3    H225344   5.755   5.442   2.133  1.4257 -1.9362  1.7824
 1285TIP3   OH225345   4.575   0.386   1.787  0.1554  0.3696  0.0766
 1285TIP3    H125346   4.651   0.436   1.758  0.5377  0.3517  1.0260
 1285TIP3    H225347   4.605   0.342   1.867 -0.6465 -0.1648  0.0867
 1286TIP3   OH225348   4.755   2.139   0.371 -0.0188 -0.0903  0.3303
 1286TIP3    H125349   4.843   2.134   0.407  0.1948  1.7170  0.1383
 1286TIP3    H225350   4.767   2.166   0.280 -0.8161  2.8311  0.9968
 1287TIP3   OH225351   1.581   5.500   5.072 -0.0575 -0.1764  0.1079
 1287TIP3    H125352   1.551   5.484   5.162  1.7441  0.4251  0.8699
 1287TIP3    H225353   1.578   5.595   5.062 -1.3197 -0.2963 -0.9074
 1288TIP3   OH225354   5.879   3.666  15.757  0.1732  0.0279 -0.4621
 1288TIP3    H125355   5.972   3.676  15.740  0.2717 -1.1153 -0.6541
 1288TIP3    H225356   5.840   3.747  15.723  1.0989  0.5747 -0.2575
 1289TIP3   OH225357   5.993   3.343   1.254  0.7862 -0.0655 -0.4451
 1289TIP3    H125358   6.082   3.323   1.225  0.8068 -1.2107  0.3966
 1289TIP3    H225359   5.951   3.258   1.266  0.2185  0.4109  1.1588
 1290TIP3   OH225360   5.981   2.475   1.452  0.6636  0.3872 -0.0511
 1290TIP3    H125361   6.010   2.463   1.542  0.2524 -0.1955  0.0089
 1290TIP3    H225362   5.889   2.498   1.459  0.6049  0.2398 -0.3251
 1291TIP3   OH225363   0.481   6.719  11.594  0.0301  0.3339  0.1037
 1291TIP3    H125364   0.515   6.630  11.605 -0.0457  0.4395  1.3696
 1291TIP3    H225365   0.395   6.707  11.555  0.3003 -0.1051 -0.3735
 1292TIP3   OH225366   6.553   5.410  11.512  0.2405 -0.0936 -0.4564
 1292TIP3    H125367   6.604   5.342  11.556 -0.6669 -0.5478 -0.0763
 1292TIP3    H225368   6.618   5.459  11.461  1.1568 -0.1970  0.5692
 1293TIP3   OH225369   3.430   6.811  12.087  0.1032  0.0412  0.0899
 1293TIP3    H125370   3.466   6.836  12.002 -0.9143  0.8509 -0.1190
 1293TIP3    H225371   3.484   6.858  12.151 -0.3471  0.9611 -0.1986
 1294TIP3   OH225372   0.124   0.155  11.681 -0.0343  0.0722 -0.4980
 1294TIP3    H125373   0.217   0.144  11.702 -0.6755 -0.5654  2.5523
 1294TIP3    H225374   0.083   0.075  11.716 -1.7363  0.3332 -1.8027
 1295TIP3   OH225375   1.108   4.246   4.925 -0.1705  0.0910 -0.3517
 1295TIP3    H125376   1.083   4.216   5.012 -2.3991 -1.1254 -1.3313
 1295TIP3    H225377   1.176   4.185   4.897  0.2278  0.2140  0.3134
 1296TIP3   OH225378   6.331   6.199   0.476  0.0661 -0.3484 -0.3039
 1296TIP3    H125379   6.342   6.214   0.383 -1.1257 -0.9607 -0.5611
 1296TIP3    H225380   6.291   6.113   0.483  1.5590 -0.9920  0.8619
 1297TIP3   OH225381   0.010   6.354   0.926 -0.4621 -1.0370  0.2465
 1297TIP3    H125382   0.029   6.447   0.917 -0.7284 -1.0485 -0.5335
 1297TIP3    H225383   0.092   6.316   0.958  0.1529 -0.7570 -0.9377
 1298TIP3   OH225384   0.518   5.893  13.733  0.0857  0.1648 -0.0077
 1298TIP3    H125385   0.455   5.821  13.737 -1.4725  1.4991  2.2846
 1298TIP3    H225386   0.514   5.923  13.642 -1.2499 -0.9316 -0.3609
 1299TIP3   OH225387   3.223   3.801   3.475 -0.0480 -0.8061  0.4392
 1299TIP3    H125388   3.129   3.784   3.473  0.1072 -2.2670  2.2816
 1299TIP3    H225389   3.262   3.714   3.462  1.2000  0.1387 -3.4835
 1300TIP3   OH225390   5.333   1.380  16.057  0.1435  0.0515 -0.1390
 1300TIP3    H125391   5.278   1.392  16.134 -0.5156 -0.0379 -0.5913
 1300TIP3    H225392   5.399   1.449  16.064  0.2186 -0.0888  0.6149
 1301TIP3   OH225393   1.806   0.296   5.943 -0.7227  0.0429  0.0103
 1301TIP3    H125394   1.797   0.227   5.878  0.6350 -0.3381  0.1965
 1301TIP3    H225395   1.891   0.279   5.985 -0.6159  1.4836  0.4438
 1302TIP3   OH225396   1.696   6.147  12.389  0.4844  0.5426  0.4649
 1302TIP3    H125397   1.710   6.240  12.372  1.3460  0.1708 -0.9586
 1302TIP3    H225398   1.759   6.126  12.458 -1.0453  1.4039  2.2271
 1303TIP3   OH225399   4.666   1.466   2.046 -0.6129 -0.0694  0.1589
 1303TIP3    H125400   4.608   1.491   1.974 -0.4836 -0.6452 -0.1481
 1303TIP3    H225401   4.655   1.536   2.110 -2.6530 -0.7905  0.6832
 1304TIP3   OH225402   2.570   4.654   3.868 -0.0020  0.0787 -0.0095
 1304TIP3    H125403   2.648   4.660   3.923 -0.4434  2.2022  0.4663
 1304TIP3    H225404   2.515   4.590   3.912  1.5353 -1.7059 -0.5204
 1305TIP3   OH225405   1.847   6.783  15.657 -0.1774 -0.7583  0.4820
 1305TIP3    H125406   1.760   6.771  15.619 -0.9680 -0.0428  1.9845
 1305TIP3    H225407   1.832   6.831  15.738  1.7886  0.8605 -0.0184
 1306TIP3   OH225408   5.210   6.351  16.882  0.3437  0.6984  0.0081
 1306TIP3    H125409   5.151   6.403  16.828 -0.8280  0.2648  0.8278
 1306TIP3    H225410   5.253   6.291  16.821 -1.0998  0.0838 -0.4478
 1307TIP3   OH225411   4.097   4.423  16.723 -0.0413  0.2541  0.0124
 1307TIP3    H125412   4.025   4.406  16.663  1.3434 -0.7522 -1.4423
 1307TIP3    H225413   4.064   4.396  16.809 -1.8300  1.0835 -0.3755
 1308TIP3   OH225414   0.709   1.839  12.963 -0.2423 -0.2609 -0.2991
 1308TIP3    H125415   0.688   1.770  13.026 -2.8746  0.1029 -0.6985
 1308TIP3    H225416   0.742   1.792  12.886  1.1062 -0.8220  0.5791
 1309TIP3   OH225417   0.347   4.021  11.986  0.7294  0.3758  0.4349
 1309TIP3    H125418   0.426   4.073  11.972 -0.9107  3.0296  0.5376
 1309TIP3    H225419   0.325   3.987  11.899  1.8537 -0.2596  0.3806
 1310TIP3   OH225420   1.093   1.936   0.167 -0.6241 -0.3596 -0.4080
 1310TIP3    H125421   1.003   1.946   0.137 -0.7792 -1.9114 -0.5500
 1310TIP3    H225422   1.145   1.936   0.086 -0.7442 -1.6570 -0.5047
 1311TIP3   OH225423   3.114   4.054  14.319 -0.3844  1.3104 -0.0660
 1311TIP3    H125424   3.072   3.995  14.256  1.4588 -0.4402  0.2249
 1311TIP3    H225425   3.111   4.140  14.277 -2.3010  0.8488 -0.9595
 1312TIP3   OH225426   4.269   5.785   1.459 -0.0423 -0.4160  0.0940
 1312TIP3    H125427   4.348   5.732   1.445  0.4881  0.6455 -1.1109
 1312TIP3    H225428   4.292   5.871   1.425 -1.9542 -0.2581 -0.9176
 1313TIP3   OH225429   3.645   1.004  11.240 -0.1508 -0.0625  0.2069
 1313TIP3    H125430   3.624   1.077  11.298  3.6723 -0.0820  1.9002
 1313TIP3    H225431   3.668   1.045  11.157 -0.8324  0.4014  0.2446
 1314TIP3   OH225432   2.777   5.720   4.220  0.1845 -0.4244 -0.1244
 1314TIP3    H125433   2.774   5.640   4.167  0.0586 -0.0040 -0.7626
 1314TIP3    H225434   2.812   5.692   4.304 -1.2925 -1.4437  0.1826
 1315TIP3   OH225435   1.213   2.793  10.347 -0.0360  0.4797  0.2602
 1315TIP3    H125436   1.149   2.820  10.280  2.2531  0.4073 -2.1285
 1315TIP3    H225437   1.196   2.851  10.421 -1.4297  1.9321 -1.1104
 1316TIP3   OH225438   2.652   1.614   4.401 -0.1360  0.2294 -0.2962
 1316TIP3    H125439   2.705   1.585   4.327 -1.3839 -3.5702  0.0791
 1316TIP3    H225440   2.699   1.690   4.436  2.9962 -0.6633 -2.1757
 1317TIP3   OH225441   5.000   3.991  15.664 -0.0658 -0.1622  0.1622
 1317TIP3    H125442   5.062   4.061  15.687  1.4739 -0.9595 -1.3608
 1317TIP3    H225443   4.915   4.027  15.688  0.8112  1.6574  0.7926
 1318TIP3   OH225444   2.273   6.630   3.066  0.5396  0.3226  0.0544
 1318TIP3    H125445   2.226   6.630   2.983 -1.1511 -1.4142  0.9335
 1318TIP3    H225446   2.362   6.602   3.043  0.0643 -0.2424 -1.1688
 1319TIP3   OH225447   2.454   3.184   3.231  0.3801 -0.1530  0.1362
 1319TIP3    H125448   2.463   3.171   3.137 -3.0153 -0.5133 -0.2617
 1319TIP3    H225449   2.468   3.278   3.244 -0.4533  0.1324 -0.9543
 1320TIP3   OH225450   5.025   1.784  15.220 -0.2820 -0.8197 -0.1282
 1320TIP3    H125451   5.059   1.870  15.196  1.2066 -1.6847 -1.2739
 1320TIP3    H225452   5.088   1.721  15.184 -1.6672 -2.4266  0.0847
 1321TIP3   OH225453   3.599   4.015  16.871  0.3537 -0.0504 -0.8188
 1321TIP3    H125454   3.638   3.937  16.909  0.1962  0.0493 -0.4503
 1321TIP3    H225455   3.573   4.068  16.946 -1.2355 -0.4768 -1.0497
 1322TIP3   OH225456   0.598   4.815   2.832  0.2817  0.6426 -0.1200
 1322TIP3    H125457   0.511   4.855   2.825 -0.5919 -0.8330  1.5529
 1322TIP3    H225458   0.585   4.725   2.801  0.9399  0.0802  1.2031
 1323TIP3   OH225459   5.632   4.841   5.530 -1.0862 -0.0737  0.1154
 1323TIP3    H125460   5.613   4.767   5.473  1.9151 -0.4929 -0.5190
 1323TIP3    H225461   5.636   4.804   5.618  0.8514 -0.8471 -0.2469
 1324TIP3   OH225462   2.122   6.183   6.056 -0.2638  0.0371 -0.5781
 1324TIP3    H125463   2.099   6.106   6.003 -0.3036 -0.3487 -0.0014
 1324TIP3    H225464   2.118   6.153   6.146  2.3204  0.0032 -0.4115
 1325TIP3   OH225465   5.002   4.621  11.975 -0.2969  0.4292 -0.0957
 1325TIP3    H125466   5.071   4.666  12.024 -0.4906  0.5216  0.0935
 1325TIP3    H225467   4.983   4.543  12.026 -1.6850  1.3708  0.8929
 1326TIP3   OH225468   0.804   0.798   0.186  0.5824  0.3962  0.0790
 1326TIP3    H125469   0.743   0.847   0.131  1.0940  1.9471  0.8431
 1326TIP3    H225470   0.831   0.724   0.132  1.7206  2.2976 -2.1357
 1327TIP3   OH225471   0.162   5.675  15.779 -0.1568 -0.1163 -0.4589
 1327TIP3    H125472   0.158   5.680  15.683  1.4665  0.2415 -0.5359
 1327TIP3    H225473   0.082   5.719  15.809 -0.7466 -0.3446 -1.6357
 1328TIP3   OH225474   4.325   0.692  15.776 -0.0192 -0.2935  0.2880
 1328TIP3    H125475   4.420   0.685  15.783 -0.1609 -1.1780  2.4544
 1328TIP3    H225476   4.294   0.601  15.783 -1.0043 -0.1629 -1.7492
 1329TIP3   OH225477   3.220   6.718   0.216 -0.2796 -0.1121 -0.1723
 1329TIP3    H125478   3.303   6.750   0.182 -0.9128  1.8852  0.0129
 1329TIP3    H225479   3.159   6.725   0.143 -1.0869  1.9204  0.6202
 1330TIP3   OH225480   3.684   6.420  10.733 -0.3048  0.1508  0.3093
 1330TIP3    H125481   3.623   6.470  10.680 -1.1367 -1.1719 -0.0260
 1330TIP3    H225482   3.767   6.426  10.686 -0.9373 -0.6866 -0.9588
 1331TIP3   OH225483   2.145   3.447   1.873 -0.3877 -1.1695 -0.0823
 1331TIP3    H125484   2.134   3.402   1.957 -2.7780  0.3225  0.5010
 1331TIP3    H225485   2.223   3.501   1.885  0.6644 -2.7051  0.3012
 1332TIP3   OH225486   2.729   2.543  12.051  0.9911 -1.0816  0.0422
 1332TIP3    H125487   2.724   2.450  12.030  0.2832 -0.8377 -0.9212
 1332TIP3    H225488   2.702   2.588  11.971 -0.7423 -0.0824  1.1298
 1333TIP3   OH225489   5.054   4.875  16.034 -0.1595  0.1337 -0.3886
 1333TIP3    H125490   5.036   4.954  16.085  0.0146 -1.0548  1.6267
 1333TIP3    H225491   4.969   4.852  15.996 -1.1686 -0.7625  2.1571
 1334TIP3   OH225492   1.138   1.103   4.226  0.1301  0.0632 -0.1536
 1334TIP3    H125493   1.169   1.097   4.136  0.0118  0.9463 -0.2616
 1334TIP3    H225494   1.208   1.148   4.274 -0.0060  0.0207  0.0916
 1335TIP3   OH225495   0.263   4.087  10.978  0.2599 -0.3200 -0.7772
 1335TIP3    H125496   0.170   4.068  10.969  0.4567 -1.2272 -0.9728
 1335TIP3    H225497   0.297   4.087  10.889  0.2048  1.4182 -0.8413
 1336TIP3   OH225498   1.915   4.447  15.512  0.4863 -0.0639 -0.0323
 1336TIP3    H125499   1.823   4.435  15.490  0.2204 -2.4721  1.9028
 1336TIP3    H225500   1.962   4.430  15.431 -0.7053  0.3816 -0.8439
 1337TIP3   OH225501   3.588   3.918   5.538  0.3821  0.1680  0.1766
 1337TIP3    H125502   3.513   3.977   5.531  0.1048 -0.1358  0.5447
 1337TIP3    H225503   3.602   3.886   5.449 -0.4112 -0.3689  0.2376
 1338TIP3   OH225504   3.997   0.139   0.476  0.1060  0.4481 -0.0587
 1338TIP3    H125505   4.072   0.089   0.509 -1.4930 -0.3938  2.5627
 1338TIP3    H225506   4.011   0.228   0.507  1.1862  0.8949 -1.7033
 1339TIP3   OH225507   1.518   3.167   2.585 -0.3850  0.0646  0.1967
 1339TIP3    H125508   1.514   3.121   2.502  0.0642  0.3504  0.0119
 1339TIP3    H225509   1.532   3.259   2.561 -3.5873  0.7348  0.4486
 1340TIP3   OH225510   0.275   1.921   1.307  0.0656  0.4525 -0.4529
 1340TIP3    H125511   0.189   1.931   1.265  0.0086  0.3062 -0.3713
 1340TIP3    H225512   0.281   1.994   1.368 -0.0499  0.3954 -0.3738
 1341TIP3   OH225513   0.591   3.780  11.947  0.0900  0.1427 -0.3079
 1341TIP3    H125514   0.655   3.719  11.986 -0.7828 -0.7201 -0.1841
 1341TIP3    H225515   0.554   3.827  12.021  2.1417  2.2910 -0.5315
 1342TIP3   OH225516   2.346   5.840  16.138  0.0984 -0.3565  0.2746
 1342TIP3    H125517   2.301   5.766  16.181  0.6625 -0.0620  1.4298
 1342TIP3    H225518   2.319   5.916  16.189 -1.1848  0.4153 -1.4463
 1343TIP3   OH225519   3.031   6.753   0.003 -0.8099  0.2869  0.6320
 1343TIP3    H125520   3.038   6.763  -0.092 -2.1841  1.4654  0.6141
 1343TIP3    H225521   2.947   6.709   0.016 -1.1871  1.1802  1.3303
 1344TIP3   OH225522   4.812   1.226  16.633 -0.6224 -0.3470  0.1093
 1344TIP3    H125523   4.824   1.321  16.630 -2.9065  0.0115  0.3696
 1344TIP3    H225524   4.809   1.199  16.542  2.5960 -0.6352 -0.0181
 1345TIP3   OH225525   0.488   2.407   0.690  0.2186 -0.1035 -0.1485
 1345TIP3    H125526   0.422   2.383   0.625 -0.7556  1.0398  0.3793
 1345TIP3    H225527   0.453   2.376   0.773  0.9932 -0.6875 -0.0327
 1346TIP3   OH225528   6.544   1.031  13.615  0.0289 -0.0170 -0.0302
 1346TIP3    H125529   6.606   1.015  13.544 -0.7208  1.2385 -1.0068
 1346TIP3    H225530   6.597   1.023  13.695  0.9109 -1.3410 -0.7120
 1347TIP3   OH225531   6.116   6.274   1.370  0.2124 -0.0991 -0.1029
 1347TIP3    H125532   6.090   6.304   1.457  0.0559  0.0308 -0.1917
 1347TIP3    H225533   6.196   6.224   1.384  2.0172  2.5230 -0.2287
 1348TIP3   OH225534   3.392   1.769   5.958 -0.4706 -0.1383 -0.4786
 1348TIP3    H125535   3.347   1.692   5.992  1.9382  0.0330  3.7237
 1348TIP3    H225536   3.381   1.835   6.026  3.2254  0.9449 -0.7485
 1349TIP3   OH225537   1.028   0.363  11.704 -0.2099 -0.1831 -0.4386
 1349TIP3    H125538   0.948   0.351  11.754  0.5956 -0.1143  0.9013
 1349TIP3    H225539   1.085   0.413  11.762  0.6555  0.1349 -1.5359
 1350TIP3   OH225540   4.282   4.364   1.167 -0.2908 -0.1423  0.2122
 1350TIP3    H125541   4.307   4.438   1.223 -0.2861  1.4870 -1.8466
 1350TIP3    H225542   4.296   4.287   1.223  2.0583  1.1861  1.6578
 1351TIP3   OH225543   3.650   4.378   0.300 -0.0152  0.1997  0.1637
 1351TIP3    H125544   3.592   4.306   0.277 -1.1274  0.6056  1.5868
 1351TIP3    H225545   3.732   4.335   0.326  0.5504 -0.3553 -2.2658
 1352TIP3   OH225546   2.196   4.892   4.312 -0.2998 -0.1904 -0.1094
 1352TIP3    H125547   2.142   4.898   4.233  1.3191 -0.5672 -1.2985
 1352TIP3    H225548   2.270   4.836   4.286 -0.8108 -2.1716  2.3130
 1353TIP3   OH225549   5.514   4.535   4.682 -0.3966 -0.2180  0.1254
 1353TIP3    H125550   5.428   4.568   4.658 -0.1410 -0.1588 -0.7431
 1353TIP3    H225551   5.570   4.558   4.609  0.9408  1.9643  1.7201
 1354TIP3   OH225552   6.026   6.756  12.937  0.6938 -0.5992  0.1306
 1354TIP3    H125553   5.974   6.736  12.859 -0.3084 -1.0487  0.8986
 1354TIP3    H225554   6.116   6.737  12.911  0.1740 -2.7277 -0.2894
 1355TIP3   OH225555   4.034   5.761  16.712  0.4199  0.4718  0.5687
 1355TIP3    H125556   4.098   5.694  16.688 -1.2772 -0.5766 -1.3074
 1355TIP3    H225557   4.078   5.844  16.695  1.6638 -0.1995  0.4321
 1356TIP3   OH225558   6.280   5.323   3.033  0.0608  1.0941 -0.4838
 1356TIP3    H125559   6.304   5.358   3.119  0.5607 -0.4935  0.0507
 1356TIP3    H225560   6.186   5.335   3.027 -0.0080  1.0311  0.3838
 1357TIP3   OH225561   0.028   5.187  12.360  0.0412 -0.4336  0.3599
 1357TIP3    H125562  -0.063   5.213  12.375  0.8177  2.2178  1.1448
 1357TIP3    H225563   0.042   5.204  12.267  0.0909  0.5971  0.5384
 1358TIP3   OH225564   0.365   4.566  12.967 -0.1180  0.0523  0.0870
 1358TIP3    H125565   0.411   4.648  12.978  1.6707 -0.3381 -3.1449
 1358TIP3    H225566   0.273   4.591  12.955  0.4058  1.6245 -0.8939
 1359TIP3   OH225567   3.127   5.688  11.207 -0.0413  0.2247  0.5924
 1359TIP3    H125568   3.182   5.671  11.284  1.0378  2.3333  0.3550
 1359TIP3    H225569   3.057   5.744  11.240  2.6639  4.7986 -0.4503
 1360TIP3   OH225570   1.537   1.003  15.792 -0.5056 -0.1740  0.0907
 1360TIP3    H125571   1.531   0.908  15.776 -1.0327  0.0324 -0.9776
 1360TIP3    H225572   1.630   1.018  15.808 -0.5558 -1.0350  1.3837
 1361TIP3   OH225573   3.054   0.679   0.730  0.2804 -0.0219 -0.5176
 1361TIP3    H125574   3.067   0.701   0.822  0.2330  1.9143 -0.9236
 1361TIP3    H225575   3.130   0.625   0.707  1.2246  0.9433  0.2326
 1362TIP3   OH225576   3.716   1.681   0.148  0.3098  0.2319 -0.3036
 1362TIP3    H125577   3.720   1.757   0.090 -0.1334 -0.4638 -1.2678
 1362TIP3    H225578   3.651   1.623   0.108 -0.3045 -0.0870  1.1146
 1363TIP3   OH225579   0.723   0.056  11.500 -0.1765  1.0773 -0.1287
 1363TIP3    H125580   0.701   0.058  11.593  0.0796 -0.1385 -0.0185
 1363TIP3    H225581   0.645   0.021  11.457 -0.5976  2.4146 -0.4909
 1364TIP3   OH225582   1.937   3.227   0.344  0.2779 -0.3213 -0.0197
 1364TIP3    H125583   1.851   3.268   0.341 -0.8928 -2.6637 -0.8415
 1364TIP3    H225584   1.968   3.240   0.434 -0.8591  0.6591  0.2463
 1365TIP3   OH225585   6.505   3.342  11.232  0.5530 -0.1376  0.0404
 1365TIP3    H125586   6.508   3.281  11.158  0.9699 -0.6025  0.4335
 1365TIP3    H225587   6.494   3.428  11.192 -2.5287 -0.6499 -0.4466
 1366TIP3   OH225588   0.327   5.914   6.169  0.0109 -0.3669 -0.2172
 1366TIP3    H125589   0.251   5.938   6.222 -1.5122  0.8055 -2.7088
 1366TIP3    H225590   0.296   5.842   6.114  1.6056 -1.7076  0.5259
 1367TIP3   OH225591   3.329   5.982  16.350  0.4404  0.8232  0.0978
 1367TIP3    H125592   3.241   5.970  16.386  0.6279  0.3195  0.4034
 1367TIP3    H225593   3.316   6.033  16.270 -0.1141  0.8791  0.2194
 1368TIP3   OH225594   6.280   6.844   2.724  0.8477  0.5522  0.3906
 1368TIP3    H125595   6.285   6.835   2.629  0.8784  0.1248  0.4276
 1368TIP3    H225596   6.229   6.924   2.738 -0.4567 -0.1758  0.0037
 1369TIP3   OH225597   6.497   1.847  12.489  0.3400  0.1953  0.1852
 1369TIP3    H125598   6.439   1.831  12.415 -0.7707  1.2108  0.7952
 1369TIP3    H225599   6.439   1.842  12.566  1.0774  1.0847  0.8260
 1370TIP3   OH225600   6.270   0.374  13.656  0.4740 -1.1071  0.2356
 1370TIP3    H125601   6.210   0.303  13.678 -0.0396 -1.0997 -1.0404
 1370TIP3    H225602   6.219   0.432  13.599  1.0084  0.0828  0.9367
 1371TIP3   OH225603   6.197   5.728   2.267 -0.1787 -0.1859 -0.1218
 1371TIP3    H125604   6.105   5.704   2.258 -0.2267  0.2437 -0.7939
 1371TIP3    H225605   6.196   5.802   2.328 -0.3710  0.3866 -0.8043
 1372TIP3   OH225606   5.636   0.053   4.018 -0.0564  0.4164 -0.2526
 1372TIP3    H125607   5.722   0.094   4.027 -0.1947  0.3810  1.5969
 1372TIP3    H225608   5.582   0.120   3.975  0.5888  0.8832 -0.3548
 1373TIP3   OH225609   3.332   5.859   5.849  0.3260 -0.0214  0.1853
 1373TIP3    H125610   3.317   5.830   5.938 -0.7188  0.0058  0.0338
 1373TIP3    H225611   3.360   5.781   5.802  0.6005 -0.0929  0.4630
 1374TIP3   OH225612   1.000   2.714  15.763 -0.2413  0.0650  0.4276
 1374TIP3    H125613   1.054   2.749  15.692  1.5344  0.1775  1.7706
 1374TIP3    H225614   0.965   2.792  15.807 -0.3366  0.0253  0.4227
 1375TIP3   OH225615   5.304   3.252   6.104  0.0662 -0.3394 -0.0451
 1375TIP3    H125616   5.298   3.226   6.196 -1.8079 -2.4343 -0.6790
 1375TIP3    H225617   5.215   3.282   6.081 -0.2346 -2.3457 -1.7995
 1376TIP3   OH225618   0.784   1.181  12.668 -0.2147 -0.1490 -0.4105
 1376TIP3    H125619   0.870   1.217  12.690  0.0503  0.2346 -1.9427
 1376TIP3    H225620   0.729   1.201  12.743  0.8119  0.3937  0.2099
 1377TIP3   OH225621   1.854   4.803  13.488 -0.1606  0.0632  0.0661
 1377TIP3    H125622   1.831   4.747  13.562 -1.3884 -1.3221 -1.2956
 1377TIP3    H225623   1.931   4.852  13.518 -0.5222 -0.5627  2.1740
 1378TIP3   OH225624   6.794   4.270  13.987  0.3074 -0.6874  0.3950
 1378TIP3    H125625   6.874   4.287  14.037  0.3288 -1.7525  0.7557
 1378TIP3    H225626   6.749   4.355  13.984  1.1022 -0.2418  0.8106
 1379TIP3   OH225627   1.698   5.332  14.185 -0.0313 -0.1603 -0.0941
 1379TIP3    H125628   1.656   5.247  14.200 -0.7450  0.0499 -0.8199
 1379TIP3    H225629   1.636   5.395  14.220  0.1871  0.1006 -0.1766
 1380TIP3   OH225630   5.057   0.795   0.730  0.4689 -0.6570  0.0449
 1380TIP3    H125631   5.036   0.717   0.780 -0.0957 -1.4709 -1.4112
 1380TIP3    H225632   5.003   0.864   0.769  0.3708 -1.1675  0.8299
 1381TIP3   OH225633   2.490   1.235   3.347  0.2393  0.1207 -0.5891
 1381TIP3    H125634   2.490   1.298   3.419 -2.5699 -0.1427 -0.2273
 1381TIP3    H225635   2.420   1.173   3.370  1.1242 -1.5847 -2.2314
 1382TIP3   OH225636   2.793   5.547   6.429 -0.1816  0.0632  0.6676
 1382TIP3    H125637   2.731   5.615   6.404 -1.7214 -1.0409  1.3434
 1382TIP3    H225638   2.848   5.534   6.352 -2.4472 -0.7082 -0.8975
 1383TIP3   OH225639   5.339   5.561   0.087  0.2532 -0.0184  0.5447
 1383TIP3    H125640   5.289   5.480   0.074  1.8774 -1.0531  0.5161
 1383TIP3    H225641   5.371   5.584   0.000 -0.0032  0.5434  0.5915
 1384TIP3   OH225642   3.425   3.201  15.749  0.2990  0.1187 -0.5401
 1384TIP3    H125643   3.461   3.209  15.837  0.5353 -0.5137 -0.5673
 1384TIP3    H225644   3.402   3.108  15.741 -1.4262  0.5043 -0.5011
 1385TIP3   OH225645   2.802   1.356  14.941 -0.5529  0.1457  0.1727
 1385TIP3    H125646   2.826   1.388  14.854 -1.2894  1.9940  0.5865
 1385TIP3    H225647   2.772   1.435  14.988  1.5023 -0.4349  2.7014
 1386TIP3   OH225648   5.993   6.788  16.555 -0.2374 -0.4243 -0.4848
 1386TIP3    H125649   6.081   6.825  16.544 -0.5020 -0.0922 -1.5534
 1386TIP3    H225650   5.954   6.841  16.625  0.6079 -0.9695  0.4336
 1387TIP3   OH225651   4.168   2.921   5.324 -0.0326  0.6544 -0.0378
 1387TIP3    H125652   4.128   2.861   5.262 -3.1142  1.2654  1.1602
 1387TIP3    H225653   4.183   3.001   5.274 -0.8361  0.5758 -0.4230
 1388TIP3   OH225654   6.701   5.398  12.669 -0.0289 -0.3171  0.1768
 1388TIP3    H125655   6.654   5.431  12.592 -0.0688 -0.7784  0.0015
 1388TIP3    H225656   6.759   5.470  12.694 -2.4872  1.2211  1.8278
 1389TIP3   OH225657   1.399   5.828  14.520  0.0906 -0.4301 -0.4345
 1389TIP3    H125658   1.443   5.907  14.551  0.1980 -1.0483  1.1211
 1389TIP3    H225659   1.307   5.854  14.512 -0.3463 -0.6668  2.4414
 1390TIP3   OH225660   0.245   1.003  12.963 -0.2603 -0.4664  0.6457
 1390TIP3    H125661   0.223   1.027  12.873  0.4444  1.0519  0.8407
 1390TIP3    H225662   0.327   1.049  12.980 -0.5942 -0.3933  2.2001
 1391TIP3   OH225663   3.975   4.374  16.310 -0.0295 -0.5048  0.3053
 1391TIP3    H125664   3.928   4.456  16.298  2.9495  1.2858 -0.0451
 1391TIP3    H225665   3.967   4.354  16.403 -1.1355 -0.0717  0.3101
 1392TIP3   OH225666   6.460   0.711  14.069  0.0553 -0.1486  0.6103
 1392TIP3    H125667   6.547   0.708  14.030 -0.4749  0.1207 -0.6363
 1392TIP3    H225668   6.418   0.788  14.030 -1.2188 -1.0497  0.1200
 1393TIP3   OH225669   0.495   6.125   0.468  0.0446  0.1289  0.1975
 1393TIP3    H125670   0.472   6.218   0.472  1.6714  0.4969  1.8797
 1393TIP3    H225671   0.575   6.117   0.519  0.4415 -2.0692 -0.6572
 1394TIP3   OH225672   5.150   3.233  10.466  0.3848 -0.1491 -0.0691
 1394TIP3    H125673   5.217   3.194  10.409  1.4332  2.1427 -0.5436
 1394TIP3    H225674   5.095   3.160  10.493  3.4248 -2.2970  0.8319
 1395TIP3   OH225675   2.483   0.268  15.713  0.0909 -0.2418  0.1415
 1395TIP3    H125676   2.469   0.261  15.807  0.8976 -1.4171  0.1901
 1395TIP3    H225677   2.576   0.252  15.701 -0.2698 -1.7780 -0.9995
 1396TIP3   OH225678   1.834   2.529   3.163  0.3523 -0.7680 -0.1437
 1396TIP3    H125679   1.832   2.439   3.132  0.2038 -0.7543 -0.1746
 1396TIP3    H225680   1.776   2.529   3.240 -2.0448 -0.0645 -1.8445
 1397TIP3   OH225681   6.067   0.869  15.511 -0.4699 -0.0082  0.4117
 1397TIP3    H125682   6.057   0.961  15.486  1.1611  0.1139  0.0875
 1397TIP3    H225683   6.136   0.870  15.577 -1.1029 -0.9167  1.1112
 1398TIP3   OH225684   3.975   5.988   3.264  0.2745  0.2605 -0.2205
 1398TIP3    H125685   3.899   6.025   3.217 -1.0144 -0.9714  0.8187
 1398TIP3    H225686   3.984   6.043   3.342  0.0036 -0.0252  0.0123
 1399TIP3   OH225687   4.457   6.045   2.208 -0.3777  0.5926  0.3478
 1399TIP3    H125688   4.514   5.982   2.253  0.0492  1.5397  1.1831
 1399TIP3    H225689   4.369   6.022   2.236 -0.4743 -1.0590 -1.1658
 1400TIP3   OH225690   6.490   5.522   2.392 -0.3124  0.0331  0.1257
 1400TIP3    H125691   6.400   5.532   2.360 -0.1469 -0.6189 -0.5863
 1400TIP3    H225692   6.521   5.611   2.406 -1.1423  0.2549  0.5747
 1401TIP3   OH225693   2.964   5.621   1.799  0.3219 -0.0671 -0.3227
 1401TIP3    H125694   2.920   5.617   1.714  1.2549 -0.8853 -0.7966
 1401TIP3    H225695   2.898   5.656   1.859 -0.6056 -0.2191 -1.2223
 1402TIP3   OH225696   2.195   0.947   0.024 -0.4365 -0.6596 -0.1515
 1402TIP3    H125697   2.215   0.869  -0.028 -0.2459  0.4414 -1.8360
 1402TIP3    H225698   2.151   0.914   0.102  0.6329 -2.5136 -0.2823
 1403TIP3   OH225699   0.825   5.388   0.091  0.1895 -0.2320 -0.6940
 1403TIP3    H125700   0.800   5.460   0.150 -1.2860 -1.3090  0.0706
 1403TIP3    H225701   0.856   5.432   0.012 -2.1751  1.3124 -0.8840
 1404TIP3   OH225702   0.998   2.156  16.355 -0.1739  0.1173 -0.6401
 1404TIP3    H125703   1.028   2.200  16.276 -1.0635  3.3270  0.6450
 1404TIP3    H225704   0.911   2.122  16.333  0.1294 -0.1888 -1.3900
 1405TIP3   OH225705   6.032   1.378   2.648  0.1786 -0.0866  0.1722
 1405TIP3    H125706   6.011   1.451   2.706  0.6824 -0.0512  0.3151
 1405TIP3    H225707   6.039   1.302   2.707  0.5122 -0.0855  0.1332
 1406TIP3   OH225708   6.669   1.775   2.442 -0.6586 -0.8742 -0.1144
 1406TIP3    H125709   6.599   1.711   2.456 -0.6103 -0.7681  0.6713
 1406TIP3    H225710   6.721   1.770   2.522 -1.4621  1.1467  0.5918
 1407TIP3   OH225711   1.055   6.145   0.416 -0.0437 -0.2436  0.1616
 1407TIP3    H125712   1.112   6.164   0.341  1.4454  2.6537  1.8529
 1407TIP3    H225713   0.986   6.089   0.380  0.2965  1.3956 -3.5273
 1408TIP3   OH225714   2.597   1.953   1.160 -0.3655  0.0395  0.1531
 1408TIP3    H125715   2.676   1.903   1.181  1.0534  1.3491 -1.7346
 1408TIP3    H225716   2.542   1.891   1.112  1.0070 -0.0419 -1.4193
 1409TIP3   OH225717   0.911   2.489  14.585  0.2605  0.5368 -0.1461
 1409TIP3    H125718   0.975   2.523  14.648  1.1337 -2.1138  0.5194
 1409TIP3    H225719   0.956   2.416  14.542 -1.2861  0.5311 -1.8888
 1410TIP3   OH225720   0.735   4.702   4.377 -0.7346  0.1489 -0.9081
 1410TIP3    H125721   0.745   4.712   4.283 -0.3869 -0.1343 -0.9036
 1410TIP3    H225722   0.727   4.792   4.410  0.5359  0.3388 -1.0665
 1411TIP3   OH225723   3.808   6.486   3.081  0.0465 -0.2671 -0.0628
 1411TIP3    H125724   3.839   6.474   2.991  0.7482 -1.2771  0.2996
 1411TIP3    H225725   3.798   6.581   3.090  1.3011 -0.0422 -0.7700
 1412TIP3   OH225726   3.052   3.375   5.734  0.3651  0.1826 -0.0656
 1412TIP3    H125727   3.062   3.302   5.795 -2.7148  0.9675  1.5775
 1412TIP3    H225728   3.135   3.422   5.739  1.5545 -1.8548  0.6234
 1413TIP3   OH225729   5.777   5.445  16.177 -0.5250  0.1613 -0.0677
 1413TIP3    H125730   5.784   5.490  16.261  0.7500 -0.6992  0.3247
 1413TIP3    H225731   5.710   5.378  16.191 -0.0233 -0.2543  0.4194
 1414TIP3   OH225732   4.243   4.500   2.141 -0.3082 -0.4466 -0.2204
 1414TIP3    H125733   4.292   4.441   2.199 -0.4598  0.8527  1.2988
 1414TIP3    H225734   4.208   4.567   2.199 -2.0876 -0.1288 -1.5871
 1415TIP3   OH225735   6.321   0.376  13.203  0.4729  0.8847  0.0165
 1415TIP3    H125736   6.298   0.406  13.115  1.4255 -0.5452 -0.7431
 1415TIP3    H225737   6.284   0.443  13.261  0.5881  2.3236 -1.4956
 1416TIP3   OH225738   0.986   0.241  13.373  0.1194  0.0569  0.0508
 1416TIP3    H125739   1.035   0.319  13.348 -1.6643  1.0012 -0.6718
 1416TIP3    H225740   0.951   0.208  13.290  1.3369 -1.9210  0.2513
 1417TIP3   OH225741   5.281   2.483   3.243 -0.0329 -0.4211 -0.3786
 1417TIP3    H125742   5.360   2.456   3.197  0.0952  0.9006 -0.9809
 1417TIP3    H225743   5.275   2.577   3.228 -2.0263 -0.5683 -0.8291
 1418TIP3   OH225744   4.358   5.007   6.022 -0.2204 -0.1655 -0.0812
 1418TIP3    H125745   4.389   5.097   6.013 -0.2569  0.0498  1.5505
 1418TIP3    H225746   4.436   4.958   6.048 -0.3868 -0.4266 -0.0721
 1419TIP3   OH225747   4.075   3.537  15.500 -0.2340  0.5121  0.7922
 1419TIP3    H125748   3.988   3.506  15.527  0.3341 -1.8326  0.1350
 1419TIP3    H225749   4.063   3.564  15.408 -0.3292  0.5194  0.8063
 1420TIP3   OH225750   0.321   0.881  16.199 -0.1415  0.2635 -0.3785
 1420TIP3    H125751   0.317   0.787  16.180  0.1418  0.1392  0.1711
 1420TIP3    H225752   0.277   0.922  16.124  1.2000 -0.1869 -1.4498
 1421TIP3   OH225753   5.977   1.092   4.324 -0.1993 -0.4255  0.5454
 1421TIP3    H125754   5.997   1.057   4.411 -0.5364 -2.5471 -0.1706
 1421TIP3    H225755   5.894   1.052   4.300 -0.7222  1.0949 -0.2693
 1422TIP3   OH225756   1.918   4.383  12.663  0.7563 -0.2996 -0.3120
 1422TIP3    H125757   1.919   4.308  12.604 -1.5699 -1.0825  0.5470
 1422TIP3    H225758   1.951   4.349  12.746  1.3110  0.0904 -0.3618
 1423TIP3   OH225759   5.152   2.638  14.050 -0.2192  0.0494  0.5049
 1423TIP3    H125760   5.169   2.720  14.002 -0.2427 -1.5137 -2.4573
 1423TIP3    H225761   5.063   2.648  14.084  0.2206  1.6986  1.2719
 1424TIP3   OH225762   2.198   2.821  11.240 -0.6822 -0.1456 -0.1931
 1424TIP3    H125763   2.255   2.745  11.232  2.2098  1.8276  0.2696
 1424TIP3    H225764   2.188   2.853  11.150  1.4315  1.1082 -0.0510
 1425TIP3   OH225765   5.752   1.553   4.367  0.5361 -0.0447  0.2386
 1425TIP3    H125766   5.697   1.525   4.294 -1.2543  2.5393  0.4508
 1425TIP3    H225767   5.835   1.509   4.353 -0.4891 -1.4168 -2.0646
 1426TIP3   OH225768   1.582   5.804   2.549 -0.4273 -0.4145 -0.5496
 1426TIP3    H125769   1.665   5.849   2.536 -0.1154 -0.4889  1.0868
 1426TIP3    H225770   1.523   5.845   2.486  0.6662  0.0928 -1.2695
 1427TIP3   OH225771   5.351   0.053  11.853  0.5356 -0.4113 -0.5009
 1427TIP3    H125772   5.309   0.097  11.927  0.8366 -0.2205 -0.4443
 1427TIP3    H225773   5.309   0.091  11.776  1.9851  1.2522 -0.5282
 1428TIP3   OH225774   4.684   5.035  15.240  0.0013 -0.0949  0.2696
 1428TIP3    H125775   4.693   5.014  15.333  2.0595  1.1617  0.4059
 1428TIP3    H225776   4.630   4.964  15.205 -0.0448 -1.0997  2.2305
 1429TIP3   OH225777   0.392   6.820   5.899 -0.4075 -0.3411 -0.0906
 1429TIP3    H125778   0.411   6.733   5.863 -1.8062  0.1949 -2.2444
 1429TIP3    H225779   0.305   6.812   5.939  0.0826 -0.2756  1.0418
 1430TIP3   OH225780   4.980   3.781   5.201  0.3223  0.7046 -0.5490
 1430TIP3    H125781   4.940   3.705   5.241  0.7081  0.8952  0.2174
 1430TIP3    H225782   4.941   3.786   5.114  0.1678 -0.2599 -0.5398
 1431TIP3   OH225783   6.280   6.384   3.976 -0.3361 -0.2898  0.4159
 1431TIP3    H125784   6.240   6.300   3.955 -0.7783  0.0333 -0.0734
 1431TIP3    H225785   6.372   6.365   3.989 -0.6722 -1.0897  1.7840
 1432TIP3   OH225786   1.094   0.435  13.613  0.4181  0.1100  0.4392
 1432TIP3    H125787   1.155   0.408  13.545  3.1791  2.6138  1.7007
 1432TIP3    H225788   1.104   0.370  13.682 -0.0858 -0.7331 -0.2624
 1433TIP3   OH225789   5.765   4.627  15.036 -0.2347 -0.0537  0.4537
 1433TIP3    H125790   5.701   4.555  15.031 -0.4690  0.1954 -0.4091
 1433TIP3    H225791   5.731   4.693  14.975  1.6869 -0.6129 -1.3683
 1434TIP3   OH225792   2.074   2.541  12.843 -0.1381 -0.4138 -0.0151
 1434TIP3    H125793   2.116   2.455  12.846  2.6893  0.8307 -0.5556
 1434TIP3    H225794   2.083   2.575  12.932  0.8524  0.2105 -0.3414
 1435TIP3   OH225795   5.794   3.449   4.191 -0.0848 -0.2188 -0.0644
 1435TIP3    H125796   5.869   3.501   4.220  1.1847 -2.5257  1.0563
 1435TIP3    H225797   5.727   3.466   4.258  0.5662 -0.5604  0.6864
 1436TIP3   OH225798   0.594   6.143  12.079  0.5640 -0.3403  0.2874
 1436TIP3    H125799   0.585   6.158  12.173 -0.9728  0.9992 -0.0391
 1436TIP3    H225800   0.581   6.048  12.069  1.4584 -0.6087  1.4754
 1437TIP3   OH225801   0.102   6.133   0.622 -0.0724 -0.3894  0.3819
 1437TIP3    H125802   0.102   6.051   0.573 -1.2526 -0.5646  0.6623
 1437TIP3    H225803   0.170   6.121   0.688  0.8009 -0.5522 -0.5159
 1438TIP3   OH225804   0.184   5.399  12.500 -0.6402  0.3323 -0.1649
 1438TIP3    H125805   0.124   5.325  12.484 -1.8319  1.2843 -0.2452
 1438TIP3    H225806   0.185   5.408  12.595  0.6274 -0.6475 -0.0509
 1439TIP3   OH225807   4.782   0.035   2.849  0.4773 -0.5984 -0.2209
 1439TIP3    H125808   4.708   0.016   2.907  0.7926  0.3082  0.5041
 1439TIP3    H225809   4.743   0.083   2.776  0.0069 -2.1429 -1.0209
 1440TIP3   OH225810   5.420   5.672   1.467 -0.0869  0.0773  0.4305
 1440TIP3    H125811   5.441   5.670   1.373 -0.5369 -1.6626  0.3266
 1440TIP3    H225812   5.453   5.756   1.497  1.4889  0.0077 -0.9694
 1441TIP3   OH225813   5.467   2.375   5.189  0.2033 -0.0837 -0.2707
 1441TIP3    H125814   5.561   2.382   5.171  0.4737  0.2227  1.1946
 1441TIP3    H225815   5.430   2.454   5.150  0.5602 -0.1435 -0.7497
 1442TIP3   OH225816   2.614   0.420   1.120  0.1961  0.1823  0.0910
 1442TIP3    H125817   2.628   0.504   1.165 -0.5561  0.7785 -0.7278
 1442TIP3    H225818   2.528   0.391   1.150 -0.0452  0.2843 -0.4845
 1443TIP3   OH225819   6.376   0.428  13.964  0.1703 -0.2482  0.1159
 1443TIP3    H125820   6.391   0.469  14.050  0.8336 -0.0946 -0.0669
 1443TIP3    H225821   6.286   0.453  13.941  0.1171  0.0222  0.5976
 1444TIP3   OH225822   4.792   0.906  16.501 -0.3717  0.1085  0.2019
 1444TIP3    H125823   4.880   0.904  16.464  0.2528  3.9972  1.0746
 1444TIP3    H225824   4.805   0.880  16.592 -0.5468 -1.4432 -0.1928
 1445TIP3   OH225825   4.315   0.330  16.651  0.0610  0.4606  0.1720
 1445TIP3    H125826   4.300   0.339  16.557  1.1917 -1.4594 -0.2442
 1445TIP3    H225827   4.400   0.372  16.665  0.2797  0.0177  0.1806
 1446TIP3   OH225828   2.816   2.120   0.242 -0.2587  0.1470 -0.1947
 1446TIP3    H125829   2.891   2.096   0.295 -0.5340  1.0167  0.6213
 1446TIP3    H225830   2.804   2.047   0.181  1.6680  0.3201 -0.8201
 1447TIP3   OH225831   0.811   5.537   1.564  0.1533 -0.4618  0.1753
 1447TIP3    H125832   0.788   5.505   1.651  1.1047 -1.3962  0.0981
 1447TIP3    H225833   0.906   5.528   1.560  0.1996  0.3067 -0.6791
 1448TIP3   OH225834   5.851   3.358  13.609 -0.1123 -0.1035  0.0625
 1448TIP3    H125835   5.865   3.405  13.691 -1.2504  3.7162 -1.7158
 1448TIP3    H225836   5.760   3.328  13.614 -0.0821 -0.1589  0.3012
 1449TIP3   OH225837   1.234   3.022  16.653 -0.5355  0.4071  0.0889
 1449TIP3    H125838   1.203   2.984  16.735  1.1498  0.7938  0.9513
 1449TIP3    H225839   1.286   2.952  16.613 -0.9418  0.3907 -0.4221
 1450TIP3   OH225840   3.573   5.702   2.459 -0.0126 -0.5528 -0.0397
 1450TIP3    H125841   3.543   5.630   2.513 -0.6774 -0.0092  0.3385
 1450TIP3    H225842   3.518   5.776   2.485  2.2008  0.7255  1.2683
 1451TIP3   OH225843   5.903   2.495  15.513 -0.4071  0.6930  0.3229
 1451TIP3    H125844   5.944   2.537  15.438 -1.0377 -0.7648 -0.8750
 1451TIP3    H225845   5.959   2.420  15.533 -1.8106 -0.6533 -0.6127
 1452TIP3   OH225846   5.844   2.755   5.463 -0.2661  0.4527 -0.1386
 1452TIP3    H125847   5.847   2.691   5.392 -0.2462  0.3346 -0.0324
 1452TIP3    H225848   5.751   2.765   5.483 -0.2191 -0.2185  0.4484
 1453TIP3   OH225849   0.173   4.230  12.488 -0.0508 -0.8449 -0.1052
 1453TIP3    H125850   0.245   4.290  12.467 -0.1300 -1.0838 -1.0864
 1453TIP3    H225851   0.152   4.187  12.405 -3.1350  1.1342 -0.5128
 1454TIP3   OH225852   0.971   1.289   2.499 -0.4286 -0.0542 -0.8125
 1454TIP3    H125853   0.940   1.200   2.485 -2.1960  0.1567  1.1707
 1454TIP3    H225854   0.891   1.339   2.517  0.6828  1.5362 -0.1314
 1455TIP3   OH225855   1.484   0.980   2.406 -0.8064  0.0613 -0.3334
 1455TIP3    H125856   1.402   1.017   2.438 -1.3092 -0.6117 -0.8061
 1455TIP3    H225857   1.535   1.056   2.378 -1.9774  0.4178 -1.6645
 1456TIP3   OH225858   4.597   4.580  11.493 -0.0968  0.4077  0.1808
 1456TIP3    H125859   4.643   4.662  11.512 -1.5499  1.0680  1.0134
 1456TIP3    H225860   4.667   4.515  11.481  1.1129  1.9199 -1.3688
 1457TIP3   OH225861   3.531   1.056  13.621  0.0310  0.1290  0.2064
 1457TIP3    H125862   3.607   1.040  13.566  1.1727 -1.2112  2.0481
 1457TIP3    H225863   3.565   1.107  13.695 -1.4080  1.6925 -0.1461
 1458TIP3   OH225864   0.544   3.221   1.898 -0.1623  0.0409 -0.5439
 1458TIP3    H125865   0.457   3.261   1.892 -0.6641 -0.7065  0.9985
 1458TIP3    H225866   0.559   3.212   1.992  0.2451 -2.6161 -0.7744
 1459TIP3   OH225867   1.762   2.394  12.567  0.1780  0.3157  0.0596
 1459TIP3    H125868   1.784   2.461  12.502 -2.1306  0.0304 -1.1317
 1459TIP3    H225869   1.740   2.443  12.645 -5.0215  1.5128 -1.7751
 1460TIP3   OH225870   3.082   2.397  14.595 -0.3945 -0.0574 -0.7155
 1460TIP3    H125871   3.040   2.441  14.669 -1.1810  0.4080 -1.4238
 1460TIP3    H225872   3.175   2.398  14.616 -0.5486  0.6546 -0.0392
 1461TIP3   OH225873   6.313   5.140  10.527  0.0826 -0.1673 -0.2183
 1461TIP3    H125874   6.253   5.204  10.565 -0.5564 -0.6126 -0.4411
 1461TIP3    H225875   6.318   5.070  10.593  1.1295  0.3084  0.2203
 1462TIP3   OH225876   1.432   0.109  12.515  0.7074 -0.0891  0.2718
 1462TIP3    H125877   1.386   0.027  12.494 -0.0125  0.2178  0.6325
 1462TIP3    H225878   1.454   0.101  12.607 -0.7041  0.7503  0.7083
 1463TIP3   OH225879   2.710   5.638   6.077  0.4760 -0.5525  0.3577
 1463TIP3    H125880   2.788   5.598   6.116  0.2588 -0.4323  0.9118
 1463TIP3    H225881   2.667   5.683   6.149  1.4072  1.8104 -0.4649
 1464TIP3   OH225882   5.640   0.629  15.240 -0.1571 -0.6488 -0.8362
 1464TIP3    H125883   5.587   0.706  15.221  2.1284  1.3873  0.4830
 1464TIP3    H225884   5.593   0.584  15.311 -0.8422  0.3104 -0.6637
 1465TIP3   OH225885   0.350   1.881   4.328 -0.0198 -0.0617  0.1653
 1465TIP3    H125886   0.407   1.805   4.336 -0.0802 -0.2333 -0.8687
 1465TIP3    H225887   0.406   1.951   4.294  0.2650  0.6639  2.0231
 1466TIP3   OH225888   2.392   5.115   1.272 -0.8866 -0.0697 -0.6636
 1466TIP3    H125889   2.422   5.201   1.243 -0.3921  0.2949  0.8738
 1466TIP3    H225890   2.298   5.125   1.285 -1.3433 -0.5294 -3.0330
 1467TIP3   OH225891   6.708   2.203  13.403 -0.2437 -0.5280  0.3741
 1467TIP3    H125892   6.656   2.196  13.323 -0.4083 -1.7321  0.5632
 1467TIP3    H225893   6.722   2.112  13.430 -0.3627 -0.1363  1.8292
 1468TIP3   OH225894   3.510   1.803   3.333  0.9506 -0.3410  0.1864
 1468TIP3    H125895   3.494   1.891   3.298  0.7790 -0.0429  0.9851
 1468TIP3    H225896   3.605   1.792   3.327  1.2351  0.7514  1.9938
 1469TIP3   OH225897   4.227   6.031  11.521 -0.5052 -0.3057  0.2293
 1469TIP3    H125898   4.165   6.104  11.510  0.1548  0.3649  0.8032
 1469TIP3    H225899   4.311   6.074  11.535 -0.1747 -1.1861  1.0257
 1470TIP3   OH225900   6.099   5.364   5.382  0.3906 -0.3317  0.1061
 1470TIP3    H125901   6.031   5.323   5.329  1.5035 -0.8264 -0.9807
 1470TIP3    H225902   6.096   5.316   5.465  0.1120 -1.0424 -0.3056
 1471TIP3   OH225903   2.329   2.616  12.314 -0.3238 -0.0382 -0.1541
 1471TIP3    H125904   2.283   2.559  12.253  0.4110  0.5073 -1.2709
 1471TIP3    H225905   2.280   2.610  12.396  0.0878 -2.7399 -0.0176
 1472TIP3   OH225906   4.114   6.022  12.466 -0.6614  0.1737 -0.5896
 1472TIP3    H125907   4.046   6.046  12.528 -0.2302 -1.1686  0.4543
 1472TIP3    H225908   4.083   5.942  12.425 -0.0081 -0.0929 -0.5805
 1473TIP3   OH225909   6.746   5.085   1.742 -0.2625 -0.5305 -0.2153
 1473TIP3    H125910   6.729   5.030   1.819  1.2255 -0.4004  0.2435
 1473TIP3    H225911   6.698   5.166   1.760 -3.3215 -1.9224 -1.3601
 1474TIP3   OH225912   4.069   2.561   5.780 -0.7879  0.0854  0.0171
 1474TIP3    H125913   3.976   2.578   5.794 -0.8725  0.9440 -1.3374
 1474TIP3    H225914   4.113   2.639   5.814 -0.7842  0.8257 -1.5775
 1475TIP3   OH225915   2.378   4.621  16.632  0.2600 -0.2635 -0.2054
 1475TIP3    H125916   2.381   4.541  16.580 -0.1066 -1.1948  1.1619
 1475TIP3    H225917   2.285   4.635  16.648  0.2970  0.6326 -0.6850
 1476TIP3   OH225918   6.093   0.245   2.729  0.5775 -0.2366 -0.2509
 1476TIP3    H125919   6.001   0.238   2.755  0.8373 -1.7835  0.3857
 1476TIP3    H225920   6.090   0.272   2.637 -0.4075  3.1128  0.6084
 1477TIP3   OH225921   5.179   5.415   0.453 -0.4578  0.1116  0.4215
 1477TIP3    H125922   5.132   5.468   0.388  0.0738  0.6384  0.4617
 1477TIP3    H225923   5.115   5.349   0.480 -0.6219 -0.2439 -0.7793
 1478TIP3   OH225924   0.258   2.581  14.519  0.1654  0.1464  0.5382
 1478TIP3    H125925   0.195   2.509  14.511  0.5064  0.0302 -2.1268
 1478TIP3    H225926   0.206   2.655  14.552 -0.7895 -0.6187  0.8056
 1479TIP3   OH225927   0.604   4.789   3.918  0.6252  0.0618 -0.1965
 1479TIP3    H125928   0.609   4.738   3.837  0.0856 -1.1138  0.4859
 1479TIP3    H225929   0.513   4.781   3.946  0.8181  0.4215  0.5566
 1480TIP3   OH225930   4.131   6.770   0.141  0.6788  0.0580  0.4740
 1480TIP3    H125931   4.171   6.752   0.055 -0.1031  2.0340 -0.3552
 1480TIP3    H225932   4.045   6.728   0.136 -0.0618  1.5735 -0.4291
 1481TIP3   OH225933   6.728   1.892   2.201  0.1570  0.1030 -0.4378
 1481TIP3    H125934   6.785   1.956   2.242 -0.7495  0.5775  0.1131
 1481TIP3    H225935   6.729   1.817   2.260  2.0989 -0.8873 -1.6295
 1482TIP3   OH225936   2.004   0.244   6.172 -0.2797 -0.0835  0.0363
 1482TIP3    H125937   2.076   0.306   6.179 -0.1739 -0.1257 -0.5690
 1482TIP3    H225938   2.047   0.159   6.157 -0.4131 -0.3481  1.1009
 1483TIP3   OH225939   4.073   2.029  11.540  0.2402  0.1962  0.1289
 1483TIP3    H125940   4.095   2.092  11.471 -1.4379  1.1397  0.3974
 1483TIP3    H225941   3.978   2.034  11.546  0.2516 -0.9309  1.5356
 1484TIP3   OH225942   5.777   0.583   2.087  0.3239 -0.0133  0.4801
 1484TIP3    H125943   5.761   0.612   2.177  0.6645  0.8350  0.2749
 1484TIP3    H225944   5.839   0.510   2.096 -0.3326 -0.5278  0.9817
 1485TIP3   OH225945   4.376   1.720   6.121  0.1309  0.2261  0.4779
 1485TIP3    H125946   4.284   1.724   6.147 -0.1866  2.8234 -0.7502
 1485TIP3    H225947   4.399   1.628   6.129 -2.3792 -0.4022  1.4330
 1486TIP3   OH225948   2.195   6.083  10.585 -0.7692 -0.2771  0.1998
 1486TIP3    H125949   2.217   6.166  10.627 -2.2254  0.2341  0.0216
 1486TIP3    H225950   2.253   6.018  10.627 -2.0010  0.2205  2.8913
 1487TIP3   OH225951   1.634   2.927   4.003 -0.6791  0.2325  0.2506
 1487TIP3    H125952   1.683   3.008   4.016 -0.2685 -0.0339  0.3557
 1487TIP3    H225953   1.673   2.864   4.063  0.5760 -0.7249 -1.4787
 1488TIP3   OH225954   4.953   4.833   0.254  0.1926 -0.0637 -0.3155
 1488TIP3    H125955   4.976   4.757   0.307 -0.6721 -0.5740 -0.6374
 1488TIP3    H225956   4.874   4.806   0.208 -1.3789  1.7390  1.1330
 1489TIP3   OH225957   0.797   5.293  10.664 -0.4036  0.0350 -0.2539
 1489TIP3    H125958   0.889   5.321  10.666 -0.6795  0.9478  0.2742
 1489TIP3    H225959   0.799   5.208  10.620  0.6057  0.3647 -0.8793
 1490TIP3   OH225960   3.992   2.575   3.693 -0.3177 -0.2545  0.0660
 1490TIP3    H125961   3.898   2.592   3.698  0.0060  1.9038 -0.1295
 1490TIP3    H225962   4.020   2.620   3.613  0.8061 -1.3336 -0.1759
 1491TIP3   OH225963   0.665   6.605  12.736  0.4408 -0.7013  0.0947
 1491TIP3    H125964   0.703   6.520  12.761  0.6593 -0.8293 -0.6686
 1491TIP3    H225965   0.625   6.637  12.817  1.1776 -1.0965  0.6252
 1492TIP3   OH225966   2.610   0.205   2.804  0.4764 -0.4939  0.0451
 1492TIP3    H125967   2.648   0.204   2.717 -0.8250 -2.9740 -0.5923
 1492TIP3    H225968   2.607   0.113   2.831 -1.6705 -0.0863  1.5318
 1493TIP3   OH225969   6.833   4.665  11.854 -0.2873  0.1582 -0.1755
 1493TIP3    H125970   6.740   4.682  11.864 -0.8000 -2.3287 -0.0792
 1493TIP3    H225971   6.875   4.714  11.924 -1.8404 -0.9678  1.6344
 1494TIP3   OH225972   5.190   0.892  11.380  0.5954 -0.4029  0.3779
 1494TIP3    H125973   5.234   0.975  11.396 -0.2199  0.1886 -0.3566
 1494TIP3    H225974   5.163   0.897  11.288 -1.0954 -0.6911  0.8212
 1495TIP3   OH225975   1.757   5.765  13.487 -0.1439 -0.2291 -0.0079
 1495TIP3    H125976   1.769   5.813  13.569  0.2619 -1.1672  0.4884
 1495TIP3    H225977   1.819   5.806  13.426  0.7838 -0.6303  0.6406
 1496TIP3   OH225978   4.550   4.145  11.293 -0.4191  0.4517 -0.5099
 1496TIP3    H125979   4.545   4.200  11.371 -0.3854 -1.2899  0.7891
 1496TIP3    H225980   4.477   4.174  11.239 -2.4092 -0.3120  1.6019
 1497TIP3   OH225981   1.435   5.670   3.557  0.3911 -0.0481  0.4131
 1497TIP3    H125982   1.508   5.698   3.611  1.2476 -1.2687 -0.0629
 1497TIP3    H225983   1.419   5.580   3.583  0.1546 -0.3234 -0.6359
 1498TIP3   OH225984   4.003   6.827   4.523 -0.3285 -0.3833 -0.3836
 1498TIP3    H125985   4.030   6.813   4.432  2.0376 -2.0108  0.4943
 1498TIP3    H225986   4.048   6.759   4.573 -0.8535  0.9989  2.1448
 1499TIP3   OH225987   5.600   4.853  16.092  0.4726  0.0108 -0.2829
 1499TIP3    H125988   5.552   4.908  16.154 -2.9449 -0.1826 -2.5064
 1499TIP3    H225989   5.599   4.766  16.131 -0.4061  0.1613  0.0490
 1500TIP3   OH225990   2.766   1.859   1.804  0.1657  0.6041  0.1497
 1500TIP3    H125991   2.760   1.779   1.857 -2.3627  0.1470 -0.6995
 1500TIP3    H225992   2.839   1.907   1.842  0.8541 -1.4468  1.6073
 1501TIP3   OH225993   2.128   3.898   2.479  0.5309  0.3781  0.5649
 1501TIP3    H125994   2.160   3.950   2.405  2.3758 -2.0737 -0.5072
 1501TIP3    H225995   2.040   3.931   2.495 -0.4207  0.2826 -3.5164
 1502TIP3   OH225996   0.308   4.646  11.141  0.5137  0.0692 -0.1910
 1502TIP3    H125997   0.359   4.617  11.065  2.5611 -0.9010  1.4410
 1502TIP3    H225998   0.217   4.640  11.113  1.1458 -1.4998 -2.1397
 1503TIP3   OH225999   2.769   2.584   0.597 -0.0651  0.2002  0.2637
 1503TIP3    H126000   2.689   2.542   0.626 -1.0314 -0.3510 -2.9222
 1503TIP3    H226001   2.836   2.516   0.603 -0.5567 -0.3248 -0.1753
 1504TIP3   OH226002   2.906   2.078  13.181  0.6141 -0.3821 -0.1302
 1504TIP3    H126003   2.876   2.098  13.093 -0.8617  0.8416  0.5953
 1504TIP3    H226004   2.863   1.995  13.203  0.1553 -0.1648 -0.1982
 1505TIP3   OH226005   5.912   6.024  16.314 -0.4054  0.1454  0.0337
 1505TIP3    H126006   5.969   6.012  16.390  0.9837  0.0214 -0.9990
 1505TIP3    H226007   5.823   6.024  16.350  0.2370  0.2877  1.6689
 1506TIP3   OH226008   2.276   3.246   5.533 -0.3069 -0.1723 -0.5866
 1506TIP3    H126009   2.258   3.193   5.455  1.4296 -0.8862 -0.5463
 1506TIP3    H226010   2.266   3.337   5.503  1.9348 -0.3728 -2.1267
 1507TIP3   OH226011   5.383   1.699   0.743  0.3564 -0.4679  0.1111
 1507TIP3    H126012   5.438   1.706   0.665 -0.7967 -3.1074 -1.0423
 1507TIP3    H226013   5.323   1.773   0.737 -0.0465 -0.9149 -1.8093
 1508TIP3   OH226014   2.085   1.410   0.010  0.2865  0.4339  0.1722
 1508TIP3    H126015   2.171   1.451   0.015  1.3083 -1.5874  0.4483
 1508TIP3    H226016   2.089   1.341   0.076 -0.9195 -0.7779 -0.9668
 1509TIP3   OH226017   4.812   2.490   3.836 -0.3582 -0.2698 -0.2167
 1509TIP3    H126018   4.720   2.464   3.830 -0.1201 -1.2326  0.0594
 1509TIP3    H226019   4.810   2.585   3.837 -1.3513 -0.2776 -0.2551
 1510TIP3   OH226020   1.285   5.332  11.219  0.0121  0.5891  0.0743
 1510TIP3    H126021   1.277   5.238  11.236  2.1891 -0.1505 -2.5188
 1510TIP3    H226022   1.200   5.356  11.182 -0.2324 -0.5495 -0.1472
 1511TIP3   OH226023   4.904   0.447  14.148  0.5562  0.6157  0.2956
 1511TIP3    H126024   4.870   0.483  14.067  2.7619  3.0552  0.3007
 1511TIP3    H226025   4.843   0.378  14.172 -1.4524  1.3980 -2.1791
 1512TIP3   OH226026   4.222   0.488   5.254  0.1958 -0.5263  0.2667
 1512TIP3    H126027   4.144   0.511   5.306 -0.1024  0.5633 -0.6194
 1512TIP3    H226028   4.210   0.396   5.232 -1.7344  0.0198 -1.2779
 1513TIP3   OH226029   5.848   4.100   5.392 -0.0648 -0.2700 -0.3456
 1513TIP3    H126030   5.911   4.114   5.322  1.2336 -0.9464  0.6415
 1513TIP3    H226031   5.762   4.110   5.350  0.6736  1.9087 -1.4611
 1514TIP3   OH226032   0.311   1.773  15.713  0.1691 -0.2648 -0.6376
 1514TIP3    H126033   0.317   1.728  15.628  0.2437 -0.2430 -0.6447
 1514TIP3    H226034   0.322   1.866  15.691 -2.5036  0.0515 -0.9450
 1515TIP3   OH226035   6.185   3.067  15.326 -0.0017 -0.1673  0.0773
 1515TIP3    H126036   6.267   3.018  15.320  0.7024  0.8690  0.8021
 1515TIP3    H226037   6.213   3.157  15.346 -1.0907  1.1874 -3.6897
 1516TIP3   OH226038   5.361   2.102   3.414 -0.0355 -0.3849 -0.2895
 1516TIP3    H126039   5.294   2.168   3.428  1.3662  0.9911  0.1906
 1516TIP3    H226040   5.407   2.130   3.335  1.0506 -0.3482  0.3376
 1517TIP3   OH226041   4.085   6.843  14.699  0.2539  0.2058  0.0609
 1517TIP3    H126042   4.125   6.786  14.765 -2.2651 -0.4765  1.1529
 1517TIP3    H226043   4.027   6.784  14.649  0.5221  1.1223 -1.4043
 1518TIP3   OH226044   1.931   4.420   5.136  0.2802  0.4672  0.3571
 1518TIP3    H126045   1.885   4.344   5.170 -0.2128  0.1165 -1.0260
 1518TIP3    H226046   1.883   4.495   5.171  0.5220  0.1599  1.3901
 1519TIP3   OH226047   2.204   6.359  11.405 -0.0608 -0.2160  0.5404
 1519TIP3    H126048   2.139   6.329  11.342  0.0233 -1.6961  1.1371
 1519TIP3    H226049   2.182   6.452  11.419  0.0163  0.2041 -1.7501
 1520TIP3   OH226050   1.457   0.904   1.226 -0.2336 -0.2834 -0.1344
 1520TIP3    H126051   1.535   0.876   1.272  0.3307 -0.2662 -1.0578
 1520TIP3    H226052   1.385   0.858   1.270  0.2954 -0.3907  0.6410
 1521TIP3   OH226053   3.567   0.058   0.357  0.3707 -0.5153  0.0578
 1521TIP3    H126054   3.650   0.097   0.330  0.1130 -0.0270 -0.0450
 1521TIP3    H226055   3.589   0.006   0.434  0.5963  0.4554  0.6756
 1522TIP3   OH226056   3.429   2.974  11.983 -0.5230  0.3140  0.1804
 1522TIP3    H126057   3.367   2.982  11.911 -0.2201 -0.1782 -0.1396
 1522TIP3    H226058   3.484   2.899  11.960  0.5217  1.0464  0.2127
 1523TIP3   OH226059   5.186   1.870   6.339  0.2284 -0.2282  0.0380
 1523TIP3    H126060   5.229   1.797   6.295  0.3838 -0.4484  0.5499
 1523TIP3    H226061   5.231   1.948   6.307  0.5665 -0.4129  0.0630
 1524TIP3   OH226062   4.921   4.325   4.951  0.3416 -0.3398  0.1527
 1524TIP3    H126063   4.859   4.297   4.883  0.4562 -1.2926  0.4347
 1524TIP3    H226064   4.992   4.262   4.946  2.7765  2.2858 -2.1167
 1525TIP3   OH226065   1.028   2.927  16.040 -0.3153  0.2522 -0.3535
 1525TIP3    H126066   1.004   2.885  16.123  1.3005 -1.0992 -0.5056
 1525TIP3    H226067   0.949   2.923  15.987 -1.2532  0.7553  0.9473
 1526TIP3   OH226068   4.328   0.749  13.062 -0.1346  0.0756 -0.1414
 1526TIP3    H126069   4.290   0.668  13.027  0.2155  0.3641 -1.2423
 1526TIP3    H226070   4.382   0.721  13.136 -0.8291 -0.5733  0.1255
 1527TIP3   OH226071   5.018   6.699   4.688  0.0326  0.4819 -0.3012
 1527TIP3    H126072   4.931   6.735   4.667 -0.1486 -0.6907 -1.7006
 1527TIP3    H226073   5.043   6.650   4.610  2.3344  1.4560 -0.2615
 1528TIP3   OH226074   4.384   6.068  13.736  0.4175 -0.5512 -0.3324
 1528TIP3    H126075   4.455   6.132  13.729  2.0930 -2.4169 -1.3505
 1528TIP3    H226076   4.327   6.087  13.661  1.3484 -0.7398 -1.1050
 1529TIP3   OH226077   6.418   0.740  11.214  0.0761  0.0103 -0.5506
 1529TIP3    H126078   6.467   0.665  11.246  0.0990 -0.1277 -0.9067
 1529TIP3    H226079   6.402   0.721  11.122 -1.5861 -0.4559 -0.2003
 1530TIP3   OH226080   5.601   4.004  13.442  0.3953  0.5636  0.0020
 1530TIP3    H126081   5.556   3.947  13.380  0.3348  0.4243  0.1742
 1530TIP3    H226082   5.532   4.042  13.496  0.4593  0.5547  0.0931
 1531TIP3   OH226083   2.074   2.598   5.091 -0.1266 -0.1918 -0.0132
 1531TIP3    H126084   2.149   2.561   5.044 -1.1207  0.0218 -1.8923
 1531TIP3    H226085   2.048   2.674   5.038 -0.9690  0.4111  1.2247
 1532TIP3   OH226086   5.976   1.258  10.441 -0.6296  0.2547  0.2074
 1532TIP3    H126087   5.951   1.350  10.452  0.3466  0.4436  1.0046
 1532TIP3    H226088   6.071   1.258  10.455  0.1817 -0.1928 -3.9395
 1533TIP3   OH226089   6.385   5.679   1.332 -0.0559 -0.2918  0.0144
 1533TIP3    H126090   6.452   5.701   1.267  1.1604 -1.8494  0.6620
 1533TIP3    H226091   6.434   5.666   1.413 -1.3463 -0.0255  0.8701
 1534TIP3   OH226092   5.959   0.383  16.978  0.0917  0.0387 -0.5848
 1534TIP3    H126093   5.873   0.348  17.002  1.0157 -3.1113 -1.3861
 1534TIP3    H226094   5.953   0.476  16.997 -2.6758 -0.4596  1.7014
 1535TIP3   OH226095   2.885   6.767   2.204  0.0800  0.2360 -0.2173
 1535TIP3    H126096   2.837   6.692   2.170 -1.4477  1.0523 -0.0008
 1535TIP3    H226097   2.863   6.838   2.144  0.2070  0.8615  0.4578
 1536TIP3   OH226098   0.101   6.631   0.891  0.4834 -0.7194 -0.4765
 1536TIP3    H126099   0.077   6.708   0.839  1.5906 -0.3880 -0.5213
 1536TIP3    H226100   0.154   6.666   0.963 -0.2902 -1.2771  0.3874
 1537TIP3   OH226101   2.456   2.909  11.351  0.3712  0.2741 -0.0549
 1537TIP3    H126102   2.478   2.866  11.268  0.9780 -0.3330  0.4077
 1537TIP3    H226103   2.361   2.912  11.352  0.2383 -2.1927  0.4367
 1538TIP3   OH226104   0.362   1.158   3.897 -0.2397  0.3399  0.1745
 1538TIP3    H126105   0.370   1.109   3.979 -3.8866  0.0382  0.4766
 1538TIP3    H226106   0.316   1.238   3.921 -1.7057  0.0783 -1.6015
 1539TIP3   OH226107   3.451   3.322   5.292 -0.2886  0.6973  0.1448
 1539TIP3    H126108   3.393   3.273   5.233  1.7673 -2.0756  0.2318
 1539TIP3    H226109   3.396   3.342   5.368 -1.4500 -0.8741 -0.2220
 1540TIP3   OH226110   0.426   5.476  14.170 -0.4104 -0.6825  0.4833
 1540TIP3    H126111   0.347   5.425  14.191 -0.3297 -0.3455  1.6952
 1540TIP3    H226112   0.496   5.433  14.218  0.0869 -0.7663 -0.3089
 1541TIP3   OH226113   6.053   3.544  16.739  0.1108  0.3694 -0.4614
 1541TIP3    H126114   6.118   3.539  16.669  1.9509 -0.3725  1.1916
 1541TIP3    H226115   6.102   3.523  16.819 -2.4299 -1.5985  0.7316
 1542TIP3   OH226116   6.343   5.821   6.069 -0.3717  0.3231 -0.4200
 1542TIP3    H126117   6.352   5.728   6.090  0.2662  0.0609 -1.7846
 1542TIP3    H226118   6.320   5.861   6.153 -0.8325 -1.0761  0.1652
 1543TIP3   OH226119   0.047   2.802   3.279 -0.1756  0.1155 -0.1723
 1543TIP3    H126120   0.054   2.754   3.361 -0.5919 -0.6513 -0.5745
 1543TIP3    H226121  -0.036   2.849   3.285 -0.9389 -1.1029 -0.7336
 1544TIP3   OH226122   5.664   1.193  11.421  0.6217 -0.4192 -0.5607
 1544TIP3    H126123   5.694   1.284  11.416  0.1846 -0.1210  1.4497
 1544TIP3    H226124   5.574   1.195  11.389  0.0788  0.1812  0.9110
 1545TIP3   OH226125   1.861   3.425  11.429 -0.5986 -0.2384  0.4051
 1545TIP3    H126126   1.941   3.382  11.460 -2.6577 -3.3889  1.9043
 1545TIP3    H226127   1.854   3.399  11.338  0.1813  0.2681  0.1897
 1546TIP3   OH226128   1.308   2.271  16.326  0.1009  0.0573 -0.3314
 1546TIP3    H126129   1.317   2.359  16.362  0.9190  0.1373 -0.7142
 1546TIP3    H226130   1.257   2.223  16.391  0.2479  0.6266  0.2068
 1547TIP3   OH226131   5.611   0.948   2.825  0.6169  0.6249 -0.1764
 1547TIP3    H126132   5.613   1.028   2.774  0.4093  0.2969 -0.7095
 1547TIP3    H226133   5.560   0.970   2.903 -1.5154  0.3866 -1.4202
 1548TIP3   OH226134   2.853   4.240   0.467 -0.4771  0.1251  0.6140
 1548TIP3    H126135   2.819   4.171   0.410 -1.6502  0.8215  0.4370
 1548TIP3    H226136   2.944   4.253   0.439 -0.9787  0.3392 -0.9827
 1549TIP3   OH226137   3.991   0.993  13.586 -0.2204 -0.0462  0.1397
 1549TIP3    H126138   3.985   0.901  13.612 -0.1730 -0.0922 -0.0116
 1549TIP3    H226139   4.084   1.006  13.566 -0.4832 -0.4020 -1.4432
 1550TIP3   OH226140   1.841   6.241  11.477 -1.0096 -0.1575  0.0033
 1550TIP3    H126141   1.767   6.227  11.418 -0.9397  1.0448 -0.4026
 1550TIP3    H226142   1.909   6.182  11.444 -2.1602 -2.2551  1.1639
 1551TIP3   OH226143   4.277   1.862  14.574 -0.1462  0.2724  0.3190
 1551TIP3    H126144   4.185   1.863  14.602 -0.6388 -0.5124 -1.1458
 1551TIP3    H226145   4.272   1.866  14.478  1.2938 -1.3115  0.1483
 1552TIP3   OH226146   5.244   4.915  12.054 -0.1063 -0.3727  0.0323
 1552TIP3    H126147   5.190   4.947  11.981 -0.0129 -2.3818 -0.9702
 1552TIP3    H226148   5.314   4.980  12.063 -1.4122  1.1124 -0.1080
 1553TIP3   OH226149   6.696   0.641   0.035  0.0301  0.1224  0.2454
 1553TIP3    H126150   6.725   0.557   0.000 -0.0776 -0.2141  0.9486
 1553TIP3    H226151   6.777   0.691   0.048  0.2635 -0.5545  1.5399
 1554TIP3   OH226152   1.594   4.027   3.556 -0.0168  0.0435 -0.2998
 1554TIP3    H126153   1.517   3.996   3.509 -0.2459  0.4946 -0.2345
 1554TIP3    H226154   1.666   3.973   3.524 -0.4031 -0.5437 -0.1832
 1555TIP3   OH226155   3.505   0.062  13.732  0.1143 -0.0840  0.3831
 1555TIP3    H126156   3.560   0.018  13.668  0.6215  0.5681  0.3599
 1555TIP3    H226157   3.563   0.125  13.774 -0.3641 -0.0894  1.0664
 1556TIP3   OH226158   6.552   2.174  14.083  0.2041 -0.0330 -0.6981
 1556TIP3    H126159   6.645   2.170  14.105  0.1896  0.8870 -0.4285
 1556TIP3    H226160   6.544   2.252  14.028  0.1052 -1.8013 -3.3628
 1557TIP3   OH226161   2.193   4.829   3.758 -0.3262  0.4719 -0.8017
 1557TIP3    H126162   2.263   4.791   3.704 -0.2924 -0.8976  0.1457
 1557TIP3    H226163   2.236   4.856   3.838 -0.7465  0.3595 -0.5345
 1558TIP3   OH226164   4.947   2.294  11.725 -0.2332  0.3634 -1.0714
 1558TIP3    H126165   5.002   2.260  11.655 -1.4402  0.9077 -2.3172
 1558TIP3    H226166   4.881   2.347  11.681 -0.2228  1.8542  0.5896
 1559TIP3   OH226167   1.933   4.559   1.168  0.0358  0.0305 -0.2389
 1559TIP3    H126168   1.891   4.522   1.091  1.4722  1.3123 -1.7370
 1559TIP3    H226169   1.884   4.640   1.185  0.3347  0.2603 -0.4528
 1560TIP3   OH226170   0.155   1.058  16.399 -0.3427 -0.1683  0.0657
 1560TIP3    H126171   0.145   1.150  16.373  2.8902  0.4875  0.7113
 1560TIP3    H226172   0.163   1.010  16.316 -2.0445  0.0926 -0.2743
 1561TIP3   OH226173   2.549   2.748  12.297 -0.6941  0.6718  0.1567
 1561TIP3    H126174   2.484   2.684  12.267  0.6177 -1.1123  0.9417
 1561TIP3    H226175   2.621   2.740  12.234 -0.5360  1.4358  0.2272
 1562TIP3   OH226176   2.707   3.723  14.973 -0.2376 -0.4194  0.1678
 1562TIP3    H126177   2.633   3.693  14.919  1.6988 -1.5000 -2.0860
 1562TIP3    H226178   2.758   3.643  14.990  3.1291  0.8285 -2.8599
 1563TIP3   OH226179   2.546   6.290  13.906 -0.1284 -0.1296 -0.9209
 1563TIP3    H126180   2.495   6.222  13.863  0.5683 -0.8882 -0.5762
 1563TIP3    H226181   2.509   6.373  13.874 -1.3019 -0.6632 -0.9698
 1564TIP3   OH226182   0.467   6.074   6.383  0.3569 -0.9108  0.6035
 1564TIP3    H126183   0.460   6.036   6.295  1.0510  0.4978 -0.0873
 1564TIP3    H226184   0.383   6.117   6.397  0.4789 -0.6021  0.3762
 1565TIP3   OH226185   4.789   2.904  14.151 -0.0548 -0.1340  0.1325
 1565TIP3    H126186   4.829   2.887  14.237  0.2971  0.8518  0.1808
 1565TIP3    H226187   4.717   2.841  14.145  0.5149 -0.8651  0.7359
 1566TIP3   OH226188   5.934   4.021   1.191 -0.2277  0.0843  0.1514
 1566TIP3    H126189   5.921   4.108   1.229 -0.3879 -0.1482  0.6376
 1566TIP3    H226190   6.003   3.982   1.244 -2.0451 -1.1226  1.7467
 1567TIP3   OH226191   4.272   1.805  13.524  0.0858  0.4547 -0.2907
 1567TIP3    H126192   4.182   1.830  13.545  0.2093  0.0044  0.8610
 1567TIP3    H226193   4.284   1.834  13.434 -1.4584 -0.1517 -0.7286
 1568TIP3   OH226194   6.109   1.892   1.874 -0.1423 -0.6893 -0.7058
 1568TIP3    H126195   6.020   1.923   1.892  0.7673  1.4556  0.4860
 1568TIP3    H226196   6.121   1.909   1.780 -1.0696 -1.2970 -0.9503
 1569TIP3   OH226197   4.540   5.931   0.675 -0.1190 -0.1146 -0.2099
 1569TIP3    H126198   4.469   5.972   0.726 -0.0590 -1.8220  1.3454
 1569TIP3    H226199   4.494   5.883   0.606 -0.5389 -1.3404  0.8820
 1570TIP3   OH226200   3.536   1.495  17.107 -0.2616  0.0687 -0.4814
 1570TIP3    H126201   3.442   1.484  17.097 -0.2811 -0.2055 -0.0076
 1570TIP3    H226202   3.574   1.437  17.041 -0.4182 -0.0963 -0.4257
 1571TIP3   OH226203   1.693   2.168  13.670 -0.2156 -0.9421 -0.5288
 1571TIP3    H126204   1.745   2.100  13.712  0.2177 -0.8302 -0.8705
 1571TIP3    H226205   1.698   2.147  13.576  0.6758  0.0555 -0.7340
 1572TIP3   OH226206   3.200   0.040  15.912  0.2194  0.1287 -0.3141
 1572TIP3    H126207   3.279  -0.012  15.895 -0.3186 -0.9229  0.3183
 1572TIP3    H226208   3.130  -0.024  15.920 -0.6588  1.0305 -0.5530
 1573TIP3   OH226209   5.546   3.926   1.836 -0.1470 -0.3296 -0.3707
 1573TIP3    H126210   5.462   3.926   1.790 -1.0143 -0.7086  1.1635
 1573TIP3    H226211   5.590   3.847   1.805 -0.5988 -0.4365 -0.7492
 1574TIP3   OH226212   5.183   0.154   5.901  0.0309 -0.2653 -0.8929
 1574TIP3    H126213   5.221   0.077   5.943  0.5221  1.2972  1.7773
 1574TIP3    H226214   5.243   0.225   5.924 -2.0517  1.4740 -0.5034
 1575TIP3   OH226215   3.118   2.409  12.378 -0.8684 -0.0756 -0.0204
 1575TIP3    H126216   3.162   2.464  12.314 -1.4735  2.0327  1.2739
 1575TIP3    H226217   3.181   2.399  12.449 -1.3584  0.3863  0.4933
 1576TIP3   OH226218   2.511   2.480   4.782 -0.0251 -0.1881 -0.0053
 1576TIP3    H126219   2.580   2.450   4.841 -0.6399 -0.1097  0.7591
 1576TIP3    H226220   2.549   2.555   4.737  0.7692 -0.8033 -0.3946
 1577TIP3   OH226221   4.519   0.888   4.474  0.0973  0.6066  0.0456
 1577TIP3    H126222   4.479   0.909   4.558 -1.4916 -1.1476 -0.2189
 1577TIP3    H226223   4.473   0.943   4.411  1.0544  1.6644  0.2084
 1578TIP3   OH226224   2.039   0.869  14.417 -0.3583 -0.6843 -0.8002
 1578TIP3    H126225   1.955   0.892  14.457  0.8285 -0.2624  1.6257
 1578TIP3    H226226   2.063   0.786  14.457 -0.6394 -2.0620 -3.2487
 1579TIP3   OH226227   0.459   0.027   0.427  0.2777 -0.0417  0.5473
 1579TIP3    H126228   0.542  -0.019   0.439 -0.1788 -0.4678  2.3533
 1579TIP3    H226229   0.406  -0.034   0.376  0.2774 -0.7886  1.4198
 1580TIP3   OH226230   4.086   1.823  16.368  0.2838  0.2229 -0.1609
 1580TIP3    H126231   4.003   1.777  16.354  1.1853 -1.6802  0.4755
 1580TIP3    H226232   4.126   1.828  16.282 -0.4175  1.0647 -0.4573
 1581TIP3   OH226233   0.945   3.506  12.978  0.0128 -0.3827  0.6830
 1581TIP3    H126234   0.850   3.495  12.972 -0.1156  0.2347  1.4389
 1581TIP3    H226235   0.976   3.427  13.022 -0.0984 -0.7580  0.1009
 1582TIP3   OH226236   0.515   4.922   4.492 -0.2503 -0.4319  0.5034
 1582TIP3    H126237   0.533   5.010   4.459 -0.8181 -0.6856 -0.5273
 1582TIP3    H226238   0.524   4.930   4.587  1.2282  0.3678  0.3265
 1583TIP3   OH226239   2.811   3.478   3.821  0.0439  0.3003  0.2884
 1583TIP3    H126240   2.885   3.538   3.813 -1.2008  1.6692 -1.5946
 1583TIP3    H226241   2.812   3.427   3.740  0.6021 -1.7761  1.5070
 1584TIP3   OH226242   4.778   3.681   0.208  0.9790 -0.4150 -0.6913
 1584TIP3    H126243   4.817   3.703   0.123  1.7117  1.4468  0.0675
 1584TIP3    H226244   4.684   3.677   0.191  1.1755 -0.8600 -1.7348
 1585TIP3   OH226245   6.722   1.361   0.868  0.3230  0.5607  0.4383
 1585TIP3    H126246   6.798   1.338   0.921  0.6871  0.4420 -0.1205
 1585TIP3    H226247   6.735   1.312   0.786 -1.7040 -1.6079  1.3072
 1586TIP3   OH226248   5.078   3.641   3.117 -0.2650  0.2621 -0.6206
 1586TIP3    H126249   5.147   3.602   3.063 -0.0793  0.8752 -0.8248
 1586TIP3    H226250   5.080   3.589   3.198 -1.7074 -1.8057 -1.8258
 1587TIP3   OH226251   0.565   3.217   0.388 -0.4257  0.0196  0.1255
 1587TIP3    H126252   0.557   3.310   0.408  2.3343  0.5050 -0.5399
 1587TIP3    H226253   0.533   3.209   0.299 -1.2929  0.1865  0.4137
 1588TIP3   OH226254   2.310   5.379  12.193 -0.4906 -0.0619  0.5661
 1588TIP3    H126255   2.264   5.406  12.113  0.8540  1.4463  0.2484
 1588TIP3    H226256   2.362   5.303  12.166  0.1426  0.5869 -0.0770
 1589TIP3   OH226257   5.390   5.318   0.813  0.7196  0.0504 -0.2969
 1589TIP3    H126258   5.324   5.360   0.759 -0.0984  0.0165  0.6361
 1589TIP3    H226259   5.359   5.330   0.903  1.1587 -1.3545  0.0758
 1590TIP3   OH226260   3.654   6.171  15.408  0.3076  0.3887  0.0125
 1590TIP3    H126261   3.593   6.102  15.383  0.8195 -0.0627 -0.0245
 1590TIP3    H226262   3.685   6.207  15.325 -0.5216  1.1784  0.0372
 1591TIP3   OH226263   2.941   2.656  16.218 -0.3667 -0.5761  0.2062
 1591TIP3    H126264   2.873   2.702  16.169  0.4910  1.3178  0.6909
 1591TIP3    H226265   2.897   2.624  16.297 -1.4279 -2.4170 -1.0608
 1592TIP3   OH226266   6.789   1.513   3.337 -0.1647 -0.5368 -0.4408
 1592TIP3    H126267   6.792   1.554   3.424 -0.9809 -0.8123 -0.2651
 1592TIP3    H226268   6.757   1.425   3.354  1.5214 -1.2582 -0.8227
 1593TIP3   OH226269   3.329   5.850  12.916  0.0777 -0.0015  0.1395
 1593TIP3    H126270   3.236   5.830  12.904  0.1541 -0.5663  0.4632
 1593TIP3    H226271   3.374   5.778  12.872  0.3585 -0.1383  0.6478
 1594TIP3   OH226272   4.153   6.655   5.094 -0.2786 -0.0785 -0.1143
 1594TIP3    H126273   4.088   6.673   5.161 -0.7672  0.9991 -0.8553
 1594TIP3    H226274   4.172   6.740   5.055  0.7581 -0.5370 -0.6550
 1595TIP3   OH226275   6.292   2.905  16.857  0.2656 -0.3221 -0.0334
 1595TIP3    H126276   6.260   2.904  16.947 -2.2008  0.3306 -0.8289
 1595TIP3    H226277   6.261   2.822  16.820  1.8020 -0.8812 -0.1765
 1596TIP3   OH226278   4.201   3.013  15.742 -0.8609  0.5290 -0.3986
 1596TIP3    H126279   4.230   2.999  15.652 -0.9320 -0.3114 -0.2948
 1596TIP3    H226280   4.277   2.990  15.795 -0.7190  1.3245 -0.2531
 1597TIP3   OH226281   1.267   0.388  13.398 -0.1580  0.4095 -0.2027
 1597TIP3    H126282   1.263   0.341  13.315  0.0847  0.9106 -0.5067
 1597TIP3    H226283   1.298   0.324  13.462  3.1450  0.8519 -1.1753
 1598TIP3   OH226284   2.374   2.761  13.183  0.6452 -0.1984  0.1660
 1598TIP3    H126285   2.333   2.769  13.268 -2.3738  0.1342 -1.2082
 1598TIP3    H226286   2.392   2.851  13.156  1.3407 -0.2869  0.3153
 1599TIP3   OH226287   0.875   5.090   4.959  0.3074  0.3169 -0.2231
 1599TIP3    H126288   0.951   5.077   5.015  0.6500  0.1082 -0.7315
 1599TIP3    H226289   0.891   5.034   4.883 -1.3084 -1.3570  0.5846
 1600TIP3   OH226290   5.285   0.404  10.929 -0.2999  0.3983 -0.0415
 1600TIP3    H126291   5.250   0.339  10.990  0.1855 -0.5654 -0.7593
 1600TIP3    H226292   5.257   0.374  10.843 -0.6372  1.5193 -0.3447
 1601TIP3   OH226293   0.724   2.874  15.307  0.1844  0.0120 -0.0098
 1601TIP3    H126294   0.786   2.833  15.368 -0.3050  1.0389  1.2382
 1601TIP3    H226295   0.757   2.963  15.296 -1.4127  0.8321  1.2885
 1602TIP3   OH226296   4.717   3.691  13.215 -0.1297  0.0753 -0.2152
 1602TIP3    H126297   4.727   3.602  13.250  0.5216  0.4334  0.5189
 1602TIP3    H226298   4.804   3.730  13.222 -0.2323  0.5245 -1.2523
 1603TIP3   OH226299   2.533   6.252   0.651  0.3068  0.3246 -0.2760
 1603TIP3    H126300   2.573   6.333   0.682 -1.0311  1.4089 -1.2451
 1603TIP3    H226301   2.460   6.236   0.711 -0.3219  0.6662 -0.9310
 1604TIP3   OH226302   0.770   5.303   4.450  0.2107 -0.4509 -0.0831
 1604TIP3    H126303   0.792   5.239   4.517  0.3017  0.2045  0.5193
 1604TIP3    H226304   0.852   5.351   4.435  0.6124 -1.5611 -1.7511
 1605TIP3   OH226305   3.789   0.835   2.077 -0.5590  0.1251  0.1734
 1605TIP3    H126306   3.745   0.806   2.157  0.0615  1.9345  1.2420
 1605TIP3    H226307   3.864   0.777   2.069 -1.5667 -1.1847 -0.0937
 1606TIP3   OH226308   1.184   6.122  16.057  0.0525 -0.2168  0.4772
 1606TIP3    H126309   1.269   6.083  16.035 -0.5722 -0.2162 -2.3761
 1606TIP3    H226310   1.121   6.072  16.005 -1.3885  1.3934  0.5980
 1607TIP3   OH226311   0.483   2.088  11.690 -0.0630 -0.2535  0.4849
 1607TIP3    H126312   0.568   2.133  11.690  0.3318 -0.9605  1.6106
 1607TIP3    H226313   0.466   2.070  11.598  0.4237  0.9657  0.1321
 1608TIP3   OH226314   2.898   0.430   2.406 -0.0355  0.5022  0.1437
 1608TIP3    H126315   2.905   0.423   2.501  1.2447  2.0473  0.1918
 1608TIP3    H226316   2.909   0.523   2.387  1.3750  0.0361 -1.6247
 1609TIP3   OH226317   0.408   4.371  16.523  0.6020 -0.1711 -0.1471
 1609TIP3    H126318   0.433   4.459  16.553  0.7115  0.1526 -1.1749
 1609TIP3    H226319   0.423   4.315  16.599 -0.7869  0.9092  0.9981
 1610TIP3   OH226320   2.837   1.071  16.351  0.2554 -0.0952 -0.0031
 1610TIP3    H126321   2.819   0.991  16.302 -1.3242  0.3126 -0.1625
 1610TIP3    H226322   2.928   1.063  16.377  0.2202 -1.8110 -0.2585
 1611TIP3   OH226323   4.846   6.433  10.299  0.3813 -0.0870 -0.3402
 1611TIP3    H126324   4.925   6.476  10.335  0.3989 -1.1260  0.9371
 1611TIP3    H226325   4.879   6.377  10.229  0.4992  1.0478 -1.2246
 1612TIP3   OH226326   2.127   5.182   5.322  0.3746 -0.0775  0.1953
 1612TIP3    H126327   2.079   5.242   5.265 -1.1520 -1.6527 -0.2828
 1612TIP3    H226328   2.212   5.171   5.279 -0.8709 -1.5633 -2.1510
 1613TIP3   OH226329   6.184   3.326  15.430 -0.1659 -0.2621  0.7030
 1613TIP3    H126330   6.096   3.307  15.398  0.9908 -2.4034 -1.5187
 1613TIP3    H226331   6.197   3.419  15.411 -1.2157 -0.4073 -0.9030
 1614TIP3   OH226332   2.838   3.313  11.770  0.3121 -0.6133  0.2390
 1614TIP3    H126333   2.870   3.365  11.843  0.6002 -1.0073  0.3919
 1614TIP3    H226334   2.747   3.294  11.792  0.2036 -0.1676  0.1779
 1615TIP3   OH226335   3.902   3.289   0.461  0.4163  0.8813  0.4621
 1615TIP3    H126336   3.958   3.313   0.534 -0.5048  0.7264  1.2398
 1615TIP3    H226337   3.813   3.296   0.495  0.0069 -0.8913 -0.1029
 1616TIP3   OH226338   0.543   2.638  10.229  0.1303  0.4576 -0.0920
 1616TIP3    H126339   0.627   2.607  10.262 -0.6853 -1.6306  0.2187
 1616TIP3    H226340   0.495   2.558  10.207 -2.0661  1.5342  0.4798
 1617TIP3   OH226341   0.583   3.589   4.549  0.1927  0.1577 -0.3464
 1617TIP3    H126342   0.488   3.572   4.543 -0.0746  0.9893  1.1338
 1617TIP3    H226343   0.601   3.652   4.479  0.1305 -1.7181 -2.1603
 1618TIP3   OH226344   6.113   0.760   1.196  0.2842  0.6147  0.4523
 1618TIP3    H126345   6.131   0.677   1.241  0.2817  0.7302  0.6675
 1618TIP3    H226346   6.037   0.742   1.142 -0.4279  0.7889  1.3674
 1619TIP3   OH226347   4.905   0.222   4.247 -0.3652  0.1492  0.5056
 1619TIP3    H126348   4.902   0.268   4.331  2.0023 -1.4200  1.5895
 1619TIP3    H226349   4.822   0.175   4.241 -1.6985  2.3660  0.6193
 1620TIP3   OH226350   5.917   3.432  15.565  0.7102 -0.0549  0.6144
 1620TIP3    H126351   5.894   3.423  15.473 -0.0669 -1.0149  0.8819
 1620TIP3    H226352   5.901   3.525  15.584  1.2770  0.2442 -0.3060
 1621TIP3   OH226353   4.895   1.336  12.604 -0.2179  0.1242 -0.2624
 1621TIP3    H126354   4.868   1.292  12.523  0.1852 -1.3241  0.3596
 1621TIP3    H226355   4.933   1.418  12.575 -1.1881  0.1742 -1.4624
 1622TIP3   OH226356   4.850   4.860   5.396 -0.7465  0.0642  0.3775
 1622TIP3    H126357   4.817   4.791   5.338 -0.1454 -0.5952  0.8060
 1622TIP3    H226358   4.847   4.939   5.343  0.8307 -0.7024 -0.9623
 1623TIP3   OH226359   1.539   6.731   1.513 -0.4222  0.0881  0.3558
 1623TIP3    H126360   1.583   6.734   1.598  1.2536 -0.5428 -0.4346
 1623TIP3    H226361   1.538   6.823   1.485  1.4042  0.0293 -0.0519
 1624TIP3   OH226362   2.650   1.602  14.997 -0.6257 -0.1291  0.1659
 1624TIP3    H126363   2.595   1.548  15.053 -0.2185  0.8369  1.5630
 1624TIP3    H226364   2.657   1.686  15.044  3.6621 -0.7922  1.1555
 1625TIP3   OH226365   2.120   4.357   1.223  0.2547 -0.1284 -0.4525
 1625TIP3    H126366   2.052   4.423   1.211  1.3303  1.1809  0.3175
 1625TIP3    H226367   2.180   4.372   1.149  0.6617 -0.0273 -0.1036
 1626TIP3   OH226368   3.615   4.428  15.891  0.1126  0.2964  0.1812
 1626TIP3    H126369   3.573   4.448  15.975  1.2229  1.5269  0.4822
 1626TIP3    H226370   3.544   4.435  15.827 -0.1502  2.6498  0.6245
 1627TIP3   OH226371   5.657   3.005  15.113 -0.2777 -0.5467  0.9448
 1627TIP3    H126372   5.687   2.930  15.164 -0.6381 -2.0594 -0.9512
 1627TIP3    H226373   5.619   3.064  15.177  0.3818 -1.8029  2.5500
 1628TIP3   OH226374   3.659   3.918   1.231 -0.4192 -0.0575  0.2918
 1628TIP3    H126375   3.569   3.887   1.230 -0.8365  1.0895 -1.4434
 1628TIP3    H226376   3.709   3.846   1.268 -1.8421 -1.3082 -0.1383
 1629TIP3   OH226377   2.734   5.343   6.802 -0.0138 -0.5529  0.5406
 1629TIP3    H126378   2.812   5.346   6.747 -0.2843 -0.2751  0.1632
 1629TIP3    H226379   2.737   5.425   6.851  0.5195 -1.0521  1.3548
 1630TIP3   OH226380   5.863   3.547  12.984  0.2193 -0.6853  0.2721
 1630TIP3    H126381   5.829   3.459  12.967 -0.3518 -0.5777  0.8247
 1630TIP3    H226382   5.896   3.542  13.074 -1.1754  0.0732  0.8446
 1631TIP3   OH226383   6.352   3.030   4.800  0.1468  0.5078 -0.3467
 1631TIP3    H126384   6.394   2.986   4.726 -2.9872 -0.3467 -1.7817
 1631TIP3    H226385   6.381   2.981   4.877  0.7073 -0.8627 -1.3944
 1632TIP3   OH226386   6.560   5.773   1.654 -0.1234 -0.5922  0.0830
 1632TIP3    H126387   6.517   5.688   1.645  0.9912 -1.1775  0.1237
 1632TIP3    H226388   6.652   5.752   1.666  0.1701  0.6311  0.0896
 1633TIP3   OH226389   2.255   6.804   6.702 -0.4775  0.0219 -0.0774
 1633TIP3    H126390   2.207   6.887   6.705 -0.8673 -0.2347  1.3108
 1633TIP3    H226391   2.203   6.748   6.645 -0.8962  0.3135  0.0103
 1634TIP3   OH226392   5.475   2.182  14.790  0.7931 -0.2802 -0.0777
 1634TIP3    H126393   5.529   2.259  14.807  1.5989 -0.7255 -0.5642
 1634TIP3    H226394   5.522   2.134  14.722  0.1260 -1.0302 -0.0228
 1635TIP3   OH226395   2.750   0.528  11.511 -0.4775 -0.3261  0.3918
 1635TIP3    H126396   2.672   0.534  11.456 -0.7607 -1.1678  0.6970
 1635TIP3    H226397   2.770   0.619  11.534  0.2543  0.1777 -1.9481
 1636TIP3   OH226398   0.569   0.910   2.118  0.1286  0.0822  1.4257
 1636TIP3    H126399   0.581   0.817   2.100 -0.3697  0.0661  1.1237
 1636TIP3    H226400   0.643   0.953   2.075 -0.6369 -0.0286 -0.0903
 1637TIP3   OH226401   5.393   5.041   0.098  0.2698 -0.3874 -0.4642
 1637TIP3    H126402   5.351   5.121   0.067 -0.9198 -0.4731  0.8460
 1637TIP3    H226403   5.486   5.063   0.101  0.0337  0.7208 -0.7767
 1638TIP3   OH226404   1.394   0.840  13.604 -0.2089 -0.3581  0.1084
 1638TIP3    H126405   1.411   0.889  13.524  0.0759  0.2499  0.5293
 1638TIP3    H226406   1.400   0.905  13.674  1.6414 -1.2264  0.8338
 1639TIP3   OH226407   5.690   6.811  10.886 -1.3646 -0.4834  0.5105
 1639TIP3    H126408   5.767   6.755  10.888  0.7475  2.1559 -0.4181
 1639TIP3    H226409   5.667   6.824  10.978  1.6758  1.5373  1.1359
 1640TIP3   OH226410   6.590   3.057  15.075 -0.5069 -0.6844  0.4708
 1640TIP3    H126411   6.530   3.044  15.148  0.2649 -0.9466  1.0772
 1640TIP3    H226412   6.628   3.143  15.089  1.1378 -1.5331  1.5268
 1641TIP3   OH226413   2.330   0.032   3.030  0.0598 -0.0501  0.2834
 1641TIP3    H126414   2.349  -0.058   3.055  0.9168  0.1184  0.2680
 1641TIP3    H226415   2.373   0.042   2.944  0.8652  0.6747  0.7576
 1642TIP3   OH226416   3.412   2.243  11.407  0.0857 -0.8969 -0.4046
 1642TIP3    H126417   3.419   2.235  11.312  0.2229 -1.7809 -0.3279
 1642TIP3    H226418   3.441   2.333  11.426 -1.7612 -0.0391 -1.3572
 1643TIP3   OH226419   0.887   4.339  11.541  0.2362 -0.1966 -0.0266
 1643TIP3    H126420   0.874   4.274  11.472  1.1070 -1.1820  0.7110
 1643TIP3    H226421   0.911   4.419  11.494  0.7394 -0.8302 -0.8805
 1644TIP3   OH226422   2.956   4.489   5.999 -0.3278  0.0509  0.0162
 1644TIP3    H126423   2.959   4.581   6.026  1.2152  0.5949 -1.8533
 1644TIP3    H226424   2.994   4.442   6.073  1.5694  1.2397 -0.1345
 1645TIP3   OH226425   6.450   3.695  16.002  0.3146 -0.1305  0.1168
 1645TIP3    H126426   6.376   3.662  15.952  0.3408  2.1765 -1.5913
 1645TIP3    H226427   6.518   3.712  15.937  1.5245 -0.0419  1.3615
 1646TIP3   OH226428   4.248   3.694  16.678  0.1903  0.3296  0.4014
 1646TIP3    H126429   4.250   3.718  16.771  0.6366 -0.4003  0.5890
 1646TIP3    H226430   4.219   3.774  16.634  1.5713  1.2263  1.0149
 1647TIP3   OH226431   5.952   0.945  13.540  0.0891 -0.4427  0.1206
 1647TIP3    H126432   5.992   1.022  13.579 -0.3307 -0.5093  0.6891
 1647TIP3    H226433   5.930   0.889  13.614 -0.8500 -0.5092 -0.1956
 1648TIP3   OH226434   5.814   3.944  15.163  0.5017 -0.0942  0.0684
 1648TIP3    H126435   5.722   3.939  15.187  0.1138  2.0574 -0.7644
 1648TIP3    H226436   5.834   3.858  15.125 -0.4989 -1.4088  2.3132
 1649TIP3   OH226437   1.737   3.652   2.582  0.3090 -0.3995 -0.0159
 1649TIP3    H126438   1.805   3.608   2.532 -0.4638 -1.5455 -0.0922
 1649TIP3    H226439   1.785   3.712   2.640  1.3479 -0.8690 -0.3677
 1650TIP3   OH226440   0.478   6.393  11.925 -0.1231 -0.5775  0.4993
 1650TIP3    H126441   0.524   6.415  11.844  0.4192  0.6839  1.1160
 1650TIP3    H226442   0.513   6.308  11.950  0.2495 -0.6396 -0.2064
 1651TIP3   OH226443   3.629   2.129  16.554  0.5913 -0.4891  0.2487
 1651TIP3    H126444   3.687   2.057  16.529  2.4392 -0.3143  3.4559
 1651TIP3    H226445   3.657   2.154  16.642 -2.6428  1.4880  0.9274
 1652TIP3   OH226446   5.673   4.572   6.253  0.1627 -0.0588  0.4086
 1652TIP3    H126447   5.696   4.632   6.183 -2.2262  2.4583  1.5929
 1652TIP3    H226448   5.642   4.493   6.208 -2.5179  1.9232 -1.5809
 1653TIP3   OH226449   1.967   2.310  13.477 -0.3509 -0.2015  0.2746
 1653TIP3    H126450   1.900   2.245  13.455 -0.0459 -0.5428  0.3453
 1653TIP3    H226451   2.021   2.316  13.399  0.1601 -0.7030  0.5856
 1654TIP3   OH226452   6.025   0.571   1.907 -0.1388  0.4206  0.0216
 1654TIP3    H126453   5.939   0.592   1.944  0.1261  1.3637  0.1332
 1654TIP3    H226454   6.038   0.636   1.839 -0.2388 -0.7654 -1.1691
 1655TIP3   OH226455   2.045   6.006   3.755  0.3049  0.0030  0.0251
 1655TIP3    H126456   2.053   6.025   3.849  3.1374 -2.8465  0.5161
 1655TIP3    H226457   1.974   5.943   3.749 -1.0970  1.5249 -0.0666
 1656TIP3   OH226458   0.612   2.792   4.282  0.4373 -0.1849 -0.3018
 1656TIP3    H126459   0.623   2.858   4.350  1.3370  0.7494 -1.3261
 1656TIP3    H226460   0.627   2.709   4.328 -0.3648  0.3094  0.9225
 1657TIP3   OH226461   6.762   6.407  13.952  0.0729 -0.5610  0.6171
 1657TIP3    H126462   6.790   6.450  14.033 -1.2364  1.0777  0.2764
 1657TIP3    H226463   6.670   6.385  13.967  0.1908 -1.4885  0.0506
 1658TIP3   OH226464   2.406   4.703   4.455 -0.4537 -0.3236  0.0199
 1658TIP3    H126465   2.433   4.665   4.538  1.4270  0.6188 -0.1040
 1658TIP3    H226466   2.369   4.788   4.478 -1.2241 -0.6366 -0.0184
 1659TIP3   OH226467   0.286   4.224  13.168 -0.7045 -0.0760 -0.6205
 1659TIP3    H126468   0.322   4.312  13.180 -0.3233  0.1155 -2.8202
 1659TIP3    H226469   0.322   4.173  13.241  1.2742  0.9384 -0.8239
 1660TIP3   OH226470   6.777   2.288  11.376 -0.5604  0.1262 -0.3253
 1660TIP3    H126471   6.701   2.293  11.318  0.0156 -1.7670 -1.3507
 1660TIP3    H226472   6.852   2.313  11.321  0.0010 -1.7480 -0.4943
 1661TIP3   OH226473   1.930   5.475   0.836 -0.2476 -0.2401 -0.3807
 1661TIP3    H126474   1.933   5.516   0.922 -1.8383 -2.6895  0.9576
 1661TIP3    H226475   1.892   5.542   0.779  1.3551  1.6256  0.6301
 1662TIP3   OH226476   2.084   2.440   0.657  0.3509  0.1920 -0.3205
 1662TIP3    H126477   2.174   2.428   0.628  0.1834 -0.9071 -0.4139
 1662TIP3    H226478   2.031   2.398   0.589 -0.2838  1.5462 -0.6877
 1663TIP3   OH226479   4.785   2.368   5.675 -0.0301  0.4594  0.4010
 1663TIP3    H126480   4.753   2.454   5.649  0.3628  0.7649  0.8982
 1663TIP3    H226481   4.793   2.373   5.770 -0.9959 -0.4771  0.5487
 1664TIP3   OH226482   4.979   2.332  13.196  0.4301  0.3351  0.6665
 1664TIP3    H126483   5.028   2.296  13.122  0.5896  1.6447  0.1008
 1664TIP3    H226484   5.022   2.415  13.215 -0.8824  0.9930  0.8728
 1665TIP3   OH226485   0.156   6.233   2.431  0.1738 -0.9431 -0.0491
 1665TIP3    H126486   0.202   6.305   2.388 -2.0953  1.1943  0.8761
 1665TIP3    H226487   0.226   6.179   2.467  1.9992  0.2568 -1.5819
 1666TIP3   OH226488   3.288   0.638  16.957 -0.2850 -0.1501 -0.0829
 1666TIP3    H126489   3.319   0.682  17.036 -0.2484  2.6204 -1.4879
 1666TIP3    H226490   3.197   0.616  16.977  0.1440 -0.8804  1.2090
 1667TIP3   OH226491   2.656   0.996   2.130  0.7360  0.5161  0.0312
 1667TIP3    H126492   2.607   0.993   2.213 -0.0945 -1.9007 -0.4470
 1667TIP3    H226493   2.587   0.997   2.063  1.2447 -2.1349 -0.6437
 1668TIP3   OH226494   5.586   0.039   6.064 -0.4949  0.5074 -0.0416
 1668TIP3    H126495   5.566  -0.052   6.087  0.1008  0.3920  0.0275
 1668TIP3    H226496   5.620   0.035   5.975 -1.0741  0.7421 -0.2770
 1669TIP3   OH226497   1.538   3.527  15.495 -0.1286  0.2615  0.0016
 1669TIP3    H126498   1.525   3.496  15.405 -0.6349  1.1690 -0.2553
 1669TIP3    H226499   1.601   3.466  15.532 -1.0550 -1.0472 -0.4762
 1670TIP3   OH226500   5.994   2.402  10.808  0.2949  0.2689 -0.2503
 1670TIP3    H126501   5.951   2.403  10.723  0.4039 -0.8937 -0.3290
 1670TIP3    H226502   6.076   2.356  10.793  0.8272  1.0197  0.2588
 1671TIP3   OH226503   3.869   0.623  15.416  0.7080 -0.0780 -0.5424
 1671TIP3    H126504   3.811   0.693  15.446 -0.8476 -1.4764 -0.1234
 1671TIP3    H226505   3.889   0.644  15.325 -2.3137 -0.6393 -1.4516
 1672TIP3   OH226506   5.407   6.242  12.888 -0.1783 -0.4134  0.1938
 1672TIP3    H126507   5.428   6.192  12.966  0.2413  0.5578  0.7211
 1672TIP3    H226508   5.418   6.334  12.914  3.5612 -0.0453 -1.9243
 1673TIP3   OH226509   0.089   4.974  14.016 -0.0815 -0.1762 -0.0967
 1673TIP3    H126510   0.144   4.990  14.093 -0.0162 -1.2697  0.0912
 1673TIP3    H226511   0.146   4.996  13.942 -0.0534  0.6114  0.1505
 1674TIP3   OH226512   5.692   3.548  11.528 -0.5170  0.0771 -0.3591
 1674TIP3    H126513   5.762   3.591  11.576 -0.8159 -0.7666  0.8798
 1674TIP3    H226514   5.643   3.620  11.487 -1.0228  0.9402  1.6750
 1675TIP3   OH226515   0.921   3.793  14.760  0.1985  0.0053  0.2851
 1675TIP3    H126516   0.920   3.698  14.750  0.6831 -0.1403  1.5628
 1675TIP3    H226517   0.828   3.818  14.761  0.0713 -0.3108 -1.1454
 1676TIP3   OH226518   5.691   1.749   1.225  0.1913  0.1348 -0.5046
 1676TIP3    H126519   5.653   1.830   1.257 -0.1242 -0.6237  1.1761
 1676TIP3    H226520   5.679   1.752   1.130  0.6521  2.2538 -0.5501
 1677TIP3   OH226521   1.467   1.978  13.400 -0.0290 -0.5294 -0.6302
 1677TIP3    H126522   1.559   2.003  13.412 -0.3527  0.0841  0.7381
 1677TIP3    H226523   1.430   2.049  13.347 -0.1592  0.2893  0.4972
 1678TIP3   OH226524   2.801   2.613   4.661  0.1300 -0.4366 -0.1306
 1678TIP3    H126525   2.788   2.644   4.750 -2.1088  1.9898 -1.1307
 1678TIP3    H226526   2.887   2.648   4.636  1.3798 -2.2465  1.3956
 1679TIP3   OH226527   1.710   6.376   4.548 -0.2569  0.1306  0.8791
 1679TIP3    H126528   1.656   6.440   4.593  2.4332  3.0075  0.4005
 1679TIP3    H226529   1.798   6.388   4.585  0.8700 -1.4814 -1.0283
 1680TIP3   OH226530   0.988   2.317   1.921 -0.2248 -0.1306 -0.2569
 1680TIP3    H126531   1.076   2.286   1.902  0.5374  1.4172  0.5305
 1680TIP3    H226532   0.961   2.363   1.840 -0.7525 -1.4714 -0.8700
 1681TIP3   OH226533   5.030   6.833   5.726  0.0708 -0.0355 -0.3907
 1681TIP3    H126534   5.046   6.895   5.797 -0.5082  0.5724 -0.7777
 1681TIP3    H226535   5.051   6.748   5.763 -1.0585  0.1747  0.8097
 1682TIP3   OH226536   5.221   2.220  11.561  0.3361  0.2489 -0.2197
 1682TIP3    H126537   5.156   2.151  11.548  1.0720 -0.9718  1.9840
 1682TIP3    H226538   5.283   2.208  11.489 -0.5341 -0.1790 -0.9169
 1683TIP3   OH226539   2.699   5.000   6.772  0.0652  0.5654  0.3347
 1683TIP3    H126540   2.653   4.946   6.837 -0.5030  1.3966  0.6433
 1683TIP3    H226541   2.727   5.077   6.820  1.0491  0.4593 -0.0587
 1684TIP3   OH226542   4.715   5.780  14.065  0.0542 -0.3444  0.4119
 1684TIP3    H126543   4.739   5.869  14.093 -0.1619  0.6313 -2.2344
 1684TIP3    H226544   4.748   5.774  13.976 -2.3432 -1.9231 -0.4548
 1685TIP3   OH226545   5.857   5.721  13.153  0.1412 -0.3618  0.0994
 1685TIP3    H126546   5.865   5.635  13.112 -0.7342 -0.5257  0.2673
 1685TIP3    H226547   5.772   5.720  13.197 -0.3989  1.0036 -0.8606
 1686TIP3   OH226548   4.366   6.177  14.206  0.9059 -0.2580  0.0927
 1686TIP3    H126549   4.335   6.098  14.161  0.4626  0.1275 -0.2941
 1686TIP3    H226550   4.290   6.208  14.256  0.9045  0.2272 -0.2000
 1687TIP3   OH226551   4.152   6.742   4.789  0.4092 -0.0759  1.1937
 1687TIP3    H126552   4.202   6.712   4.713 -0.7276  1.5814 -0.2943
 1687TIP3    H226553   4.110   6.663   4.822 -0.4105 -0.6236 -0.9703
 1688TIP3   OH226554   4.292   0.390   1.461  0.1922  0.4668 -0.1100
 1688TIP3    H126555   4.303   0.358   1.550 -1.6142 -2.1597 -0.7030
 1688TIP3    H226556   4.286   0.485   1.470  2.0706  0.4589  2.2718
 1689TIP3   OH226557   4.310   6.319   3.360  0.3669  0.3020  0.1740
 1689TIP3    H126558   4.312   6.247   3.422  1.4210  1.0523  1.0674
 1689TIP3    H226559   4.249   6.382   3.398  1.0676  0.7942  0.5061
 1690TIP3   OH226560   5.653   5.350  14.307 -0.2081  0.3549 -0.5776
 1690TIP3    H126561   5.609   5.271  14.276 -0.5324 -0.9540  2.7481
 1690TIP3    H226562   5.598   5.422  14.278 -1.7106 -0.8998 -0.9361
 1691TIP3   OH226563   1.681   5.231  12.480 -0.1578  0.0545 -0.0447
 1691TIP3    H126564   1.738   5.158  12.504 -1.2673 -0.7832  0.1101
 1691TIP3    H226565   1.651   5.267  12.563  0.1235  0.4877 -0.1253
 1692TIP3   OH226566   6.316   5.951  16.692 -0.3115  0.0903 -0.7761
 1692TIP3    H126567   6.333   6.046  16.692 -1.1348  0.2449 -0.1739
 1692TIP3    H226568   6.241   5.940  16.750 -2.4287 -0.5394 -3.4199
 1693TIP3   OH226569   4.657   5.602   4.726  0.0558 -0.0801  0.8955
 1693TIP3    H126570   4.609   5.545   4.666  1.2902 -0.3288  0.1121
 1693TIP3    H226571   4.732   5.549   4.755  0.3891  0.6166  1.3428
 1694TIP3   OH226572   0.892   4.015   5.207  0.6916 -0.3091 -0.5153
 1694TIP3    H126573   0.888   3.940   5.148 -0.0873  1.7161 -3.2671
 1694TIP3    H226574   0.814   4.008   5.262  1.1438 -1.9610 -0.0326
 1695TIP3   OH226575   5.200   4.617  15.016  0.4195  0.4374  0.1653
 1695TIP3    H126576   5.123   4.640  14.964  0.5781 -0.1869 -0.3428
 1695TIP3    H226577   5.205   4.687  15.082 -2.9215 -1.4958  2.7915
 1696TIP3   OH226578   0.116   6.498  11.266 -0.6591 -0.7565  0.1631
 1696TIP3    H126579   0.135   6.409  11.235 -0.3677 -1.4240  2.0814
 1696TIP3    H226580   0.023   6.510  11.248 -0.3531 -0.8237 -1.5466
 1697TIP3   OH226581   5.253   1.709  12.169  0.7684 -0.5647  0.1788
 1697TIP3    H126582   5.161   1.734  12.157  0.4838 -1.6860 -0.0534
 1697TIP3    H226583   5.257   1.672  12.257  1.0016 -0.5375  0.1804
 1698TIP3   OH226584   2.680   4.024   5.287 -0.2073  0.0399  0.2409
 1698TIP3    H126585   2.758   4.062   5.248  0.3896  0.4233  1.7423
 1698TIP3    H226586   2.614   4.029   5.218  0.6790  1.0743 -0.5611
 1699TIP3   OH226587   4.158   5.032  16.416  0.0775 -0.1637 -0.0536
 1699TIP3    H126588   4.150   5.108  16.474  0.0270  2.9654 -3.7206
 1699TIP3    H226589   4.252   5.026  16.398 -0.1091  0.3362 -1.2674
 1700TIP3   OH226590   0.582   3.656  13.242  0.1090  0.0965 -0.1371
 1700TIP3    H126591   0.533   3.651  13.160 -0.7802  0.5988  0.3532
 1700TIP3    H226592   0.516   3.670  13.310  0.8907  0.4110  0.5894
 1701TIP3   OH226593   2.440   3.225  14.938 -0.0259  0.2031  0.2693
 1701TIP3    H126594   2.534   3.242  14.949  0.5121  0.0521 -3.0228
 1701TIP3    H226595   2.403   3.310  14.914 -0.4653 -0.0017  0.2109
 1702TIP3   OH226596   2.002   4.279  13.430  0.3809 -0.0232 -0.3837
 1702TIP3    H126597   2.017   4.213  13.498  0.9752  0.0223 -0.4653
 1702TIP3    H226598   1.911   4.306  13.443  0.9596  1.1970  1.4729
 1703TIP3   OH226599   4.903   0.902   5.241 -0.1673  0.5449  0.8261
 1703TIP3    H126600   4.887   0.934   5.152  2.7775  0.7979  0.3031
 1703TIP3    H226601   4.939   0.977   5.288  1.1768 -0.3596  1.3103
 1704TIP3   OH226602   5.238   3.767  11.042  0.3671  0.4753 -0.1627
 1704TIP3    H126603   5.145   3.790  11.046  0.2758  0.2793 -1.0032
 1704TIP3    H226604   5.247   3.714  10.963  0.9945 -0.4937  0.5282
 1705TIP3   OH226605   1.584   5.635  14.423  0.9430  0.4585 -0.4313
 1705TIP3    H126606   1.648   5.631  14.495  0.0056  1.8864  0.5411
 1705TIP3    H226607   1.516   5.694  14.455 -1.0311 -1.2104 -1.3420
 1706TIP3   OH226608   1.162   5.489  15.792 -0.5286  1.0130  0.1378
 1706TIP3    H126609   1.104   5.423  15.754  1.4107 -1.9564  1.9454
 1706TIP3    H226610   1.200   5.534  15.717 -0.9869 -0.7817 -1.2388
 1707TIP3   OH226611   6.700   1.665   1.647 -0.2647  0.6683  0.5135
 1707TIP3    H126612   6.746   1.748   1.656  0.7997  0.0304  1.2359
 1707TIP3    H226613   6.754   1.602   1.695 -0.3667 -0.7007 -1.0600
 1708TIP3   OH226614   0.930   2.992   3.882  0.3573 -0.0987  0.0762
 1708TIP3    H126615   0.893   3.076   3.855 -2.1053 -0.6283  1.5103
 1708TIP3    H226616   1.023   3.010   3.894  0.2057  1.9670 -1.3262
 1709TIP3   OH226617   3.199   6.846   3.241  0.5170  0.1112 -0.3965
 1709TIP3    H126618   3.285   6.865   3.202  0.6528 -0.7757 -0.5435
 1709TIP3    H226619   3.168   6.769   3.194 -1.6983  2.0657 -2.4137
 1710TIP3   OH226620   2.982   0.130   1.064  0.1709  0.1824  0.2600
 1710TIP3    H126621   2.978   0.204   1.002  1.2607  0.1646  0.1501
 1710TIP3    H226622   2.896   0.130   1.107  0.0776  1.3829  0.1053
 1711TIP3   OH226623   6.572   5.489  12.445 -0.3201 -0.4146 -0.0370
 1711TIP3    H126624   6.496   5.537  12.478 -0.1563 -0.0730 -0.1556
 1711TIP3    H226625   6.534   5.415  12.397 -0.5976  0.1520 -0.7121
 1712TIP3   OH226626   3.833   2.732   3.438  0.3741 -0.0148  0.2262
 1712TIP3    H126627   3.742   2.702   3.429  0.8259 -1.7640  1.0754
 1712TIP3    H226628   3.886   2.659   3.407  1.5402  0.2691  1.4661
 1713TIP3   OH226629   1.549   4.855  13.055 -0.0883 -0.1220  0.0014
 1713TIP3    H126630   1.476   4.879  12.998 -1.6168  1.0740  2.2903
 1713TIP3    H226631   1.508   4.839  13.140  2.4126  1.5555  1.6478
 1714TIP3   OH226632   3.497   3.257   2.688  0.5104 -0.7733 -0.4010
 1714TIP3    H126633   3.469   3.166   2.699  0.3601 -0.5897  0.8575
 1714TIP3    H226634   3.479   3.298   2.773  2.4135 -0.0701 -0.2899
 1715TIP3   OH226635   2.617   6.077   2.184 -0.2069  0.4347 -0.2333
 1715TIP3    H126636   2.580   6.070   2.272  0.3963  0.4448  0.0242
 1715TIP3    H226637   2.665   6.160   2.185 -1.7603  1.3969 -1.1737
 1716TIP3   OH226638   0.068   4.806   5.926  0.0820  0.0874  0.1910
 1716TIP3    H126639  -0.023   4.796   5.956 -0.2765 -0.7760 -1.0619
 1716TIP3    H226640   0.113   4.850   5.998 -0.6124 -2.2099  2.1627
 1717TIP3   OH226641   2.748   5.318  12.422 -0.3591 -0.3169 -0.0375
 1717TIP3    H126642   2.706   5.400  12.395 -0.1718 -0.3930 -0.5684
 1717TIP3    H226643   2.761   5.328  12.517  0.9603  0.8528 -0.3040
 1718TIP3   OH226644   2.845   5.088  12.022 -0.3008 -0.0424 -0.0749
 1718TIP3    H126645   2.934   5.064  12.051 -0.2883  1.0705  0.8783
 1718TIP3    H226646   2.806   5.131  12.097 -2.4316 -2.3012  0.2483
 1719TIP3   OH226647   5.150   6.634   5.390 -0.4331 -0.1233  0.2812
 1719TIP3    H126648   5.098   6.643   5.310  0.7036  2.0524 -0.2903
 1719TIP3    H226649   5.179   6.723   5.410  0.9036 -0.8939  2.0495
 1720TIP3   OH226650   0.312   2.314  10.848  0.3653 -0.3121  0.2908
 1720TIP3    H126651   0.401   2.348  10.863 -0.6310  1.6418  2.3027
 1720TIP3    H226652   0.319   2.221  10.868  2.1092 -0.3426 -0.2689
 1721TIP3   OH226653   4.574   0.152   4.567  0.5890  0.0262 -0.5433
 1721TIP3    H126654   4.617   0.186   4.489  0.2376 -2.4329 -1.9097
 1721TIP3    H226655   4.638   0.092   4.606  0.2937  0.2837  0.3679
 1722TIP3   OH226656   4.029   1.296  13.856 -0.1295  0.7782  0.0755
 1722TIP3    H126657   4.117   1.290  13.821 -0.2680 -0.1458 -0.1290
 1722TIP3    H226658   3.980   1.346  13.790 -0.4807 -1.2600 -1.2740
 1723TIP3   OH226659   5.780   2.536   3.434  0.5132 -0.0950  0.0276
 1723TIP3    H126660   5.739   2.451   3.418 -2.7004  0.5909  3.1805
 1723TIP3    H226661   5.765   2.586   3.354 -0.4252 -1.5003 -0.7148
 1724TIP3   OH226662   1.658   6.710   1.765 -0.1371  0.5406 -0.0312
 1724TIP3    H126663   1.638   6.678   1.852 -1.1731 -1.0838 -0.8213
 1724TIP3    H226664   1.742   6.670   1.743  0.1838  1.0480  0.2538
 1725TIP3   OH226665   6.686   1.934   4.277  0.1999 -0.1635 -0.1258
 1725TIP3    H126666   6.711   1.965   4.364 -1.2348  1.9891 -0.3930
 1725TIP3    H226667   6.754   1.969   4.219 -1.2880  2.5743 -0.3945
 1726TIP3   OH226668   0.216   5.230   0.589  0.2194 -0.1833  0.0237
 1726TIP3    H126669   0.200   5.310   0.640  1.1778  0.6979 -1.0053
 1726TIP3    H226670   0.258   5.171   0.651  0.0636  0.3314  0.6405
 1727TIP3   OH226671   2.395   0.716  13.373 -0.2345 -0.1456  0.1143
 1727TIP3    H126672   2.315   0.663  13.369  0.4329 -1.1316 -0.3043
 1727TIP3    H226673   2.363   0.804  13.395 -1.5843 -0.2028 -1.3843
 1728TIP3   OH226674   4.066   5.264  12.414 -0.3016 -0.5355 -0.2335
 1728TIP3    H126675   4.080   5.340  12.357  1.1793 -0.2308  0.4987
 1728TIP3    H226676   3.998   5.214  12.370 -0.8044  0.8541 -1.0962
 1729TIP3   OH226677   3.438   1.826   4.344  0.2023 -0.0000  0.1660
 1729TIP3    H126678   3.533   1.817   4.349  0.1853 -0.3627 -0.0820
 1729TIP3    H226679   3.410   1.752   4.290 -0.1101  0.7272 -0.7079
 1730TIP3   OH226680   0.637   1.579   3.067  0.5893  0.2671  0.3386
 1730TIP3    H126681   0.577   1.592   3.140 -1.4992  0.0005 -1.2252
 1730TIP3    H226682   0.655   1.485   3.068 -1.7617 -0.2734 -1.1046
 1731TIP3   OH226683   1.203   1.292  15.717 -0.6628 -0.3513  1.0154
 1731TIP3    H126684   1.275   1.249  15.670 -2.3614 -1.6210 -0.5982
 1731TIP3    H226685   1.137   1.223  15.729 -2.8013  1.3409 -0.1534
 1732TIP3   OH226686   1.871   4.889   2.303 -0.3405  0.6523  0.1395
 1732TIP3    H126687   1.779   4.884   2.274 -0.8636 -0.7889  1.8947
 1732TIP3    H226688   1.914   4.816   2.259 -0.6951 -0.3505  1.4018
 1733TIP3   OH226689   1.659   2.103  16.700 -0.3267  0.0103  0.0031
 1733TIP3    H126690   1.718   2.030  16.679  0.0759  0.2346  0.3364
 1733TIP3    H226691   1.630   2.136  16.615 -0.7539 -0.7255 -0.1520
 1734TIP3   OH226692   5.794   6.697   2.766  0.3779  0.1353 -0.3488
 1734TIP3    H126693   5.781   6.613   2.810 -0.6049  0.2792 -0.3492
 1734TIP3    H226694   5.885   6.694   2.735  0.1552 -1.2148 -0.9584
 1735TIP3   OH226695   1.242   1.726   1.354  0.3876  0.1595  0.3655
 1735TIP3    H126696   1.181   1.676   1.299  1.4279 -2.3237  1.3021
 1735TIP3    H226697   1.327   1.714   1.311  1.3141 -2.2232  2.5828
 1736TIP3   OH226698   0.612   5.855  16.541  0.4603 -0.1530  0.0915
 1736TIP3    H126699   0.627   5.936  16.493  1.2883  1.9211  3.4517
 1736TIP3    H226700   0.518   5.855  16.560  0.2409 -0.6641 -0.9409
 1737TIP3   OH226701   0.089   6.803  12.773  0.0069  0.0459 -0.1444
 1737TIP3    H126702   0.104   6.764  12.859 -2.3608  0.5370  0.5799
 1737TIP3    H226703   0.033   6.740  12.728  0.8965 -0.0154 -1.1987
 1738TIP3   OH226704   2.100   5.185   0.477  0.1856 -0.0407  0.0164
 1738TIP3    H126705   2.095   5.240   0.398 -0.4932  0.2567  0.2558
 1738TIP3    H226706   2.185   5.142   0.471  0.0774 -0.1512 -0.9677
 1739TIP3   OH226707   6.027   2.671  16.514 -0.2508 -0.2411 -0.6361
 1739TIP3    H126708   6.007   2.578  16.511  0.8421 -0.5148 -0.1432
 1739TIP3    H226709   5.999   2.705  16.429 -0.6249 -1.0237 -0.8356
 1740TIP3   OH226710   0.500   3.024   5.801 -0.0069  0.1735  0.1897
 1740TIP3    H126711   0.413   3.057   5.823  0.3108  1.6918 -0.7171
 1740TIP3    H226712   0.541   3.009   5.886 -0.4245  1.4540  0.6384
 1741TIP3   OH226713   1.991   4.156  12.262  1.0536 -0.1409  0.4419
 1741TIP3    H126714   1.913   4.211  12.261  0.0010 -1.5685  0.3852
 1741TIP3    H226715   2.032   4.170  12.177 -0.6362 -1.3769 -0.6231
 1742TIP3   OH226716   4.851   3.501  11.172 -0.4986 -0.0824 -0.0410
 1742TIP3    H126717   4.787   3.458  11.229  1.3478 -0.1802  2.0817
 1742TIP3    H226718   4.816   3.590  11.161 -1.4826 -0.4155  0.2545
 1743TIP3   OH226719   4.991   4.664  17.090 -0.2301 -0.5507 -0.3025
 1743TIP3    H126720   5.071   4.614  17.105  0.7964  1.2063  0.4409
 1743TIP3    H226721   4.942   4.655  17.172 -0.3815 -0.9154 -0.4331
 1744TIP3   OH226722   4.555   2.864   4.678 -0.6615 -0.1856  0.0104
 1744TIP3    H126723   4.527   2.839   4.766 -0.2623 -0.4965  0.0497
 1744TIP3    H226724   4.502   2.810   4.619 -1.3570  0.4439  0.0340
 1745TIP3   OH226725   6.068   6.206   4.820  0.1412  0.1952 -1.1761
 1745TIP3    H126726   6.057   6.111   4.822  0.6129  0.0470 -3.2942
 1745TIP3    H226727   6.063   6.229   4.728  0.9923  2.1145 -0.7978
 1746TIP3   OH226728   4.296   3.647   3.924 -0.3574 -0.7194 -0.0685
 1746TIP3    H126729   4.364   3.711   3.945 -0.7220 -0.3222 -0.0917
 1746TIP3    H226730   4.341   3.582   3.871  0.3426 -1.2021  1.0716
 1747TIP3   OH226731   5.799   1.409  15.729  0.6231  0.1598 -0.3527
 1747TIP3    H126732   5.843   1.324  15.725  0.2267 -0.0111 -2.7304
 1747TIP3    H226733   5.869   1.471  15.751  1.4026 -0.4903 -0.9328
 1748TIP3   OH226734   1.952   4.169   1.793  0.3404  0.2647 -0.5504
 1748TIP3    H126735   1.869   4.160   1.747  0.2481  0.6903 -0.4651
 1748TIP3    H226736   1.983   4.257   1.773  0.5823  0.2490 -0.2700
 1749TIP3   OH226737   0.236   5.891   2.907 -0.4639 -0.0273  0.1589
 1749TIP3    H126738   0.174   5.946   2.955  1.3045  1.4726  0.8476
 1749TIP3    H226739   0.309   5.950   2.885  0.9682 -1.8221 -0.1494
 1750TIP3   OH226740   3.849   5.579  15.814  0.0880  0.1112 -0.5537
 1750TIP3    H126741   3.901   5.547  15.888 -1.8013 -1.0436  0.3457
 1750TIP3    H226742   3.780   5.632  15.854 -0.3973  0.2807 -1.5826
 1751TIP3   OH226743   6.014   2.596  12.678  0.2218  0.3959 -0.1183
 1751TIP3    H126744   6.068   2.670  12.650 -0.3460  0.4952 -0.9984
 1751TIP3    H226745   6.029   2.589  12.772  1.4470  0.6761 -0.2798
 1752TIP3   OH226746   0.134   6.777  11.858 -0.3924  0.3539  0.4818
 1752TIP3    H126747   0.222   6.750  11.832 -1.0988 -0.2479 -1.4384
 1752TIP3    H226748   0.085   6.695  11.862 -1.0498  0.7583  0.8614
 1753TIP3   OH226749   3.493   3.335  15.518  0.4850 -0.3661 -0.0987
 1753TIP3    H126750   3.502   3.280  15.596 -1.8120 -1.2693 -0.3814
 1753TIP3    H226751   3.501   3.274  15.444  1.2228  0.2545 -0.5587
 1754TIP3   OH226752   3.785   5.289   1.238 -0.5969 -0.2933 -0.1804
 1754TIP3    H126753   3.719   5.222   1.224 -1.4201  0.4626 -0.0053
 1754TIP3    H226754   3.818   5.273   1.326 -2.5129  0.9592  0.8286
 1755TIP3   OH226755   4.395   4.803   4.477 -0.1856  0.1715  0.4086
 1755TIP3    H126756   4.355   4.750   4.408 -0.1235  0.0943  0.4329
 1755TIP3    H226757   4.341   4.786   4.554 -1.0563  1.2450  0.0737
 1756TIP3   OH226758   5.576   4.791  14.547  0.1924 -0.0088 -0.5564
 1756TIP3    H126759   5.490   4.778  14.507  0.4493 -0.8066 -0.8777
 1756TIP3    H226760   5.636   4.740  14.493  0.6033 -0.8537  0.6417
 1757TIP3   OH226761   1.382   2.806   4.799 -0.1267  0.4440  0.2996
 1757TIP3    H126762   1.471   2.842   4.805 -0.0772  0.1552  1.4584
 1757TIP3    H226763   1.394   2.712   4.815 -0.2054 -0.2472 -2.9474
 1758TIP3   OH226764   4.943   5.705  14.334  0.1368 -0.4065 -0.0729
 1758TIP3    H126765   4.883   5.758  14.387  0.5102  0.6538 -0.6775
 1758TIP3    H226766   4.987   5.769  14.277  0.6637 -1.3669 -0.7631
 1759TIP3   OH226767   0.314   3.137  13.501  0.0316 -0.5564  0.2222
 1759TIP3    H126768   0.279   3.147  13.590 -0.4222  1.2045 -0.1238
 1759TIP3    H226769   0.239   3.115  13.447 -0.3503  1.5931 -0.2348
 1760TIP3   OH226770   5.082   4.178   6.162  0.1961 -0.9220  0.1699
 1760TIP3    H126771   5.007   4.215   6.115  0.9926  0.5264  0.0019
 1760TIP3    H226772   5.048   4.159   6.250  0.1960  2.0587  0.9099
 1761TIP3   OH226773   5.733   0.871   1.437  0.3376 -0.3516  0.0230
 1761TIP3    H126774   5.657   0.863   1.494  1.9618  1.3325  2.7016
 1761TIP3    H226775   5.793   0.802   1.467  0.1546 -1.2867 -1.6536
 1762TIP3   OH226776   5.621   3.334  15.329  0.0743 -0.8553  0.0122
 1762TIP3    H126777   5.563   3.334  15.254  0.3382 -2.1893 -0.2078
 1762TIP3    H226778   5.670   3.252  15.323  1.7935  0.0796  0.3303
 1763TIP3   OH226779   5.589   5.485   2.394  0.5328  0.5496 -0.1476
 1763TIP3    H126780   5.529   5.422   2.432  1.5371 -0.7657 -0.6753
 1763TIP3    H226781   5.536   5.534   2.331 -0.2371  0.1838  0.2036
 1764TIP3   OH226782   1.553   0.809   5.230  0.0170 -0.6929 -0.1188
 1764TIP3    H126783   1.642   0.824   5.200  0.9494 -0.6875  2.4289
 1764TIP3    H226784   1.512   0.896   5.229  1.0376 -0.1424  1.5245
 1765TIP3   OH226785   6.187   4.672  13.802 -0.4965  0.3242  0.3988
 1765TIP3    H126786   6.223   4.663  13.890 -1.2687 -0.5385  0.6474
 1765TIP3    H226787   6.092   4.671  13.815 -0.6187  0.4199 -0.4237
 1766TIP3   OH226788   5.495   4.634  13.911 -0.6430  0.0715  0.1758
 1766TIP3    H126789   5.436   4.559  13.905 -0.8305  0.0134  1.9726
 1766TIP3    H226790   5.582   4.598  13.890 -0.9556 -0.2917 -0.5075
 1767TIP3   OH226791   4.077   4.237   5.650  0.4518  0.3546 -0.4309
 1767TIP3    H126792   3.998   4.265   5.696  1.0054 -1.5167  1.8614
 1767TIP3    H226793   4.086   4.299   5.578 -2.1970  1.5866  0.1713
 1768TIP3   OH226794   0.330   2.044   0.206  0.1135  0.2239 -0.2463
 1768TIP3    H126795   0.296   2.134   0.203  1.1824  0.6478  0.0381
 1768TIP3    H226796   0.390   2.043   0.280  0.2599 -0.6835 -0.3666
 1769TIP3   OH226797   2.603   5.209  15.269  0.0621 -0.4104  0.6103
 1769TIP3    H126798   2.566   5.155  15.338 -1.7913  0.5840  0.4642
 1769TIP3    H226799   2.538   5.279  15.256  2.6509  2.3330  1.3243
 1770TIP3   OH226800   3.774   2.195   0.042 -0.1525  0.2761  0.0879
 1770TIP3    H126801   3.756   2.135  -0.030 -3.6377  0.9145  0.2824
 1770TIP3    H226802   3.813   2.272  -0.000  1.4814 -0.8213 -0.5244
 1771TIP3   OH226803   0.782   1.175   0.058 -0.2948  0.0674 -0.0377
 1771TIP3    H126804   0.727   1.099   0.039  0.6039 -0.5482 -0.2778
 1771TIP3    H226805   0.836   1.184  -0.021 -1.0153  1.5246 -0.3866
 1772TIP3   OH226806   2.496   0.493  11.798 -0.0269 -0.0181  0.6031
 1772TIP3    H126807   2.486   0.588  11.798  0.4478  0.0549  1.9189
 1772TIP3    H226808   2.575   0.477  11.849  0.5906 -1.0731 -0.6239
 1773TIP3   OH226809   1.673   6.051  11.267 -0.2868 -0.7215  0.9066
 1773TIP3    H126810   1.629   6.050  11.352 -0.4668  0.0810  0.8238
 1773TIP3    H226811   1.610   6.091  11.207 -0.3670 -1.7391  0.2682
 1774TIP3   OH226812   5.916   0.696  13.964 -0.2265  0.2133 -0.4667
 1774TIP3    H126813   5.837   0.749  13.949  0.1571  1.1096  0.5409
 1774TIP3    H226814   5.901   0.616  13.915 -0.3685  1.6720 -2.9347
 1775TIP3   OH226815   4.220   6.561   2.134 -0.1142 -0.4541  0.0215
 1775TIP3    H126816   4.215   6.544   2.228 -0.1630 -0.4702  0.0155
 1775TIP3    H226817   4.238   6.475   2.095  2.3381 -0.1050  0.2253
 1776TIP3   OH226818   0.728   4.023  13.680  0.3639 -0.0636  0.0249
 1776TIP3    H126819   0.662   4.015  13.749 -0.8781 -0.9448 -1.2078
 1776TIP3    H226820   0.701   3.960  13.614  2.6654 -0.6871 -0.3899
 1777TIP3   OH226821   5.120   0.367   5.061 -0.1240  0.1138 -0.5123
 1777TIP3    H126822   5.110   0.307   5.135  0.9876 -0.7944 -1.0541
 1777TIP3    H226823   5.121   0.309   4.984  1.6119  0.7200 -1.0034
 1778TIP3   OH226824   1.829   5.393  11.506 -0.0971 -0.4942  0.0352
 1778TIP3    H126825   1.878   5.373  11.427 -0.4631  2.5965 -1.0828
 1778TIP3    H226826   1.755   5.331  11.504 -0.5843  0.0663 -2.5473
 1779TIP3   OH226827   1.054   2.591   1.526  0.6846 -0.0731  0.4812
 1779TIP3    H126828   1.133   2.536   1.527  0.0901 -0.9534  1.2959
 1779TIP3    H226829   1.000   2.553   1.457  0.3404 -0.4268  0.9393
 1780TIP3   OH226830   3.744   2.814  14.729  0.5439 -0.2642 -0.0473
 1780TIP3    H126831   3.721   2.852  14.644  0.5820 -0.4185 -0.1280
 1780TIP3    H226832   3.804   2.742  14.707  2.6224  1.2991  0.2786
 1781TIP3   OH226833   1.163   3.997   2.748 -0.0552  0.1219 -0.5599
 1781TIP3    H126834   1.228   4.065   2.763 -0.2397  0.0265  0.8366
 1781TIP3    H226835   1.192   3.924   2.803 -2.0325  0.5581  1.1795
 1782TIP3   OH226836   5.140   5.045  11.416  0.5057 -0.8787 -0.6584
 1782TIP3    H126837   5.204   4.977  11.436  0.5666 -0.2747  1.4847
 1782TIP3    H226838   5.188   5.107  11.361  1.1941 -1.3522 -0.6055
 1783TIP3   OH226839   4.664   2.915   1.730 -0.2760  0.4327 -0.3963
 1783TIP3    H126840   4.724   2.981   1.764 -1.1158  0.5633  0.9187
 1783TIP3    H226841   4.702   2.831   1.756  0.8791  0.3473 -2.2149
 1784TIP3   OH226842   1.780   2.965   6.512  0.5549  0.5065 -0.0943
 1784TIP3    H126843   1.701   2.970   6.458  0.1830 -1.1983  0.2191
 1784TIP3    H226844   1.809   3.056   6.522 -0.6026  1.0365 -1.3264
 1785TIP3   OH226845   6.283   4.685   2.694 -0.6013 -0.0285  0.3210
 1785TIP3    H126846   6.357   4.733   2.656  0.3541 -1.0868  0.7682
 1785TIP3    H226847   6.319   4.644   2.773 -1.6800 -0.5354  0.5733
 1786TIP3   OH226848   0.219   5.063  12.481  0.7768  0.2125 -0.5142
 1786TIP3    H126849   0.292   5.105  12.436  0.7525 -0.5995 -1.3337
 1786TIP3    H226850   0.141   5.095  12.434  0.6390  0.5906 -0.0379
 1787TIP3   OH226851   6.744   2.329   1.936 -0.1601  0.3870 -0.1465
 1787TIP3    H126852   6.713   2.241   1.953  0.1414  0.0101 -1.4414
 1787TIP3    H226853   6.840   2.321   1.937 -0.1147  0.2303 -2.3956
 1788TIP3   OH226854   4.177   1.479   2.153  0.4449  0.2780  0.3372
 1788TIP3    H126855   4.104   1.421   2.173  0.9144 -1.6553 -2.7947
 1788TIP3    H226856   4.253   1.421   2.144  1.7723  1.8685  0.7472
 1789TIP3   OH226857   5.424   2.099   2.202 -0.5338  0.0157 -0.9111
 1789TIP3    H126858   5.393   2.067   2.286 -1.1237  0.5504 -0.9174
 1789TIP3    H226859   5.512   2.131   2.220 -0.8492  0.6117 -0.3727
 1790TIP3   OH226860   6.302   2.690  11.651 -0.2036 -0.4904  0.6764
 1790TIP3    H126861   6.380   2.746  11.654 -1.3496  1.1735  0.9358
 1790TIP3    H226862   6.336   2.601  11.659  1.5828  0.2432  2.0415
 1791TIP3   OH226863   5.835   5.171   2.823 -0.0090  0.7991 -0.3851
 1791TIP3    H126864   5.911   5.220   2.791  0.2452  0.1590 -0.7747
 1791TIP3    H226865   5.850   5.082   2.793  0.0852  0.2296  1.2407
 1792TIP3   OH226866   2.073   5.076  15.617 -0.1186  0.1320 -0.4921
 1792TIP3    H126867   2.099   5.000  15.670  1.3183  1.1997  0.4139
 1792TIP3    H226868   2.022   5.130  15.677  0.1908  0.6139 -0.6615
 1793TIP3   OH226869   6.786   2.174   3.468 -0.2100 -0.0217  0.6120
 1793TIP3    H126870   6.777   2.125   3.550  2.0600  0.1780  1.0437
 1793TIP3    H226871   6.811   2.262   3.496  0.5805  0.0493 -0.3049
 1794TIP3   OH226872   0.825   4.946   2.561 -0.4617 -0.2783  0.5347
 1794TIP3    H126873   0.861   4.859   2.581  0.4573 -0.5156 -1.8475
 1794TIP3    H226874   0.891   5.007   2.592 -0.3650 -0.4944  0.7632
 1795TIP3   OH226875   1.754   1.096   0.019  0.2386 -0.2800 -0.0057
 1795TIP3    H126876   1.676   1.080  -0.034 -1.7190 -0.0285  2.6023
 1795TIP3    H226877   1.760   1.020   0.076  2.3271 -0.5774 -0.5421
 1796TIP3   OH226878   6.656   5.625  13.017  0.0459  0.7256 -0.2129
 1796TIP3    H126879   6.642   5.643  12.924 -0.1166  1.0057 -0.1375
 1796TIP3    H226880   6.691   5.707  13.052 -0.1483  0.7083  0.0251
 1797TIP3   OH226881   1.937   2.378   0.958 -0.5879 -0.2175 -0.3775
 1797TIP3    H126882   1.924   2.407   1.048 -1.3496  2.7098 -1.3254
 1797TIP3    H226883   1.990   2.448   0.918  1.0383 -2.1753 -1.8636
 1798TIP3   OH226884   1.233   2.179  12.577  0.7337  0.6648 -0.0619
 1798TIP3    H126885   1.321   2.171  12.614  1.2008  1.7085 -0.8632
 1798TIP3    H226886   1.247   2.177  12.482 -0.2957 -0.7805 -0.2037
 1799TIP3   OH226887   5.665   5.526   5.596  0.1155 -0.3550 -0.0136
 1799TIP3    H126888   5.575   5.497   5.581 -0.0203 -1.5121  2.4923
 1799TIP3    H226889   5.662   5.568   5.682  1.9588 -0.3653  0.0837
 1800TIP3   OH226890   3.855   5.489   1.524  0.3222 -0.3644 -0.2485
 1800TIP3    H126891   3.836   5.494   1.618  0.1030  2.0569 -0.3408
 1800TIP3    H226892   3.773   5.459   1.485 -0.0848  0.0747  0.2427
 1801TIP3   OH226893   1.902   6.516   1.683  0.0209 -0.0035 -0.2103
 1801TIP3    H126894   1.932   6.494   1.595 -1.2111 -1.5580 -0.2713
 1801TIP3    H226895   1.823   6.464   1.696 -2.7508  3.8435 -0.0162
 1802TIP3   OH226896   1.562   3.721  13.631  0.2011 -0.3210  0.1646
 1802TIP3    H126897   1.547   3.689  13.542 -3.2287 -1.7850  1.1119
 1802TIP3    H226898   1.627   3.661  13.667 -1.7239 -2.6742 -0.0105
 1803TIP3   OH226899   3.980   1.392   6.415 -0.2329  0.2376 -0.8148
 1803TIP3    H126900   4.042   1.358   6.350 -0.0635 -0.4622 -0.2975
 1803TIP3    H226901   3.894   1.371   6.379 -0.3419  3.0757 -2.5968
 1804TIP3   OH226902   4.728   2.252   4.280  0.0325  0.3456 -0.0465
 1804TIP3    H126903   4.813   2.209   4.266 -0.6006 -0.2225 -2.6629
 1804TIP3    H226904   4.747   2.345   4.269  0.2667  0.1942 -1.0134
 1805TIP3   OH226905   5.616   4.668  13.115  0.1330  0.6082 -0.5797
 1805TIP3    H126906   5.585   4.757  13.132 -1.7719  0.2059 -1.6634
 1805TIP3    H226907   5.602   4.655  13.021 -0.5609 -1.1442 -0.2682
 1806TIP3   OH226908   1.608   2.489   1.770 -0.1435  0.3817  0.2769
 1806TIP3    H126909   1.522   2.504   1.808  0.0245  1.0889  0.3810
 1806TIP3    H226910   1.609   2.395   1.750 -0.5064  0.1409  1.3454
 1807TIP3   OH226911   4.949   6.723   2.662 -0.1849  0.0341  0.1277
 1807TIP3    H126912   4.909   6.750   2.745 -0.9294 -0.2279 -0.1344
 1807TIP3    H226913   4.923   6.792   2.600 -1.4107 -0.8313 -0.3588
 1808TIP3   OH226914   3.920   1.879   0.090 -0.1103  0.1930  0.0053
 1808TIP3    H126915   3.982   1.948   0.065 -0.7437 -0.0074 -2.3543
 1808TIP3    H226916   3.916   1.884   0.186  0.5298  2.8441 -0.0207
 1809TIP3   OH226917   6.835   1.408  15.217 -0.1305 -0.3360 -0.5185
 1809TIP3    H126918   6.770   1.343  15.191  0.1068 -0.5502 -0.5708
 1809TIP3    H226919   6.918   1.362  15.215 -0.0892 -0.3416  0.5373
 1810TIP3   OH226920   4.642   3.460  16.777 -0.3684 -0.0613  0.4393
 1810TIP3    H126921   4.588   3.536  16.754  0.3206  0.4596  0.5257
 1810TIP3    H226922   4.726   3.476  16.734 -0.4146 -1.0836 -0.0672
 1811TIP3   OH226923   3.045   5.569   0.416 -1.0335 -0.4774 -0.7316
 1811TIP3    H126924   3.113   5.507   0.389  0.7397  0.7322  0.6306
 1811TIP3    H226925   3.092   5.652   0.428 -2.6047  0.2556  0.9380
 1812TIP3   OH226926   0.360   5.102  11.902  0.4049  0.4816  0.1700
 1812TIP3    H126927   0.368   5.008  11.891  0.7109  0.0935  3.0911
 1812TIP3    H226928   0.352   5.136  11.812 -0.4155 -2.3333 -0.9197
 1813TIP3   OH226929   3.923   5.820  12.315 -0.0650  0.0757  0.3448
 1813TIP3    H126930   3.876   5.886  12.264  2.1775  0.3963 -1.5134
 1813TIP3    H226931   3.875   5.739  12.300 -0.9459  0.6744 -0.1282
 1814TIP3   OH226932   5.416   3.115   6.457 -0.2033 -0.1425 -0.1925
 1814TIP3    H126933   5.391   3.060   6.531  0.1090 -0.4553 -0.3183
 1814TIP3    H226934   5.501   3.081   6.429 -0.1695  0.1819 -0.4888
 1815TIP3   OH226935   0.527   2.804   3.220 -0.1811 -0.1271 -0.1012
 1815TIP3    H126936   0.592   2.871   3.195  0.7123 -0.5498  1.0493
 1815TIP3    H226937   0.444   2.841   3.191  0.3777  1.1716 -0.1234
 1816TIP3   OH226938   2.425   2.683  11.099  0.9199  0.0637  0.3160
 1816TIP3    H126939   2.478   2.623  11.046 -0.7679  0.4160 -1.9087
 1816TIP3    H226940   2.337   2.645  11.098  0.5720  0.7214  1.9420
 1817TIP3   OH226941   6.455   2.030   1.773 -0.4140  0.2201  0.3760
 1817TIP3    H126942   6.511   1.970   1.824 -1.1121 -0.1243  0.7542
 1817TIP3    H226943   6.455   1.992   1.684 -1.0813 -0.5270  0.6769
 1818TIP3   OH226944   4.164   1.489   6.016 -0.2850 -0.5655 -0.5638
 1818TIP3    H126945   4.082   1.440   6.012 -1.3471  1.1744 -1.2403
 1818TIP3    H226946   4.143   1.567   6.066  1.0434 -0.2297 -0.4961
 1819TIP3   OH226947   2.991   3.851  12.642 -0.6051 -0.3615  0.1011
 1819TIP3    H126948   2.901   3.819  12.632 -1.1722  1.5666 -1.9043
 1819TIP3    H226949   2.981   3.946  12.653  1.1549 -0.2836  1.5247
 1820TIP3   OH226950   0.947   4.780  13.390 -0.1633  0.6608  0.3787
 1820TIP3    H126951   1.028   4.791  13.339 -1.1012 -0.2768 -1.4103
 1820TIP3    H226952   0.894   4.857  13.366 -0.2528  0.6899  0.6695
 1821TIP3   OH226953   6.282   4.538   4.439  0.0322  0.4765  0.4665
 1821TIP3    H126954   6.355   4.495   4.395  0.6094  2.2022 -0.3490
 1821TIP3    H226955   6.317   4.624   4.465 -1.8143  1.5144 -0.3298
 1822TIP3   OH226956   1.416   4.176  15.172 -0.2450 -0.7825  0.4554
 1822TIP3    H126957   1.439   4.161  15.264 -1.1897  0.4648  0.9189
 1822TIP3    H226958   1.454   4.261  15.151  0.1933 -1.1839 -0.4005
 1823TIP3   OH226959   3.727   5.868  14.421 -0.0270 -0.4175 -0.3464
 1823TIP3    H126960   3.703   5.955  14.388  0.3686 -0.0439  0.3184
 1823TIP3    H226961   3.727   5.812  14.344 -0.6156  0.1025 -0.7341
 1824TIP3   OH226962   4.220   5.765  12.996 -0.0861 -0.7254 -0.1181
 1824TIP3    H126963   4.267   5.714  13.061  0.0843  1.1458  1.3069
 1824TIP3    H226964   4.278   5.837  12.975 -1.8445  1.1128  0.9565
 1825TIP3   OH226965   2.320   1.956   2.810  0.3565 -0.2441 -0.3341
 1825TIP3    H126966   2.363   2.038   2.833  0.4323  0.2541 -2.1168
 1825TIP3    H226967   2.246   1.950   2.871  0.4469  1.0646 -0.0693
 1826TIP3   OH226968   4.580   0.749  15.338  0.1475 -0.1018  0.1615
 1826TIP3    H126969   4.650   0.707  15.389  0.3443 -0.8838 -0.7202
 1826TIP3    H226970   4.623   0.821  15.293  0.2147 -0.1027  0.2234
 1827TIP3   OH226971   0.205   5.749  16.644  1.0970  0.3756  0.2873
 1827TIP3    H126972   0.113   5.767  16.628  1.1925  1.0449  0.4786
 1827TIP3    H226973   0.225   5.795  16.726  1.7718  0.8168 -0.1153
 1828TIP3   OH226974   3.946   4.925  14.085  0.0506 -0.0138  0.1891
 1828TIP3    H126975   3.958   4.883  14.171 -1.0909 -0.9086 -0.0498
 1828TIP3    H226976   4.032   4.959  14.063  1.1559 -2.4602  0.3246
 1829TIP3   OH226977   4.840   2.146  16.850 -0.8274 -0.0386  0.2807
 1829TIP3    H126978   4.856   2.201  16.926  1.5580 -0.0015 -0.1696
 1829TIP3    H226979   4.801   2.204  16.785 -1.9299  0.1631  1.0918
 1830TIP3   OH226980   6.699   4.403   0.102  0.0538 -0.3905  0.1126
 1830TIP3    H126981   6.632   4.392   0.169 -1.7392  0.8582 -1.3652
 1830TIP3    H226982   6.713   4.497   0.097 -1.6916 -0.1553 -2.8516
 1831TIP3   OH226983   5.890   5.322   0.877  0.0620  0.2194 -0.3324
 1831TIP3    H126984   5.807   5.285   0.849  0.5438 -1.1351 -0.0411
 1831TIP3    H226985   5.866   5.398   0.931 -0.9902 -0.3750  0.0555
 1832TIP3   OH226986   1.044   1.734   0.800 -0.0414 -0.3802  0.2734
 1832TIP3    H126987   1.041   1.793   0.876  1.3204 -0.1983  0.2134
 1832TIP3    H226988   1.080   1.653   0.835 -1.0985 -0.9143  0.1722
 1833TIP3   OH226989   0.461   4.834  12.932  0.6228 -0.2001 -0.1637
 1833TIP3    H126990   0.431   4.902  12.992  1.4871 -1.7923  2.2218
 1833TIP3    H226991   0.452   4.873  12.845 -1.9931  1.7593  0.8446
 1834TIP3   OH226992   6.702   6.676   5.389 -0.5647 -0.5878 -0.0757
 1834TIP3    H126993   6.680   6.596   5.437 -1.1156  0.4215  1.4311
 1834TIP3    H226994   6.622   6.728   5.393  0.4083  0.9046  0.7817
 1835TIP3   OH226995   0.108   0.293  12.301 -0.1445  0.0543  0.1012
 1835TIP3    H126996   0.048   0.222  12.323 -2.3084  0.9265 -2.5000
 1835TIP3    H226997   0.134   0.275  12.210  2.0483  0.7896  0.5185
 1836TIP3   OH226998   5.089   2.272  15.565 -0.0717 -0.4472 -0.0620
 1836TIP3    H126999   5.167   2.217  15.557 -0.4289 -0.7827 -1.6087
 1836TIP3    H227000   5.095   2.333  15.492 -0.8296  0.0819  0.3057
 1837TIP3   OH227001   4.831   1.434   2.355  0.3595 -0.5833  0.1801
 1837TIP3    H127002   4.830   1.353   2.304 -1.1628 -0.8513  0.5903
 1837TIP3    H227003   4.741   1.444   2.387  0.3884  1.5099 -0.2321
 1838TIP3   OH227004   5.214   4.034   4.045  0.2473  0.2803 -0.6811
 1838TIP3    H127005   5.156   3.963   4.073 -2.1718  2.0405 -0.8727
 1838TIP3    H227006   5.266   4.054   4.122 -0.6125 -0.2460  0.0608
 1839TIP3   OH227007   5.391   5.756  11.517  0.3035 -0.2264 -0.1015
 1839TIP3    H127008   5.312   5.710  11.546  0.2717 -0.6015 -0.7603
 1839TIP3    H227009   5.457   5.734  11.583  0.0622 -0.5391  0.0418
 1840TIP3   OH227010   2.876   4.039   1.337 -0.0287 -0.2236 -0.5378
 1840TIP3    H127011   2.836   4.118   1.299 -3.3297 -1.9603 -1.1005
 1840TIP3    H227012   2.814   4.011   1.403  2.3850 -0.9941  1.5408
 1841TIP3   OH227013   3.061   3.465  15.857  0.1000  0.1788  0.3367
 1841TIP3    H127014   2.993   3.528  15.834 -0.3544  0.1235  1.4800
 1841TIP3    H227015   3.143   3.505  15.827 -0.4646  0.0303 -1.4825
 1842TIP3   OH227016   2.379   3.505  10.748  0.3694 -0.2935 -0.4735
 1842TIP3    H127017   2.356   3.430  10.694 -1.9975 -0.1418  0.2244
 1842TIP3    H227018   2.301   3.561  10.746  0.3083 -0.0994  2.7715
 1843TIP3   OH227019   6.451   5.829  15.442 -0.0507  0.4909 -0.1396
 1843TIP3    H127020   6.361   5.837  15.472  0.2620  1.7995  0.5172
 1843TIP3    H227021   6.477   5.741  15.469 -1.8149 -0.8434 -2.3766
 1844TIP3   OH227022   3.105   1.095  13.316  0.3719 -0.1926  0.3887
 1844TIP3    H127023   3.094   1.115  13.223 -0.1597 -1.3775  0.1775
 1844TIP3    H227024   3.151   1.011  13.317  0.3420 -0.2055  1.2056
 1845TIP3   OH227025   5.727   1.404  12.500 -0.8164 -0.3483  0.3473
 1845TIP3    H127026   5.726   1.324  12.552 -0.7875 -0.8092 -0.3530
 1845TIP3    H227027   5.636   1.418  12.476 -0.6663 -0.8852 -0.5933
 1846TIP3   OH227028   4.957   2.873  15.395  0.1124  0.0212  0.9124
 1846TIP3    H127029   4.877   2.879  15.448 -0.1259 -3.4146  1.1330
 1846TIP3    H227030   4.931   2.906  15.309 -1.1576  0.2040  1.3379
 1847TIP3   OH227031   3.695   1.425  16.911  0.6312  0.3338 -0.0344
 1847TIP3    H127032   3.740   1.355  16.864 -0.5701  0.1160 -0.9107
 1847TIP3    H227033   3.757   1.453  16.977  2.4818  0.7616 -1.8380
 1848TIP3   OH227034   0.695   1.528  11.885  0.2101 -0.9242 -0.2812
 1848TIP3    H127035   0.647   1.586  11.825  1.4939 -0.2111 -0.6450
 1848TIP3    H227036   0.633   1.513  11.957 -0.1162  1.0983 -0.0602
 1849TIP3   OH227037   4.260   6.362  13.243  0.4933 -0.0794 -0.2320
 1849TIP3    H127038   4.328   6.349  13.177  0.4334 -0.1843 -0.2731
 1849TIP3    H227039   4.297   6.428  13.302 -0.2495  1.5626 -1.4933
 1850TIP3   OH227040   5.319   5.457   4.491 -0.3526  0.1086  0.1165
 1850TIP3    H127041   5.228   5.457   4.523  0.1984  0.1314  1.8014
 1850TIP3    H227042   5.323   5.532   4.432 -1.1529  0.7919  0.8952
 1851TIP3   OH227043   5.584   5.174  11.439 -0.7604 -0.0193  0.0150
 1851TIP3    H127044   5.620   5.129  11.362  0.1703  0.7358 -0.0076
 1851TIP3    H227045   5.492   5.151  11.439 -0.3431 -1.8426 -0.0624
 1852TIP3   OH227046   3.878   4.631   0.854  0.4847  0.4649  0.3491
 1852TIP3    H127047   3.906   4.587   0.773 -1.5858  0.2933 -0.3398
 1852TIP3    H227048   3.901   4.723   0.839  0.0040  0.4626 -0.5345
 1853TIP3   OH227049   4.326   0.447  15.843  0.0811 -0.6581 -0.1887
 1853TIP3    H127050   4.350   0.387  15.913 -1.6649  0.3660  1.3791
 1853TIP3    H227051   4.389   0.429  15.773  2.0778 -1.5169  1.7273
 1854TIP3   OH227052   4.856   3.503  13.711  0.5649  0.4222  0.1549
 1854TIP3    H127053   4.816   3.537  13.791 -2.1789  0.1000 -0.9916
 1854TIP3    H227054   4.845   3.573  13.647  0.7733 -0.1484 -0.5116
 1855TIP3   OH227055   2.514   6.156  10.821  0.9913  0.3624 -0.3052
 1855TIP3    H127056   2.428   6.194  10.833  0.5587 -0.2272 -1.4510
 1855TIP3    H227057   2.502   6.088  10.754  2.0852 -0.5615  0.3821
 1856TIP3   OH227058   0.164   4.377   5.766 -0.0582 -0.1153 -0.1238
 1856TIP3    H127059   0.179   4.470   5.784 -0.1676  0.0192 -0.7162
 1856TIP3    H227060   0.251   4.337   5.770  0.1532  0.2308 -1.1099
 1857TIP3   OH227061   2.163   5.350   0.884 -0.4249 -0.1155 -0.1833
 1857TIP3    H127062   2.091   5.413   0.882  0.4616  0.9993  1.6798
 1857TIP3    H227063   2.238   5.398   0.918  0.4563 -1.9925  0.6952
 1858TIP3   OH227064   6.081   3.427  13.449 -0.1473  0.3725  0.1628
 1858TIP3    H127065   6.142   3.384  13.508  0.4254 -0.6965 -1.1503
 1858TIP3    H227066   6.001   3.439  13.501  1.0905  1.6752  1.8636
 1859TIP3   OH227067   4.588   5.813   2.377  0.1374 -0.5807 -0.3281
 1859TIP3    H127068   4.663   5.813   2.318 -0.1468 -1.7713 -0.7244
 1859TIP3    H227069   4.523   5.759   2.332 -0.0822 -1.5264  1.0893
 1860TIP3   OH227070   3.920   5.544   5.239  0.1047 -0.4209 -0.4780
 1860TIP3    H127071   3.914   5.591   5.322 -1.4454 -0.2619 -0.6600
 1860TIP3    H227072   3.842   5.571   5.190  0.3325 -1.4928 -1.4720
 1861TIP3   OH227073   6.758   6.279  14.344 -0.4754 -0.2652 -0.4877
 1861TIP3    H127074   6.674   6.302  14.385  0.5162 -0.9587  2.1352
 1861TIP3    H227075   6.795   6.212  14.401  1.7505 -0.1916 -1.7431
 1862TIP3   OH227076   5.834   5.862   5.706  0.2385 -0.0874 -0.2965
 1862TIP3    H127077   5.751   5.838   5.667  1.0482 -1.1913 -1.4237
 1862TIP3    H227078   5.845   5.800   5.779  0.1867 -0.0974 -0.2974
 1863TIP3   OH227079   4.034   2.068  12.476 -0.4051  0.0058  0.1858
 1863TIP3    H127080   4.007   2.006  12.409  1.2403  0.1142 -0.6394
 1863TIP3    H227081   4.067   2.014  12.547 -0.6348 -0.0893  0.2202
 1864TIP3   OH227082   4.140   6.286  14.314  0.2049 -0.3389  0.0324
 1864TIP3    H127083   4.087   6.330  14.380  0.8093  0.6239 -0.1000
 1864TIP3    H227084   4.080   6.224  14.272 -0.4311 -0.2835  0.8338
 1865TIP3   OH227085   2.605   4.574  12.003  0.7543 -0.4599 -0.0998
 1865TIP3    H127086   2.632   4.623  11.925  0.1112 -1.0345 -0.7033
 1865TIP3    H227087   2.685   4.565  12.055  1.0368  0.5513 -0.3459
 1866TIP3   OH227088   2.158   3.410   4.888  0.2278  0.0237 -0.7257
 1866TIP3    H127089   2.216   3.467   4.838 -0.5396  0.3360 -1.2892
 1866TIP3    H227090   2.216   3.351   4.935  1.0649  1.6288  0.3332
 1867TIP3   OH227091   5.801   5.265  16.456  0.2468 -0.3099 -0.6190
 1867TIP3    H127092   5.733   5.205  16.426  1.9441 -2.2994 -0.6617
 1867TIP3    H227093   5.793   5.264  16.551 -2.0669  2.3475 -0.6465
 1868TIP3   OH227094   3.828   5.114   3.721  0.1231  0.0497  0.6040
 1868TIP3    H127095   3.768   5.052   3.680 -0.0896 -0.1404  1.2020
 1868TIP3    H227096   3.832   5.187   3.659  0.0639 -0.3815  0.0853
 1869TIP3   OH227097   2.010   2.125  12.895 -0.4615  0.2576  0.0815
 1869TIP3    H127098   2.019   2.046  12.948  1.2881  0.9072  0.7974
 1869TIP3    H227099   1.930   2.167  12.928 -0.1880 -0.0857  1.2050
 1870TIP3   OH227100   0.612   1.085  11.271  0.7975  0.0642  0.3287
 1870TIP3    H127101   0.645   1.081  11.361  2.6018  1.6457 -0.1944
 1870TIP3    H227102   0.543   1.019  11.268 -0.2434  0.8478  3.2340
 1871TIP3   OH227103   2.272   2.387   5.607 -0.3652 -0.4158 -0.1351
 1871TIP3    H127104   2.319   2.312   5.643 -1.1237  0.0142  1.9107
 1871TIP3    H227105   2.263   2.447   5.681 -0.4074  1.3906 -1.5437
 1872TIP3   OH227106   5.355   6.601   0.912  0.0514 -0.2904 -0.5145
 1872TIP3    H127107   5.366   6.605   0.817 -0.3084 -1.2731 -0.6140
 1872TIP3    H227108   5.385   6.513   0.935 -2.2446 -1.0218 -0.0716
 1873TIP3   OH227109   6.733   4.376   2.079  0.3031  0.3253  0.2774
 1873TIP3    H127110   6.666   4.370   2.147  0.1612  1.0622  0.1991
 1873TIP3    H227111   6.747   4.285   2.052 -2.2068  0.3285 -1.2515
 1874TIP3   OH227112   4.991   1.310  11.584  0.6564 -0.3584  0.0034
 1874TIP3    H127113   4.918   1.326  11.525  0.4706  0.7434  0.4988
 1874TIP3    H227114   5.020   1.398  11.610  1.5341 -0.8018  0.5597
 1875TIP3   OH227115   5.480   3.513   1.610 -0.0567  0.0192 -0.4556
 1875TIP3    H127116   5.502   3.422   1.631  1.2041  0.0938 -1.3974
 1875TIP3    H227117   5.413   3.506   1.542  0.1066 -0.2102 -0.5942
 1876TIP3   OH227118   5.313   3.403   2.680  0.1006 -0.3429  0.0844
 1876TIP3    H127119   5.264   3.374   2.603  1.6012 -0.6027 -0.8180
 1876TIP3    H227120   5.252   3.461   2.726 -2.1450 -2.9910  0.7000
 1877TIP3   OH227121   1.295   0.247  13.639 -0.5585  0.2255  0.5007
 1877TIP3    H127122   1.238   0.202  13.702 -0.4371 -1.8035 -0.7803
 1877TIP3    H227123   1.375   0.195  13.637  0.4104  1.6434  0.4091
 1878TIP3   OH227124   0.936   3.233   5.553 -0.0889  0.4626 -0.0710
 1878TIP3    H127125   0.859   3.254   5.606  0.8622  0.0823  1.5275
 1878TIP3    H227126   0.905   3.171   5.488 -0.5973 -2.3175  2.5614
 1879TIP3   OH227127   3.228   2.128   3.906 -0.2990 -0.3020  0.5448
 1879TIP3    H127128   3.288   2.166   3.970  1.6325 -0.8321 -0.8547
 1879TIP3    H227129   3.175   2.202   3.876  1.3803  0.7533  0.0129
 1880TIP3   OH227130   2.849   5.365   5.503 -0.0389 -0.0348  0.0513
 1880TIP3    H127131   2.777   5.405   5.552  1.0515  1.5457  0.4414
 1880TIP3    H227132   2.854   5.276   5.537  0.6067  0.9673  2.8004
 1881TIP3   OH227133   3.938   0.860   3.016  0.0902  0.0943 -0.2980
 1881TIP3    H127134   3.902   0.949   3.013 -0.5026 -0.0119  2.1602
 1881TIP3    H227135   3.866   0.806   3.048  0.9643 -0.9875 -0.1161
 1882TIP3   OH227136   3.471   1.883   6.506 -0.3201  0.6718 -0.6314
 1882TIP3    H127137   3.540   1.881   6.573 -1.7379 -2.3785  0.9458
 1882TIP3    H227138   3.389   1.884   6.556 -1.4573  0.9536 -2.4055
 1883TIP3   OH227139   4.739   6.075   0.531  0.0627 -0.0361 -0.0643
 1883TIP3    H127140   4.706   6.147   0.477  0.7322  0.9097  0.7495
 1883TIP3    H227141   4.664   6.046   0.583 -0.4852 -0.6870 -1.1794
 1884TIP3   OH227142   5.447   0.808  15.779  0.2058  0.3267  0.0307
 1884TIP3    H127143   5.407   0.856  15.707 -0.5518  0.3517  0.4611
 1884TIP3    H227144   5.528   0.772  15.742 -1.3155 -1.6895 -1.5657
 1885TIP3   OH227145   3.866   1.488  11.153  0.3855 -0.3926 -0.2120
 1885TIP3    H127146   3.821   1.424  11.208  0.6630 -0.8639 -0.5264
 1885TIP3    H227147   3.797   1.543  11.118  0.2713  0.6275  1.4747
 1886TIP3   OH227148   2.040   2.237  12.566  0.7267 -0.2219  0.0998
 1886TIP3    H127149   2.103   2.267  12.631 -0.1212  1.9284 -0.0091
 1886TIP3    H227150   1.959   2.223  12.615  0.1040  1.3368 -0.4304
 1887TIP3   OH227151   4.809   3.133   1.830 -0.2512 -0.6660 -0.3820
 1887TIP3    H127152   4.804   3.112   1.923  0.0247 -1.7383 -0.5989
 1887TIP3    H227153   4.899   3.163   1.817 -0.4672  0.0904 -0.1939
 1888TIP3   OH227154   4.642   1.120  12.087  0.9441  0.0619  0.5807
 1888TIP3    H127155   4.605   1.032  12.074  1.7440 -0.2995  0.7106
 1888TIP3    H227156   4.688   1.139  12.005  0.8562  0.3247  0.5909
 1889TIP3   OH227157   2.884   4.230  16.234  0.2328  0.2820 -0.3983
 1889TIP3    H127158   2.926   4.255  16.317 -0.1342 -0.2268 -0.0536
 1889TIP3    H227159   2.791   4.250  16.248 -0.1972 -1.8133  0.1297
 1890TIP3   OH227160   5.166   6.106  12.254  0.0586  0.2463 -0.1734
 1890TIP3    H127161   5.199   6.102  12.164 -1.5106 -1.6326 -0.7609
 1890TIP3    H227162   5.211   6.034  12.299 -1.0325 -0.4755 -0.1995
 1891TIP3   OH227163   5.479   5.504  16.971  0.3918 -0.0273  0.0586
 1891TIP3    H127164   5.504   5.597  16.964  0.1746 -0.0614 -1.4943
 1891TIP3    H227165   5.547   5.457  16.923  0.9758 -0.7837  1.5705
 1892TIP3   OH227166   6.405   5.284   5.745 -0.0007 -0.9996  0.0376
 1892TIP3    H127167   6.397   5.271   5.839  0.8395  1.3431  0.4865
 1892TIP3    H227168   6.466   5.357   5.735 -0.0855 -1.1662 -2.3272
 1893TIP3   OH227169   2.982   4.237  15.128 -0.8359  0.2362 -0.1449
 1893TIP3    H127170   2.967   4.143  15.125  0.2018  0.0848 -1.0543
 1893TIP3    H227171   2.932   4.272  15.054 -1.5683  0.4584  0.4482
 1894TIP3   OH227172   1.743   4.242  16.956  0.1018 -0.5279  0.3722
 1894TIP3    H127173   1.797   4.164  16.959 -0.6089 -1.0275  0.4286
 1894TIP3    H227174   1.667   4.216  16.904  0.5803  0.5841 -0.9430
 1895TIP3   OH227175   5.590   5.327  14.763 -0.1915  0.1493 -0.6693
 1895TIP3    H127176   5.675   5.288  14.782 -0.5071 -0.2215  0.0260
 1895TIP3    H227177   5.610   5.414  14.727  0.4788 -0.0497 -0.7775
 1896TIP3   OH227178   1.794   0.503  15.104  0.0179  0.3424  0.5197
 1896TIP3    H127179   1.739   0.486  15.181  1.2979  1.6084  1.7946
 1896TIP3    H227180   1.738   0.556  15.046 -0.5943  0.3634  1.1099
 1897TIP3   OH227181   3.384   4.146   5.914  0.2777 -0.9007  0.2191
 1897TIP3    H127182   3.380   4.197   5.995  0.1268 -0.2385 -0.1912
 1897TIP3    H227183   3.471   4.165   5.879  0.8851 -2.3026  0.9242
 1898TIP3   OH227184   1.584   2.720  10.796  0.3259  0.0869  0.0469
 1898TIP3    H127185   1.631   2.802  10.785  0.6026 -0.0479  0.2084
 1898TIP3    H227186   1.506   2.729  10.741  2.2059 -1.0136 -3.0692
 1899TIP3   OH227187   3.593   4.371   5.114  0.1305 -0.6328  0.4916
 1899TIP3    H127188   3.519   4.330   5.069 -1.2247  1.9319  0.1611
 1899TIP3    H227189   3.670   4.345   5.063 -0.4648 -3.3702  0.8377
 1900TIP3   OH227190   1.085   6.165  13.934 -0.1027 -0.0514 -0.1026
 1900TIP3    H127191   1.011   6.225  13.943 -1.6230 -1.4734 -2.1376
 1900TIP3    H227192   1.084   6.112  14.013  0.4184  1.6289  1.0844
 1901TIP3   OH227193   2.148   4.868  16.827 -0.7701  0.5089 -0.0674
 1901TIP3    H127194   2.212   4.932  16.855 -0.8841 -0.1617  1.8374
 1901TIP3    H227195   2.198   4.787  16.814 -0.9714  0.4108 -0.2543
 1902TIP3   OH227196   2.426   6.519  16.406 -0.1700 -0.3621 -1.0484
 1902TIP3    H127197   2.368   6.589  16.378 -1.3095 -1.4488 -1.4828
 1902TIP3    H227198   2.502   6.526  16.348  0.1756  1.0571 -0.4810
 1903TIP3   OH227199   0.500   1.997  13.086 -0.6649 -0.6338 -0.3129
 1903TIP3    H127200   0.466   1.932  13.147 -0.7126 -0.4472 -0.1389
 1903TIP3    H227201   0.565   1.950  13.034  0.1339 -0.5358  0.5730
 1904TIP3   OH227202   5.293   1.324   2.806  0.7309  0.2482 -0.1068
 1904TIP3    H127203   5.274   1.233   2.831  0.2862  0.8394  1.8384
 1904TIP3    H227204   5.345   1.358   2.878 -1.4308  2.3408  0.5939
 1905TIP3   OH227205   0.618   5.929   5.887 -0.7325 -0.0763 -0.2899
 1905TIP3    H127206   0.652   5.948   5.800  0.7202 -1.0058  0.0450
 1905TIP3    H227207   0.543   5.873   5.872  1.0635 -2.4569 -0.9062
 1906TIP3   OH227208   0.255   6.057   5.059  0.0182  0.1293 -0.2620
 1906TIP3    H127209   0.182   6.098   5.013  0.3461  1.4220  0.3066
 1906TIP3    H227210   0.261   6.104   5.142  0.2694 -1.2738  0.5501
 1907TIP3   OH227211   4.193   6.531  15.452  0.5053  0.2597  0.7539
 1907TIP3    H127212   4.244   6.561  15.527  1.6496 -0.2259  0.1981
 1907TIP3    H227213   4.105   6.519  15.486  1.0572 -0.1990  2.0804
 1908TIP3   OH227214   6.255   1.314  11.196 -0.7441  0.4230  0.3125
 1908TIP3    H127215   6.318   1.347  11.132 -1.1485  1.3029  0.3625
 1908TIP3    H227216   6.302   1.317  11.279 -0.2300 -0.6876  0.0788
 1909TIP3   OH227217   0.140   6.456  16.767  1.0572  0.5160 -0.2702
 1909TIP3    H127218   0.113   6.364  16.769  0.9299  0.5318  2.2608
 1909TIP3    H227219   0.223   6.457  16.814  0.4013  1.8337  0.9316
 1910TIP3   OH227220   0.603   4.038  15.238 -0.1868  0.4877 -0.0277
 1910TIP3    H127221   0.640   3.955  15.209  1.1943  0.6053  1.2468
 1910TIP3    H227222   0.539   4.012  15.305  0.5947  0.4375  0.7243
 1911TIP3   OH227223   4.825   6.242   0.734 -0.0327 -0.1239 -0.0214
 1911TIP3    H127224   4.763   6.228   0.806  0.1517 -1.3972 -0.0923
 1911TIP3    H227225   4.818   6.163   0.681 -0.2106  0.8213 -1.4614
 1912TIP3   OH227226   1.976   1.731   2.738  0.7492  0.2505 -0.2325
 1912TIP3    H127227   1.914   1.803   2.736  1.0095  0.5207  0.7322
 1912TIP3    H227228   2.051   1.763   2.687  0.5681  0.3706 -0.4257
 1913TIP3   OH227229   4.612   1.832   6.056 -0.0431 -0.4858  0.5460
 1913TIP3    H127230   4.536   1.809   6.109  1.2321 -0.8400  2.3254
 1913TIP3    H227231   4.649   1.748   6.029 -0.3147 -0.3173 -0.3758
 1914TIP3   OH227232   3.236   3.349  13.111  0.0826  0.3518 -0.4883
 1914TIP3    H127233   3.180   3.389  13.044 -0.0825 -1.8549 -1.7739
 1914TIP3    H227234   3.314   3.321  13.063  0.3333 -0.5086  0.3851
 1915TIP3   OH227235   6.828   6.544   3.259 -0.6486  0.2595 -0.7273
 1915TIP3    H127236   6.903   6.529   3.317  0.7062 -1.3129 -2.7404
 1915TIP3    H227237   6.775   6.465   3.268 -0.3761 -0.0457 -1.6211
 1916TIP3   OH227238   1.240   4.115  12.766  0.0005 -0.1933 -0.1101
 1916TIP3    H127239   1.258   4.114  12.860  1.1205 -0.1195 -0.3042
 1916TIP3    H227240   1.204   4.202  12.749  1.5334  0.5018 -0.0202
 1917TIP3   OH227241   5.471   6.638  16.080  0.5821  0.5403  0.4559
 1917TIP3    H127242   5.441   6.727  16.063 -0.7237 -0.1076 -0.8627
 1917TIP3    H227243   5.407   6.602  16.141 -0.6072 -0.3790 -1.2491
 1918TIP3   OH227244   1.850   4.924  16.086 -0.1277  1.0307  0.1172
 1918TIP3    H127245   1.880   4.834  16.094 -1.3932  0.5778 -0.1055
 1918TIP3    H227246   1.928   4.977  16.107  0.2166 -0.0851  1.7656
 1919TIP3   OH227247   1.069   3.980   0.086  0.9062  0.8146  0.0151
 1919TIP3    H127248   1.128   3.971   0.012 -1.5127  1.0631 -2.0928
 1919TIP3    H227249   1.005   4.045   0.058 -0.9228 -0.1229  1.7298
 1920TIP3   OH227250   3.381   2.777  12.510  0.3756  0.3466  0.1639
 1920TIP3    H127251   3.366   2.762  12.417  1.4428 -0.6325  0.1116
 1920TIP3    H227252   3.451   2.714  12.532  1.6466  2.0267  1.1375
 1921TIP3   OH227253   1.036   1.530  14.864 -0.3324 -0.6576  0.5671
 1921TIP3    H127254   1.087   1.566  14.937  1.9457 -0.7153 -0.8736
 1921TIP3    H227255   0.995   1.451  14.899 -0.3740  0.0243  2.1218
 1922TIP3   OH227256   0.822   3.790  13.273  0.1538 -0.6568  0.4985
 1922TIP3    H127257   0.871   3.716  13.308  1.0713  0.2560  1.2066
 1922TIP3    H227258   0.732   3.759  13.267  0.6179 -2.0102  0.2172
 1923TIP3   OH227259   2.720   3.366   0.784 -0.0912 -0.2207 -0.6616
 1923TIP3    H127260   2.661   3.441   0.785  0.1804  0.0428  1.9404
 1923TIP3    H227261   2.761   3.369   0.697  0.3291  2.9908 -0.4934
 1924TIP3   OH227262   6.641   5.008   4.040 -0.1051  0.1826 -0.3516
 1924TIP3    H127263   6.635   5.056   4.123 -0.3298 -0.7230  0.1728
 1924TIP3    H227264   6.708   5.055   3.990  0.2635  0.5562  0.4710
 1925TIP3   OH227265   1.423   2.389   3.194  0.3383 -0.1783 -0.2922
 1925TIP3    H127266   1.328   2.397   3.193  0.2463 -0.9596 -2.7700
 1925TIP3    H227267   1.447   2.367   3.104  2.8918  0.1637  0.2219
 1926TIP3   OH227268   3.830   2.440  15.989  0.5633  0.3051  0.2766
 1926TIP3    H127269   3.905   2.495  16.013  1.1210 -0.0063 -0.6691
 1926TIP3    H227270   3.761   2.502  15.965  0.7875  0.5988  0.3838
 1927TIP3   OH227271   1.471   3.196   1.189 -0.1329  0.0420 -0.4686
 1927TIP3    H127272   1.539   3.263   1.184 -0.3260  0.1550 -2.3061
 1927TIP3    H227273   1.500   3.138   1.259 -0.7361  2.8142  2.3385
 1928TIP3   OH227274   4.160   4.135   2.874 -0.1081  0.4693  0.3946
 1928TIP3    H127275   4.162   4.042   2.896 -1.1172  0.0358 -1.1859
 1928TIP3    H227276   4.242   4.170   2.910 -0.4711 -0.6566  2.4668
 1929TIP3   OH227277   4.247   3.511  11.486 -0.5934  0.2006 -0.2912
 1929TIP3    H127278   4.295   3.536  11.565 -3.1853  2.4505  0.7724
 1929TIP3    H227279   4.179   3.451  11.517 -2.7114  2.4042 -0.3289
 1930TIP3   OH227280   4.921   2.760   5.585  0.6555 -0.1482 -0.2527
 1930TIP3    H127281   4.987   2.747   5.653 -0.6475  1.7743  1.5083
 1930TIP3    H227282   4.901   2.854   5.590 -1.4865 -0.4974 -1.4144
 1931TIP3   OH227283   0.118   5.999  15.369 -0.5390 -0.2616  0.1684
 1931TIP3    H127284   0.114   6.057  15.445 -3.2432  1.9877 -1.4668
 1931TIP3    H227285   0.193   6.030  15.319  0.1871 -0.5856  1.0314
 1932TIP3   OH227286   1.737   4.865   2.798  0.1447 -0.6822  0.1834
 1932TIP3    H127287   1.747   4.856   2.892  0.3509 -1.0459  0.1286
 1932TIP3    H227288   1.805   4.927   2.771  0.4131 -0.9637  0.2063
 1933TIP3   OH227289   2.371   5.132  17.083  0.2030 -0.2953 -0.0209
 1933TIP3    H127290   2.362   5.119  17.177  0.2137  1.0199  0.1904
 1933TIP3    H227291   2.399   5.048  17.049 -0.5864 -1.0166  1.0445
 1934TIP3   OH227292   3.560   6.398  15.023  0.0987  0.1368 -0.2443
 1934TIP3    H127293   3.586   6.391  14.932 -1.4984  1.6727 -0.8864
 1934TIP3    H227294   3.637   6.435  15.067  0.8988 -0.6711 -0.9333
 1935TIP3   OH227295   6.582   5.335   4.693  0.2329  0.7881 -0.0024
 1935TIP3    H127296   6.636   5.313   4.618  1.0660  1.1429  0.4871
 1935TIP3    H227297   6.639   5.384   4.752 -0.9578  2.3109 -0.0391
 1936TIP3   OH227298   2.390   1.692   3.679  0.0352 -0.3783 -0.0500
 1936TIP3    H127299   2.428   1.613   3.717 -2.2987 -1.2590  0.6796
 1936TIP3    H227300   2.402   1.759   3.746 -2.1076 -1.3728  1.4272
 1937TIP3   OH227301   3.032   0.937   0.155  0.2217 -0.3059  0.3855
 1937TIP3    H127302   3.100   0.897   0.100  0.1034  0.9372 -0.7173
 1937TIP3    H227303   3.051   1.031   0.153 -2.0074  0.1843 -0.6743
 1938TIP3   OH227304   6.488   6.841  14.752  1.1809 -0.2151 -0.3085
 1938TIP3    H127305   6.419   6.867  14.813  0.5493 -3.9852  0.7985
 1938TIP3    H227306   6.444   6.834  14.667  0.9089  0.2427 -0.2075
 1939TIP3   OH227307   5.308   5.582  15.678  0.2043  0.2387 -0.2410
 1939TIP3    H127308   5.321   5.619  15.591  0.1629  2.7216  0.7215
 1939TIP3    H227309   5.384   5.613  15.729  0.8591 -2.1430  0.3673
 1940TIP3   OH227310   0.588   4.171   5.421  0.5604 -0.0318  0.0747
 1940TIP3    H127311   0.543   4.230   5.360 -0.6453  0.6248  1.5314
 1940TIP3    H227312   0.561   4.083   5.394  0.7562  0.1886 -0.8732
 1941TIP3   OH227313   3.199   5.092   0.500 -0.2059 -0.3876  0.3176
 1941TIP3    H127314   3.220   5.026   0.565 -0.0989 -0.4661  0.2032
 1941TIP3    H227315   3.124   5.139   0.537 -0.0265 -0.3097  0.5809
 1942TIP3   OH227316   2.712   4.260   4.890 -0.3438 -0.5124 -0.0214
 1942TIP3    H127317   2.743   4.314   4.817 -1.1975  1.6899  1.1450
 1942TIP3    H227318   2.635   4.214   4.856  0.4183 -1.0698 -1.0492
 1943TIP3   OH227319   6.667   2.428  14.527 -0.2222  0.2073  0.5586
 1943TIP3    H127320   6.631   2.345  14.497 -0.3263  1.1343 -2.0644
 1943TIP3    H227321   6.661   2.487  14.452  0.1214  2.5365  2.2283
 1944TIP3   OH227322   4.650   0.124  12.181  0.0155 -0.1798  0.4139
 1944TIP3    H127323   4.664   0.142  12.088 -1.1480 -2.3370 -0.2562
 1944TIP3    H227324   4.717   0.059  12.204 -0.4333 -0.5327  0.7505
 1945TIP3   OH227325   1.229   1.570  14.300 -0.0346  0.5227  0.0950
 1945TIP3    H127326   1.271   1.487  14.277  1.5552  1.7530 -1.7621
 1945TIP3    H227327   1.285   1.608  14.367 -0.3556  0.4365  0.4158
 1946TIP3   OH227328   2.376   6.445   4.305 -0.3386 -0.1541 -0.0591
 1946TIP3    H127329   2.425   6.428   4.225 -1.3956 -0.5073 -0.6467
 1946TIP3    H227330   2.286   6.460   4.276 -0.4123  1.5265  0.8877
 1947TIP3   OH227331   5.942   1.175  15.807  0.2739  0.1315 -0.1100
 1947TIP3    H127332   5.958   1.179  15.712 -2.1913  0.3032 -0.5667
 1947TIP3    H227333   5.984   1.254  15.842 -0.1540  0.8982 -1.2811
 1948TIP3   OH227334   0.683   1.426  15.084  0.2917  0.2309  0.1176
 1948TIP3    H127335   0.678   1.495  15.150  1.7880 -0.0315  0.5400
 1948TIP3    H227336   0.711   1.349  15.132  0.3747 -0.2213 -0.6415
 1949TIP3   OH227337   5.715   2.633   4.977  0.7835 -0.4419  0.2805
 1949TIP3    H127338   5.778   2.617   4.906  0.7479 -0.0749  0.1631
 1949TIP3    H227339   5.638   2.581   4.953  0.4287  0.3712 -0.4235
 1950TIP3   OH227340   5.954   4.849  12.524  0.0891  0.8026  0.0042
 1950TIP3    H127341   5.932   4.756  12.534 -2.0053  1.4683  4.1277
 1950TIP3    H227342   6.049   4.852  12.527  0.2524 -1.1737  4.0793
 1951TIP3   OH227343   0.261   4.110   3.570 -0.1555  0.2652 -0.4260
 1951TIP3    H127344   0.288   4.192   3.529 -1.0660  0.9645  0.3432
 1951TIP3    H227345   0.267   4.127   3.664 -1.5954 -0.1078 -0.2411
 1952TIP3   OH227346   2.233   5.890  11.788  0.7628  0.0040 -0.5006
 1952TIP3    H127347   2.233   5.986  11.794  0.7651 -0.0559  0.8175
 1952TIP3    H227348   2.217   5.872  11.696 -3.1011  1.2721 -0.2697
 1953TIP3   OH227349   2.568   3.574   3.665  0.4003  0.1253  1.1946
 1953TIP3    H127350   2.615   3.599   3.585  0.3466  0.5199  1.2878
 1953TIP3    H227351   2.635   3.532   3.719  0.0056 -2.1042  0.0794
 1954TIP3   OH227352   6.559   3.628  12.358 -0.0914  0.3305  0.8407
 1954TIP3    H127353   6.545   3.715  12.396 -2.0624  0.3660  0.1221
 1954TIP3    H227354   6.476   3.606  12.318  0.5822 -1.6392  0.4492
 1955TIP3   OH227355   0.376   5.857  11.438 -0.5215  0.1614  0.3030
 1955TIP3    H127356   0.403   5.948  11.447  0.2008 -0.1657  1.6017
 1955TIP3    H227357   0.357   5.847  11.345 -0.5530  1.6180  0.1349
 1956TIP3   OH227358   6.253   0.129  14.980 -0.2493 -0.0677 -0.1960
 1956TIP3    H127359   6.293   0.210  15.011 -0.9941 -0.6206  2.4771
 1956TIP3    H227360   6.253   0.071  15.057 -2.0486 -1.6904 -1.3099
 1957TIP3   OH227361   2.383   1.992  16.638  0.6633 -0.7465  0.3088
 1957TIP3    H127362   2.465   2.040  16.624  1.1019 -1.3586  0.7314
 1957TIP3    H227363   2.359   2.011  16.729  0.2326 -0.4232  0.1320
 1958TIP3   OH227364   1.575   2.326   0.014 -0.3898  0.5138  0.3697
 1958TIP3    H127365   1.529   2.405   0.042 -0.0481  0.5596  0.8132
 1958TIP3    H227366   1.538   2.256   0.067 -0.4685  0.4251  0.1985
 1959TIP3   OH227367   1.429   0.572  16.080 -0.1962 -0.6082  0.4057
 1959TIP3    H127368   1.349   0.560  16.029  0.2637 -0.0491 -0.4664
 1959TIP3    H227369   1.478   0.491  16.068  0.1645 -0.2612 -0.5139
 1960TIP3   OH227370   4.260   2.912  13.081 -0.4534 -0.1003  0.2223
 1960TIP3    H127371   4.214   2.881  13.159  0.5191  0.6343  1.1272
 1960TIP3    H227372   4.326   2.845  13.064 -0.1129  0.1362  0.5651
 1961TIP3   OH227373   6.586   3.321  16.957  0.1657 -0.0951  0.2702
 1961TIP3    H127374   6.505   3.365  16.933  0.3741  0.0318 -0.2229
 1961TIP3    H227375   6.574   3.231  16.927 -0.0769 -0.2617  0.8566
 1962TIP3   OH227376   5.427   1.793  12.554  0.0145 -0.1080  0.1906
 1962TIP3    H127377   5.353   1.812  12.612  0.4732 -0.2450  0.8390
 1962TIP3    H227378   5.495   1.761  12.613  0.2403 -0.9806 -0.5326
 1963TIP3   OH227379   6.365   6.381   0.290 -0.1308 -0.4161 -0.0810
 1963TIP3    H127380   6.285   6.415   0.330  0.7643 -1.0782  2.4622
 1963TIP3    H227381   6.397   6.453   0.235 -0.6071  1.2027  1.6665
 1964TIP3   OH227382   5.921   2.908   3.869 -0.0559  0.6026 -0.0083
 1964TIP3    H127383   5.891   2.867   3.950  0.2823  0.1531 -0.1064
 1964TIP3    H227384   5.845   2.906   3.812 -0.8358  2.5152  0.8797
 1965TIP3   OH227385   5.192   4.923  12.622 -0.1409 -0.7551  0.9642
 1965TIP3    H127386   5.281   4.957  12.617 -0.1341 -0.3092  3.1309
 1965TIP3    H227387   5.140   4.982  12.568  1.1919 -2.6569 -2.8023
 1966TIP3   OH227388   6.275   2.836   4.595 -0.0964  0.3739 -0.0074
 1966TIP3    H127389   6.331   2.851   4.518  0.5273 -0.1938  0.3269
 1966TIP3    H227390   6.270   2.741   4.602 -0.6896  0.4255  0.2748
 1967TIP3   OH227391   1.217   4.430  15.475  0.6999 -0.7610  0.0138
 1967TIP3    H127392   1.267   4.491  15.421  1.3021  0.0307  1.3831
 1967TIP3    H227393   1.126   4.458  15.465  1.1326  2.1612  2.5665
 1968TIP3   OH227394   1.538   4.560   4.735 -0.0761 -0.0988 -0.0445
 1968TIP3    H127395   1.502   4.472   4.730 -0.3156  0.0059 -0.1788
 1968TIP3    H227396   1.462   4.617   4.745  0.0385  0.1351 -0.4872
 1969TIP3   OH227397   5.263   1.722  12.999  0.2433 -0.0949 -0.5204
 1969TIP3    H127398   5.316   1.786  13.047 -1.4650  1.5714 -0.7087
 1969TIP3    H227399   5.172   1.743  13.022 -0.4083 -2.5514 -0.5438
 1970TIP3   OH227400   6.749   3.941  17.001  0.1458  0.5517  0.2683
 1970TIP3    H127401   6.744   3.987  17.085  1.1204  0.8720  0.1629
 1970TIP3    H227402   6.663   3.954  16.962 -0.9001 -0.9730  1.9133
 1971TIP3   OH227403   0.687   1.939   1.838 -0.1029  0.0641 -0.1204
 1971TIP3    H127404   0.668   2.005   1.905 -0.7792  1.7060 -1.8006
 1971TIP3    H227405   0.766   1.896   1.868  0.3390  1.6150  1.1075
 1972TIP3   OH227406   5.579   2.147  10.943 -0.1016  0.2559 -0.0647
 1972TIP3    H127407   5.570   2.216  10.878 -0.3836  0.0180 -0.2843
 1972TIP3    H227408   5.673   2.138  10.956 -0.0090 -0.0798 -0.8694
 1973TIP3   OH227409   6.209   5.048  16.019 -0.1204 -0.1914 -0.4002
 1973TIP3    H127410   6.174   4.989  15.952  3.1581 -1.3827 -1.2499
 1973TIP3    H227411   6.144   5.044  16.090 -1.5333 -2.4086 -1.6651
 1974TIP3   OH227412   0.243   3.357   4.022 -0.4076  0.2486 -0.1424
 1974TIP3    H127413   0.228   3.284   3.961  0.3796 -0.1541  0.1326
 1974TIP3    H227414   0.294   3.319   4.093 -0.1536  1.0311  0.1052
 1975TIP3   OH227415   6.514   0.104  10.540  0.0212 -0.1249 -0.2464
 1975TIP3    H127416   6.491   0.170  10.605  0.6045  0.0341 -0.1923
 1975TIP3    H227417   6.493   0.020  10.581 -0.8713  0.0299 -0.3752
 1976TIP3   OH227418   1.716   2.973   1.073  0.2567 -0.5761 -0.6063
 1976TIP3    H127419   1.640   2.916   1.058  1.1165 -1.7212 -0.7192
 1976TIP3    H227420   1.718   2.986   1.167 -1.1736  1.0462 -0.7459
 1977TIP3   OH227421   1.231   3.376  11.268 -0.0392 -0.3153  0.8851
 1977TIP3    H127422   1.320   3.342  11.279  0.1469  0.2796  1.2710
 1977TIP3    H227423   1.221   3.385  11.173  0.9387  1.2072  0.8924
 1978TIP3   OH227424   5.635   2.503  16.194 -0.0304 -0.1406 -0.8950
 1978TIP3    H127425   5.563   2.544  16.146 -1.5117 -0.1674  1.1517
 1978TIP3    H227426   5.634   2.412  16.166 -0.6594 -0.0850 -1.0789
 1979TIP3   OH227427   0.230   2.832   2.173 -0.0899  0.3882  0.3818
 1979TIP3    H127428   0.278   2.770   2.118  0.9030  0.5543  1.0372
 1979TIP3    H227429   0.291   2.853   2.244 -0.2441  2.4043 -0.0236
 1980TIP3   OH227430   0.268   2.316  15.640  0.0893 -0.0706  0.6017
 1980TIP3    H127431   0.207   2.299  15.712  0.2858 -2.1618  0.3200
 1980TIP3    H227432   0.257   2.410  15.622 -0.7580  0.2739  2.6072
 1981TIP3   OH227433   2.142   0.472  10.023 -0.2440 -0.5598  0.3316
 1981TIP3    H127434   2.087   0.550  10.015 -0.1642 -0.5211  0.1611
 1981TIP3    H227435   2.162   0.448   9.933 -1.0802 -1.3534  0.3471
 1982TIP3   OH227436   0.630   4.111   4.446  0.3974  0.0220  0.1483
 1982TIP3    H127437   0.701   4.083   4.387  1.7836  0.5822  1.4956
 1982TIP3    H227438   0.634   4.049   4.519 -1.2110 -0.5805 -0.2410
 1983TIP3   OH227439   2.586   3.990   1.035  0.1228 -0.2399  0.2729
 1983TIP3    H127440   2.581   3.933   0.958 -2.6001  0.0274  0.1627
 1983TIP3    H227441   2.595   4.078   0.999  1.6642 -0.3041  0.3969
 1984TIP3   OH227442   3.408   1.439   1.540  0.8047 -0.3382 -0.8342
 1984TIP3    H127443   3.346   1.513   1.531  0.5570 -0.3013  0.8088
 1984TIP3    H227444   3.355   1.362   1.523  0.9907 -0.1846 -2.2467
 1985TIP3   OH227445   0.302   3.441   2.423  0.4215  0.1870 -0.0738
 1985TIP3    H127446   0.288   3.354   2.460  0.0760  0.3921  0.2791
 1985TIP3    H227447   0.223   3.490   2.446  1.5642  1.2861  1.7332
 1986TIP3   OH227448   2.826   6.432  16.608 -0.2383  0.2946  0.2422
 1986TIP3    H127449   2.807   6.341  16.583  0.9126 -0.3604  1.6344
 1986TIP3    H227450   2.765   6.451  16.679 -0.2842  0.5227  0.1426
 1987TIP3   OH227451   0.486   0.520  11.032 -0.2807  0.1919  0.3461
 1987TIP3    H127452   0.508   0.441  11.081  1.0599 -1.0769 -2.1272
 1987TIP3    H227453   0.400   0.501  10.994  0.7058 -0.7814 -1.4948
 1988TIP3   OH227454   3.926   0.625  13.284  0.8034 -0.2646  0.3674
 1988TIP3    H127455   3.969   0.541  13.300  0.6503 -1.1062 -2.9557
 1988TIP3    H227456   3.892   0.618  13.195 -1.5241  2.3876  0.9220
 1989TIP3   OH227457   1.567   5.801  11.115  0.1700 -0.2295  0.1706
 1989TIP3    H127458   1.620   5.857  11.172  0.2660  0.5176 -0.6307
 1989TIP3    H227459   1.477   5.816  11.145  0.2004  0.3172  0.0043
 1990TIP3   OH227460   5.436   2.696   0.295  0.2970 -0.3354 -0.4562
 1990TIP3    H127461   5.359   2.694   0.352  0.8708  0.2977  0.3807
 1990TIP3    H227462   5.401   2.688   0.206 -0.6367 -1.1218 -0.0311
 1991TIP3   OH227463   4.549   2.248   2.668  0.1711 -0.3716  0.2968
 1991TIP3    H127464   4.542   2.286   2.581  0.6060  2.5124  1.3822
 1991TIP3    H227465   4.642   2.225   2.676  0.5956  1.2948  0.6399
 1992TIP3   OH227466   5.184   3.153  15.809 -0.3546 -0.3302  0.0891
 1992TIP3    H127467   5.209   3.239  15.776  0.4457 -0.2072  0.9805
 1992TIP3    H227468   5.130   3.115  15.739  1.3197 -0.1120 -1.3859
 1993TIP3   OH227469   2.139   4.901   5.530  0.3361  0.4904  0.6239
 1993TIP3    H127470   2.049   4.876   5.507  0.4428 -0.2703  0.9776
 1993TIP3    H227471   2.190   4.883   5.452  0.5843 -1.4488  1.1591
 1994TIP3   OH227472   1.226   2.998  13.252 -0.1003 -0.1839  0.2136
 1994TIP3    H127473   1.242   2.947  13.173 -0.0991 -1.6817  1.1304
 1994TIP3    H227474   1.310   3.040  13.271  0.1728 -0.6035 -0.0554
 1995TIP3   OH227475   4.234   0.778   0.880 -0.3650  0.2405 -0.2842
 1995TIP3    H127476   4.150   0.822   0.893 -0.5639  0.3491 -1.7314
 1995TIP3    H227477   4.281   0.833   0.818  0.7773  0.1562  0.4835
 1996TIP3   OH227478   5.129   2.467   3.988 -0.2137  0.0583 -0.3481
 1996TIP3    H127479   5.046   2.494   3.948  0.0865  2.2952  0.4025
 1996TIP3    H227480   5.167   2.407   3.924 -1.4115  0.6869 -1.7191
 1997TIP3   OH227481   3.026   2.570  11.890  0.3296  0.8293 -0.1563
 1997TIP3    H127482   3.057   2.480  11.897  1.3634  1.1273 -0.7119
 1997TIP3    H227483   3.104   2.623  11.906 -0.3613  1.6420  0.6258
 1998TIP3   OH227484   2.117   2.508  11.686 -0.6679 -0.0151  0.1845
 1998TIP3    H127485   2.124   2.461  11.769 -1.1614  0.4065  0.4724
 1998TIP3    H227486   2.045   2.570  11.699 -0.0786  0.7755 -0.2047
 1999TIP3   OH227487   2.722   2.206  13.379 -0.3313  0.5229  0.4412
 1999TIP3    H127488   2.803   2.215  13.330 -0.0147 -2.4980  0.2395
 1999TIP3    H227489   2.741   2.245  13.465  1.9341 -1.5549  0.9643
 2000TIP3   OH227490   2.104   0.496  10.509 -0.0336  0.4989 -0.7169
 2000TIP3    H127491   2.100   0.563  10.440 -1.7766  1.9342  0.6660
 2000TIP3    H227492   2.171   0.435  10.479  1.4159  2.6623 -2.2521
 2001TIP3   OH227493   4.988   0.378  10.632  0.4895 -0.0830  0.4911
 2001TIP3    H127494   5.066   0.325  10.651  0.2939 -0.7750 -0.5324
 2001TIP3    H227495   4.917   0.335  10.681 -0.1440 -2.2431 -2.0809
 2002TIP3   OH227496   4.073   1.466  16.401  0.0157  0.5558  0.3560
 2002TIP3    H127497   4.003   1.528  16.382 -0.7905 -0.9539 -2.0001
 2002TIP3    H227498   4.115   1.450  16.317  1.3580 -0.7446  1.2218
 2003TIP3   OH227499   0.855   0.885  14.613 -0.0980 -0.3791 -0.0440
 2003TIP3    H127500   0.815   0.966  14.583  1.1986  1.0965  1.9168
 2003TIP3    H227501   0.889   0.845  14.534 -2.2632  0.0830 -1.2841
 2004TIP3   OH227502   5.188   3.342  15.183 -0.3949 -0.5474 -0.1254
 2004TIP3    H127503   5.121   3.282  15.216  0.1151  0.0566  2.1677
 2004TIP3    H227504   5.187   3.416  15.244  1.6367 -0.0472 -0.6180
 2005TIP3   OH227505   0.012   3.590  14.287  0.5664  0.7927 -0.1233
 2005TIP3    H127506   0.004   3.507  14.240 -0.8984  0.7452  0.1600
 2005TIP3    H227507  -0.069   3.636  14.267  0.6889  1.5016  0.9641
 2006TIP3   OH227508   0.734   3.896  14.470  0.2570 -0.1476  0.0188
 2006TIP3    H127509   0.693   3.908  14.556 -1.1675  1.2993 -0.8077
 2006TIP3    H227510   0.727   3.982  14.428  0.9038 -0.8347 -1.5711
 2007TIP3   OH227511   2.546   6.086   1.746  0.4001  0.6324  0.6210
 2007TIP3    H127512   2.636   6.103   1.717  0.9002 -0.1353  1.6627
 2007TIP3    H227513   2.502   6.171   1.737  0.6914  0.6111 -1.6574
 2008TIP3   OH227514   0.724   2.630  14.949 -0.0236 -0.0545  0.1958
 2008TIP3    H127515   0.785   2.696  14.916  0.9062 -0.0076  1.8943
 2008TIP3    H227516   0.638   2.661  14.921  0.3948  1.8913  0.9148
 2009TIP3   OH227517   6.229   3.314  13.205 -0.0432  0.4067 -0.3294
 2009TIP3    H127518   6.186   3.359  13.277 -0.4161 -0.0170 -0.2821
 2009TIP3    H227519   6.281   3.382  13.161 -0.4444  0.8377 -0.1441
 2010TIP3   OH227520   4.625   1.546   6.258 -0.0346  0.2909  0.1249
 2010TIP3    H127521   4.708   1.582   6.289 -0.3423  0.3557  0.8890
 2010TIP3    H227522   4.571   1.537   6.337 -1.6885  2.6468 -0.6281
 2011TIP3   OH227523   2.874   4.645   0.692  0.0843 -0.3595  0.4827
 2011TIP3    H127524   2.892   4.726   0.739 -2.6118  0.7488 -0.2120
 2011TIP3    H227525   2.957   4.625   0.647  0.8421  2.0132  0.6677
 2012TIP3   OH227526   1.703   2.798   5.006 -0.7225 -0.1759  0.5621
 2012TIP3    H127527   1.688   2.818   4.913  1.7934  1.5711  0.4424
 2012TIP3    H227528   1.635   2.848   5.052 -0.0064  1.6404 -0.2390
 2013TIP3   OH227529   3.900   0.817   5.244  0.3713  0.5410 -0.1126
 2013TIP3    H127530   3.964   0.832   5.174  0.6201  0.3890  0.0801
 2013TIP3    H227531   3.950   0.773   5.313  0.3471  1.5288  0.5490
 2014TIP3   OH227532   2.361   3.365   3.535  0.0460 -0.3055  0.3791
 2014TIP3    H127533   2.312   3.434   3.491  0.5061 -1.0602 -1.4272
 2014TIP3    H227534   2.451   3.378   3.507  0.4030 -0.6546  1.3426
 2015TIP3   OH227535   2.939   5.817  15.311  0.3787 -0.0960 -0.1363
 2015TIP3    H127536   2.878   5.887  15.335  0.8089  0.0852  0.4700
 2015TIP3    H227537   2.905   5.782  15.229 -0.8117 -0.3356  0.4425
 2016TIP3   OH227538   6.043   0.731   3.712  0.1817 -0.8399 -0.3811
 2016TIP3    H127539   6.120   0.707   3.661  1.3967  0.3973  0.8009
 2016TIP3    H227540   6.060   0.820   3.742 -2.1855 -0.1041 -0.9506
 2017TIP3   OH227541   0.027   3.761  13.317  0.0545  0.2952  0.0896
 2017TIP3    H127542   0.120   3.771  13.296  0.6683 -2.5337  1.0639
 2017TIP3    H227543   0.027   3.726  13.406 -1.8611 -1.1882 -0.4395
 2018TIP3   OH227544   0.736   4.474   4.528 -0.3097  0.2582 -0.1594
 2018TIP3    H127545   0.737   4.550   4.470  1.8532  0.2479 -0.2239
 2018TIP3    H227546   0.785   4.502   4.606 -1.6848 -0.2728  0.9357
 2019TIP3   OH227547   5.633   4.113   1.046  0.5118 -0.4654 -0.3949
 2019TIP3    H127548   5.718   4.075   1.025  1.3467 -1.0927  3.5063
 2019TIP3    H227549   5.651   4.207   1.056  0.7440 -0.5755  0.2711
 2020TIP3   OH227550   3.121   0.865  11.905 -0.1216 -0.2512  0.2487
 2020TIP3    H127551   3.065   0.941  11.921 -1.3657 -0.7999 -1.2421
 2020TIP3    H227552   3.202   0.902  11.869 -0.3057  0.4345  0.5308
 2021TIP3   OH227553   6.109   6.551  14.949  0.4134  0.2101  0.3745
 2021TIP3    H127554   6.069   6.466  14.965  0.8854 -0.2327 -0.7123
 2021TIP3    H227555   6.116   6.592  15.036 -1.2800 -0.1856  0.7282
 2022TIP3   OH227556   0.220   2.671   1.375  0.1442 -0.2725  0.2859
 2022TIP3    H127557   0.130   2.671   1.405 -0.2080  0.0466 -0.7170
 2022TIP3    H227558   0.247   2.763   1.377 -0.9401  0.2701 -3.2438
 2023TIP3   OH227559   5.149   1.715  13.736 -0.1785  0.1032 -0.8607
 2023TIP3    H127560   5.173   1.805  13.710  1.0359 -0.7358 -2.9072
 2023TIP3    H227561   5.166   1.663  13.658 -0.4919 -1.9887  0.4061
 2024TIP3   OH227562   6.289   4.955  15.023 -0.1091 -0.2480 -0.0005
 2024TIP3    H127563   6.348   4.912  15.085 -0.2979  1.9868  1.8655
 2024TIP3    H227564   6.309   5.048  15.032 -0.8761  0.2412 -2.6083
 2025TIP3   OH227565   6.491   3.533   6.770 -0.1931  0.0832  0.3502
 2025TIP3    H127566   6.452   3.464   6.823  0.5756 -0.5495  0.1167
 2025TIP3    H227567   6.584   3.531   6.794 -0.1854  1.1297  0.4350
 2026TIP3   OH227568   5.104   1.068  14.130  0.1851  0.2190  0.4217
 2026TIP3    H127569   5.156   1.148  14.124  0.5950  0.0885  1.8700
 2026TIP3    H227570   5.160   1.000  14.092 -0.6108  0.7643 -1.8802
 2027TIP3   OH227571   2.937   5.541   5.784  0.1639 -0.1165 -0.2251
 2027TIP3    H127572   3.016   5.590   5.759  1.5879 -1.0156  2.1379
 2027TIP3    H227573   2.965   5.487   5.857 -2.5685 -0.8790  0.3707
 2028TIP3   OH227574   5.930   3.525   5.521 -0.4695 -0.6113 -0.0379
 2028TIP3    H127575   5.948   3.499   5.611 -0.6216  0.0121  0.1727
 2028TIP3    H227576   5.853   3.581   5.527  1.7341  2.7157 -0.0319
 2029TIP3   OH227577   5.791   2.662  13.469 -0.5476 -0.8261  0.4236
 2029TIP3    H127578   5.788   2.754  13.443 -0.3145 -1.0269 -0.3097
 2029TIP3    H227579   5.701   2.631  13.456 -0.5376 -0.8049  0.3055
 2030TIP3   OH227580   3.716   6.322   0.934 -0.6829  0.1392 -0.4482
 2030TIP3    H127581   3.718   6.394   0.871 -1.0531 -0.0475 -0.6747
 2030TIP3    H227582   3.643   6.267   0.906  1.1933 -1.7797 -1.9014
 2031TIP3   OH227583   4.854   3.649   4.419 -0.0427 -0.2539  0.0017
 2031TIP3    H127584   4.858   3.604   4.503  2.6496 -0.7386 -0.2909
 2031TIP3    H227585   4.826   3.738   4.441  2.6729  0.3014  1.8285
 2032TIP3   OH227586   0.260   5.627   3.454 -0.6725 -0.9494  0.4008
 2032TIP3    H127587   0.178   5.579   3.446 -1.1582 -0.3915  1.6503
 2032TIP3    H227588   0.304   5.587   3.529 -1.7834  1.3940  2.4885
 2033TIP3   OH227589   0.305   5.301   2.296  0.3077  0.2397  0.4380
 2033TIP3    H127590   0.328   5.393   2.305  1.9778  0.0042 -0.9370
 2033TIP3    H227591   0.378   5.254   2.337  0.2989 -0.4890 -0.3732
 2034TIP3   OH227592   4.354   2.830   3.083 -0.2965  0.2386  0.4463
 2034TIP3    H127593   4.294   2.804   3.154  0.8155 -0.9357  0.9957
 2034TIP3    H227594   4.399   2.749   3.060 -0.7571  0.5667 -1.7546
 2035TIP3   OH227595   4.206   4.755  16.013 -0.7009 -0.4885  0.0700
 2035TIP3    H127596   4.256   4.711  16.083  1.4972  0.9294 -0.5044
 2035TIP3    H227597   4.201   4.847  16.042 -1.1893 -0.2057 -0.8838
 2036TIP3   OH227598   2.764   1.670   6.138  0.1926 -0.1961 -0.2531
 2036TIP3    H127599   2.764   1.728   6.213  0.5271  0.1461 -0.5156
 2036TIP3    H227600   2.771   1.582   6.175  3.1625  0.0857  0.0433
 2037TIP3   OH227601   5.466   1.938  12.310 -0.7261  0.4174  0.0579
 2037TIP3    H127602   5.505   1.883  12.379 -1.8709  0.4944  0.7786
 2037TIP3    H227603   5.375   1.947  12.335 -0.7427  1.9965 -0.4927
 2038TIP3   OH227604   3.702   5.069  13.127  0.0977 -0.1716  1.0805
 2038TIP3    H127605   3.761   5.143  13.144  0.3817 -0.2834  0.5916
 2038TIP3    H227606   3.760   4.993  13.126 -0.2018 -0.4146  1.6319
 2039TIP3   OH227607   0.239   3.212  15.804 -0.0355  0.2003  0.0337
 2039TIP3    H127608   0.326   3.177  15.820 -0.5960 -1.0397  0.4996
 2039TIP3    H227609   0.203   3.157  15.734  0.1376  1.7452 -1.3256
 2040TIP3   OH227610   6.381   5.345   0.057 -0.6285 -0.0824 -0.0393
 2040TIP3    H127611   6.453   5.282   0.064 -0.3235  0.0728 -1.3882
 2040TIP3    H227612   6.308   5.295   0.022  0.0507  0.5172 -2.5923
 2041TIP3   OH227613   0.230   6.516  13.429 -0.0441  0.4601 -0.3524
 2041TIP3    H127614   0.147   6.563  13.415 -0.4810 -0.0851  0.3752
 2041TIP3    H227615   0.204   6.425  13.444  0.6706  0.3250  0.0977
 2042TIP3   OH227616   0.692   0.742   6.103 -0.1789 -0.2658 -0.7178
 2042TIP3    H127617   0.771   0.692   6.084 -0.6796 -0.8051 -1.4335
 2042TIP3    H227618   0.623   0.677   6.107 -0.2568 -0.1111  2.3045
 2043TIP3   OH227619   4.863   5.842  12.194  0.0112  0.4919  0.0429
 2043TIP3    H127620   4.843   5.932  12.221 -0.7411  0.0001  1.2302
 2043TIP3    H227621   4.881   5.848  12.101  0.2408  1.9186  0.1610
 2044TIP3   OH227622   5.283   4.447   3.483  0.2706 -0.3610 -0.7469
 2044TIP3    H127623   5.282   4.390   3.405 -2.5592 -0.0484 -1.0305
 2044TIP3    H227624   5.288   4.386   3.557  0.6954 -0.7797 -1.1093
 2045TIP3   OH227625   6.163   5.063  14.012 -0.0998 -0.0219 -0.2865
 2045TIP3    H127626   6.167   5.128  14.082  0.9156  1.0614 -1.3242
 2045TIP3    H227627   6.254   5.037  13.997 -0.3355 -0.4803 -0.9933
 2046TIP3   OH227628   6.168   0.859   0.638 -1.0111 -0.1287 -0.0732
 2046TIP3    H127629   6.235   0.790   0.637  0.1353  0.9367 -1.9824
 2046TIP3    H227630   6.217   0.941   0.644 -2.3376  0.5968  1.7838
 2047TIP3   OH227631   5.709   6.307  13.615  0.7933 -0.3020  0.3152
 2047TIP3    H127632   5.640   6.263  13.565  0.8320  0.8300 -0.7917
 2047TIP3    H227633   5.693   6.282  13.706 -1.7324  0.7411  0.2267
 2048TIP3   OH227634   3.638   3.215   0.227 -0.3313 -0.2425  0.1353
 2048TIP3    H127635   3.697   3.289   0.241 -1.3025  0.3396  1.3692
 2048TIP3    H227636   3.605   3.227   0.138  2.5356 -1.4663 -1.2124
 2049TIP3   OH227637   3.664   5.858  16.206  0.6784  0.2213  0.9648
 2049TIP3    H127638   3.593   5.907  16.164  0.7500  0.5207  1.1899
 2049TIP3    H227639   3.702   5.805  16.136  0.8963  0.8293  0.6183
 2050TIP3   OH227640   0.459   6.498   0.014 -0.1695  0.3120 -0.2622
 2050TIP3    H127641   0.397   6.468   0.080  0.7467  0.1135  0.5252
 2050TIP3    H227642   0.456   6.593   0.020 -1.0909  0.3380 -0.8987
 2051TIP3   OH227643   0.681   3.536  12.947 -0.3626  0.3761  0.5653
 2051TIP3    H127644   0.631   3.610  12.981 -1.1221 -0.4939  1.3843
 2051TIP3    H227645   0.627   3.500  12.877 -0.8203 -0.4315  1.3081
 2052TIP3   OH227646   6.711   5.520  15.974 -0.1252  0.6163 -0.0201
 2052TIP3    H127647   6.645   5.549  16.037 -0.1455 -1.4006  0.9903
 2052TIP3    H227648   6.679   5.551  15.890 -1.7862  0.6667  0.5897
 2053TIP3   OH227649   0.416   4.845   1.430 -0.3587  0.4398 -0.4661
 2053TIP3    H127650   0.424   4.769   1.488 -0.5492  0.3623 -0.5427
 2053TIP3    H227651   0.408   4.807   1.342  1.7524  0.5654 -0.7756
 2054TIP3   OH227652   4.443   5.732  12.352 -0.0758  0.0717  0.0358
 2054TIP3    H127653   4.433   5.660  12.415  1.5451 -1.6176 -1.5180
 2054TIP3    H227654   4.354   5.765  12.339 -0.5988 -0.2401  2.3314
 2055TIP3   OH227655   2.022   5.124   5.883  0.6243 -0.6001  0.2134
 2055TIP3    H127656   1.989   5.035   5.876  0.2324 -0.5783  1.6499
 2055TIP3    H227657   2.081   5.133   5.808 -0.0098 -1.7565 -0.4500
 2056TIP3   OH227658   3.243   4.427   1.084 -0.3126 -0.2370 -0.1015
 2056TIP3    H127659   3.320   4.413   1.139 -1.0449 -0.4857  0.8958
 2056TIP3    H227660   3.169   4.425   1.146 -1.0648  0.6546 -0.9384
 2057TIP3   OH227661   3.331   3.892   2.097 -0.2643 -0.2204 -0.1678
 2057TIP3    H127662   3.261   3.841   2.056  0.1152 -2.3375  1.5855
 2057TIP3    H227663   3.410   3.840   2.082  0.0770 -0.4448  2.0559
 2058TIP3   OH227664   0.744   2.704  16.465  0.3301  0.0035  0.0069
 2058TIP3    H127665   0.813   2.641  16.445 -0.5397 -0.6361 -1.0742
 2058TIP3    H227666   0.676   2.688  16.400 -0.7049  0.8465  0.8257
 2059TIP3   OH227667   4.236   2.128  13.263  0.3682 -0.5500  0.2332
 2059TIP3    H127668   4.177   2.154  13.334 -0.3208 -1.6961  0.0925
 2059TIP3    H227669   4.235   2.203  13.203 -0.1621 -0.1572  0.7242
 2060TIP3   OH227670   6.177   3.257  17.057 -0.3248 -0.7114 -0.0089
 2060TIP3    H127671   6.174   3.309  17.137  0.9485 -0.3361 -0.1708
 2060TIP3    H227672   6.100   3.201  17.061 -0.4952 -0.4179  1.2836
 2061TIP3   OH227673   1.532   1.529   3.112 -0.2731  0.1735 -0.5042
 2061TIP3    H127674   1.524   1.468   3.185 -0.7081  2.3149  1.3347
 2061TIP3    H227675   1.623   1.558   3.116 -0.0667 -0.3082 -1.3808
 2062TIP3   OH227676   3.197   0.442  11.725  0.1240 -0.0032 -0.0882
 2062TIP3    H127677   3.272   0.484  11.683 -0.2436  0.7307 -0.0110
 2062TIP3    H227678   3.122   0.464  11.669  0.1706 -2.0469 -1.0787
 2063TIP3   OH227679   1.329   6.443   1.744  0.2720 -0.5407  0.6287
 2063TIP3    H127680   1.324   6.446   1.839  0.0977 -0.8545  0.6314
 2063TIP3    H227681   1.308   6.532   1.715 -0.7563 -0.7132  0.8338
 2064TIP3   OH227682   0.238   5.627  15.119 -0.5745  0.0199 -0.4840
 2064TIP3    H127683   0.162   5.625  15.060 -1.0230  1.1362  0.0393
 2064TIP3    H227684   0.204   5.596  15.203 -0.6306  1.1423 -0.0739
 2065TIP3   OH227685   6.016   5.855  12.018 -0.2420 -0.2846 -0.3347
 2065TIP3    H127686   6.105   5.839  12.051  0.4249  0.0385 -1.8979
 2065TIP3    H227687   5.987   5.770  11.986 -0.7473 -0.5166  0.6879
 2066TIP3   OH227688   4.055   0.511   1.178  0.0586 -0.3104  0.4806
 2066TIP3    H127689   4.033   0.604   1.188  2.6852  0.2377  2.4124
 2066TIP3    H227690   4.079   0.503   1.085 -0.0828  0.9692  0.3028
 2067TIP3   OH227691   4.103   1.440  12.590  0.0062 -0.0106 -0.4020
 2067TIP3    H127692   4.068   1.528  12.581  1.2174  0.4176 -1.1483
 2067TIP3    H227693   4.197   1.449  12.575 -0.0341 -1.6387 -2.0666
 2068TIP3   OH227694   3.138   2.502  15.403  0.0571 -0.3142 -0.0462
 2068TIP3    H127695   3.185   2.454  15.334 -1.3362  1.0252 -2.0235
 2068TIP3    H227696   3.197   2.572  15.428  0.7099 -1.0063  0.4176
 2069TIP3   OH227697   6.436   2.497  12.898 -0.1183 -0.1034 -0.3360
 2069TIP3    H127698   6.411   2.409  12.927 -1.7646  0.0338 -1.2573
 2069TIP3    H227699   6.479   2.483  12.813 -0.8846  0.0198 -0.7485
 2070TIP3   OH227700   0.736   1.535   6.612  0.2549  0.1591 -0.0326
 2070TIP3    H127701   0.762   1.561   6.701  0.8367  2.2942 -0.7749
 2070TIP3    H227702   0.809   1.563   6.557 -1.5958  2.1125 -1.6157
 2071TIP3   OH227703   6.349   3.126   5.713 -1.3530  0.2362 -0.5785
 2071TIP3    H127704   6.368   3.201   5.768  2.0869 -0.3279 -0.7864
 2071TIP3    H227705   6.352   3.160   5.624 -0.9372  0.0825 -0.6266
 2072TIP3   OH227706   3.437   6.070   2.385  0.1022  0.1147 -0.2123
 2072TIP3    H127707   3.373   6.133   2.419  0.6596 -0.5173  2.2194
 2072TIP3    H227708   3.388   5.989   2.374 -0.2422  0.5060 -1.7088
 2073TIP3   OH227709   2.832   0.353   3.695  0.1083  0.0245  0.5200
 2073TIP3    H127710   2.832   0.410   3.618  0.9290 -0.3957  0.2012
 2073TIP3    H227711   2.865   0.409   3.766 -0.3634  0.3254  0.5063
 2074TIP3   OH227712   4.148   6.784  16.755 -0.0382 -0.1092 -0.1137
 2074TIP3    H127713   4.186   6.800  16.669 -0.3331 -1.3182 -0.4880
 2074TIP3    H227714   4.167   6.864  16.805  0.3793  0.4934 -1.2031
 2075TIP3   OH227715   5.176   2.986   1.309  0.3807  0.3362 -0.1149
 2075TIP3    H127716   5.095   2.956   1.267 -0.5713  2.1229  0.3321
 2075TIP3    H227717   5.231   3.015   1.236 -0.7798  2.2856 -0.2930
 2076TIP3   OH227718   5.201   4.266  11.508 -0.1217 -0.3719 -0.1751
 2076TIP3    H127719   5.112   4.241  11.531 -0.2088  1.8381  2.5381
 2076TIP3    H227720   5.250   4.258  11.590  1.6598  0.3624 -1.1121
 2077TIP3   OH227721   3.572   6.413   4.266  0.1803 -0.3290  0.0998
 2077TIP3    H127722   3.525   6.391   4.347 -0.1529  0.6925  0.2028
 2077TIP3    H227723   3.604   6.502   4.281 -1.1183  0.4433 -1.4072
 2078TIP3   OH227724   5.202   2.762  11.881  0.4500  0.0577  0.2030
 2078TIP3    H127725   5.145   2.834  11.854  0.8072  0.4876  0.5954
 2078TIP3    H227726   5.142   2.689  11.896 -0.0200  0.5340  0.7098
 2079TIP3   OH227727   2.207   6.026   3.988 -0.4622 -0.0276  0.6526
 2079TIP3    H127728   2.248   5.996   4.069  0.5352  1.0668  0.5732
 2079TIP3    H227729   2.280   6.036   3.927 -1.1902 -0.7287 -0.3645
 2080TIP3   OH227730   1.286   5.980   3.337  0.2000 -0.1098  0.0629
 2080TIP3    H127731   1.250   6.065   3.359 -1.5769 -0.9730  0.7269
 2080TIP3    H227732   1.348   5.960   3.407 -0.8177 -0.1670  0.9783
 2081TIP3   OH227733   0.533   0.969  13.031  0.1488 -0.2586 -0.7483
 2081TIP3    H127734   0.591   1.043  13.052 -1.4370  0.4161  1.6663
 2081TIP3    H227735   0.570   0.932  12.951  2.2088  1.8806 -0.9082
 2082TIP3   OH227736   4.216   5.519   5.730  0.5067 -0.2404 -0.0856
 2082TIP3    H127737   4.233   5.590   5.793 -1.0907  0.2950 -0.2274
 2082TIP3    H227738   4.303   5.496   5.697  1.1914  0.7420  0.9377
 2083TIP3   OH227739   4.673   6.408   2.565  0.2165  0.2911 -0.2790
 2083TIP3    H127740   4.606   6.440   2.505 -0.0591  1.3386  0.5604
 2083TIP3    H227741   4.629   6.399   2.649  0.9615  0.3618  0.1333
 2084TIP3   OH227742   2.782   4.570   5.390  0.6832 -0.1952  0.2595
 2084TIP3    H127743   2.833   4.575   5.309  1.2327  1.6680  0.6773
 2084TIP3    H227744   2.739   4.655   5.397 -0.5943 -0.8872  1.1547
 2085TIP3   OH227745   3.150   0.607   0.294 -0.1858  0.1360  0.0475
 2085TIP3    H127746   3.241   0.617   0.265  0.0481  0.4996  0.8888
 2085TIP3    H227747   3.147   0.520   0.333 -0.5696 -0.4666 -1.2701
 2086TIP3   OH227748   6.581   6.386  16.002  0.0496  0.5380 -0.6453
 2086TIP3    H127749   6.641   6.379  16.077  1.4085  1.5834 -1.5786
 2086TIP3    H227750   6.531   6.305  16.004  2.4630 -1.0593 -0.6067
 2087TIP3   OH227751   5.712   2.727   0.845  0.2714 -0.1118 -0.0882
 2087TIP3    H127752   5.626   2.708   0.807  0.7106 -1.0361 -0.6516
 2087TIP3    H227753   5.701   2.712   0.939 -0.0880 -0.6298 -0.2080
 2088TIP3   OH227754   0.908   0.586  12.213 -0.6036 -0.0485 -0.1867
 2088TIP3    H127755   0.936   0.620  12.129 -0.1208  2.0036  0.7347
 2088TIP3    H227756   0.825   0.630  12.230 -0.7249 -0.4859  0.3906
 2089TIP3   OH227757   1.971   3.940   6.056  0.0678 -0.2528 -0.1094
 2089TIP3    H127758   1.954   3.965   6.147  1.8225  0.6447  0.0004
 2089TIP3    H227759   1.983   4.023   6.010 -1.9382 -0.6250 -1.4519
 2090TIP3   OH227760   3.305   1.746   5.099 -0.3964 -0.1134 -0.3975
 2090TIP3    H127761   3.249   1.765   5.024 -0.3292 -1.7106 -0.8908
 2090TIP3    H227762   3.284   1.815   5.163 -0.8716  0.9341 -1.6354
 2091TIP3   OH227763   0.726   3.378   4.614 -0.6555 -0.7758 -0.1223
 2091TIP3    H127764   0.685   3.461   4.590 -1.8060 -1.1098  0.5870
 2091TIP3    H227765   0.763   3.394   4.701  0.3684 -0.6112 -0.5696
 2092TIP3   OH227766   4.806   0.086  15.022  0.1119 -0.3383 -0.2213
 2092TIP3    H127767   4.816   0.032  14.943 -1.1015  1.3612 -1.6317
 2092TIP3    H227768   4.894   0.114  15.044  0.5325 -1.3216 -0.6020
 2093TIP3   OH227769   1.596   2.567   2.238 -0.3747  0.5635 -0.8749
 2093TIP3    H127770   1.501   2.570   2.244 -0.3569 -0.2969  0.0772
 2093TIP3    H227771   1.619   2.478   2.264  0.7777  1.1903  0.3991
 2094TIP3   OH227772   3.696   0.379   5.825  0.4128 -0.4796  0.4196
 2094TIP3    H127773   3.670   0.467   5.853  1.7547  1.0765 -2.6363
 2094TIP3    H227774   3.618   0.325   5.839 -0.8550  1.4660  1.3520
 2095TIP3   OH227775   2.103   0.684  10.792 -0.4249 -0.2812 -0.4331
 2095TIP3    H127776   2.010   0.670  10.774 -0.8257  0.1704  1.0908
 2095TIP3    H227777   2.122   0.771  10.757 -0.6096 -0.3091 -0.6066
 2096TIP3   OH227778   4.176   4.275  12.543  0.8725  0.5859  0.1134
 2096TIP3    H127779   4.211   4.335  12.609 -0.1639  1.0087  0.2935
 2096TIP3    H227780   4.195   4.317  12.460  0.4082  1.0225  0.2276
 2097TIP3   OH227781   1.519   0.142   2.093 -0.2455  0.2329  0.5959
 2097TIP3    H127782   1.519   0.187   2.009 -0.7205 -1.3286 -0.2758
 2097TIP3    H227783   1.466   0.198   2.150 -2.2951 -0.0575 -0.9281
 2098TIP3   OH227784   6.469   3.232  14.389 -0.7380  0.1063  0.0479
 2098TIP3    H127785   6.478   3.210  14.481 -1.4005  0.1586  0.1304
 2098TIP3    H227786   6.521   3.311  14.377  0.3293 -0.5669  0.1131
 2099TIP3   OH227787   4.739   3.231  13.701  0.7001 -0.5476  0.1754
 2099TIP3    H127788   4.735   3.198  13.791 -1.9792 -0.3866  0.1865
 2099TIP3    H227789   4.774   3.320  13.710 -0.1919 -0.2668  1.1761
 2100TIP3   OH227790   2.321   2.008   3.490 -0.1772  0.0573 -0.6399
 2100TIP3    H127791   2.370   1.953   3.551  0.0658 -0.0523 -0.9305
 2100TIP3    H227792   2.386   2.072   3.459 -0.3608  0.2653 -0.5969
 2101TIP3   OH227793   2.316   3.641   2.343 -0.8123 -0.1765 -0.0123
 2101TIP3    H127794   2.248   3.691   2.297  1.5722  2.1332 -1.3145
 2101TIP3    H227795   2.346   3.576   2.279 -1.0437 -0.4593  0.1657
 2102TIP3   OH227796   6.321   3.250   5.075  0.0901 -0.1080  0.4453
 2102TIP3    H127797   6.254   3.254   5.144  0.1031  0.7349  0.4218
 2102TIP3    H227798   6.276   3.281   4.996 -0.2112 -2.0454 -0.1770
 2103TIP3   OH227799   2.358   2.198   5.832  0.5072  0.5060  0.0339
 2103TIP3    H127800   2.343   2.107   5.807 -0.7874  0.8651 -0.5400
 2103TIP3    H227801   2.329   2.203   5.923  0.9707  0.2597  0.1999
 2104TIP3   OH227802   6.227   1.183  14.027 -0.6377 -0.7815 -0.1567
 2104TIP3    H127803   6.143   1.167  14.070  0.3108 -1.2881  1.5846
 2104TIP3    H227804   6.264   1.258  14.074 -0.3748 -0.1586 -1.3238
 2105TIP3   OH227805   2.667   5.437  14.920 -0.5095 -0.0312 -0.5670
 2105TIP3    H127806   2.623   5.383  14.855 -1.2947 -2.3445  1.7395
 2105TIP3    H227807   2.758   5.407  14.918  0.0272  1.5172 -2.0957
 2106TIP3   OH227808   1.032   5.863  16.645  0.5783 -0.3590  0.1282
 2106TIP3    H127809   0.973   5.933  16.676  1.1107 -0.2790  1.0169
 2106TIP3    H227810   1.063   5.822  16.726 -0.1241 -1.9753 -0.3905
 2107TIP3   OH227811   0.042   5.954   4.315 -0.3639 -0.6021  0.1382
 2107TIP3    H127812   0.094   6.004   4.377 -0.0452 -1.1905  0.3566
 2107TIP3    H227813   0.091   5.957   4.234 -0.1943 -0.7988  0.2306
 2108TIP3   OH227814   2.566   1.977   3.016 -0.1532  0.3221  0.3655
 2108TIP3    H127815   2.488   2.025   3.044  0.9786  2.4211  0.1391
 2108TIP3    H227816   2.618   2.042   2.969  1.6778 -1.0606  0.3778
 2109TIP3   OH227817   1.452   4.022  12.527  0.6982 -1.2051  0.5289
 2109TIP3    H127818   1.390   4.042  12.597  1.2055 -0.3903  0.7587
 2109TIP3    H227819   1.446   3.927  12.516 -1.2641 -1.0367 -0.1190
 2110TIP3   OH227820   5.659   0.568  16.215  0.5203  0.0390 -0.0771
 2110TIP3    H127821   5.697   0.481  16.230  1.0561  0.3552  0.4768
 2110TIP3    H227822   5.735   0.624  16.195  0.2058  0.4274 -0.1893
 2111TIP3   OH227823   6.772   6.237   0.453  0.3573  0.8653  0.2343
 2111TIP3    H127824   6.827   6.207   0.526  1.0926  1.0987 -0.2193
 2111TIP3    H227825   6.767   6.161   0.395 -0.8758  0.4202  0.8894
 2112TIP3   OH227826   3.315   5.668   2.001 -0.3818 -0.1838 -0.2157
 2112TIP3    H127827   3.262   5.676   2.081  0.4892 -0.8531  0.4433
 2112TIP3    H227828   3.384   5.733   2.012 -0.7723  0.3534 -0.8578
 2113TIP3   OH227829   4.338   4.884  14.735  0.1347  0.2562  0.4499
 2113TIP3    H127830   4.427   4.875  14.770  1.3466  1.6371 -1.9988
 2113TIP3    H227831   4.349   4.878  14.640 -2.2334  1.5695  0.0165
 2114TIP3   OH227832   0.209   1.662   0.489 -0.3086 -0.5999  0.5547
 2114TIP3    H127833   0.190   1.571   0.463 -0.2182 -0.1692 -1.1325
 2114TIP3    H227834   0.180   1.714   0.415 -1.4617  0.8797  1.9887
 2115TIP3   OH227835   0.933   0.620  16.508  0.3714  0.0429  0.7237
 2115TIP3    H127836   0.991   0.677  16.459  0.5116 -1.4520 -0.9458
 2115TIP3    H227837   0.846   0.638  16.475  0.5020 -1.1944 -0.3838
 2116TIP3   OH227838   4.547   0.252  14.020  0.4940 -0.4015 -0.3947
 2116TIP3    H127839   4.473   0.192  14.014  1.4168 -1.5105 -0.9321
 2116TIP3    H227840   4.570   0.271  13.929  0.1318  0.9048 -0.2396
 2117TIP3   OH227841   1.070   5.352  16.446  0.5356 -0.1205  0.5957
 2117TIP3    H127842   1.085   5.421  16.511  1.8934  0.0096  0.1609
 2117TIP3    H227843   0.998   5.386  16.392  0.8519  0.7284  0.6954
 2118TIP3   OH227844   1.329   5.872  12.787 -0.2082 -0.7906  0.0672
 2118TIP3    H127845   1.357   5.818  12.712 -0.8692 -0.5011 -0.4022
 2118TIP3    H227846   1.391   5.944  12.789 -1.8401  0.8336 -2.0793
 2119TIP3   OH227847   2.362   5.904  10.737 -0.1267  0.1163  0.5274
 2119TIP3    H127848   2.300   5.831  10.749  1.5823 -1.5476 -0.2144
 2119TIP3    H227849   2.418   5.876  10.665  0.7454  2.1140  0.3642
 2120TIP3   OH227850   3.494   5.767  16.429 -0.3730 -0.2061  0.1354
 2120TIP3    H127851   3.445   5.844  16.400 -0.3606 -0.7109 -1.3409
 2120TIP3    H227852   3.584   5.784  16.400 -0.2892 -0.5992  0.1629
 2121TIP3   OH227853   5.161   1.250   2.203  0.0089 -0.5107 -0.1018
 2121TIP3    H127854   5.176   1.340   2.173 -0.9225 -0.5266 -0.6235
 2121TIP3    H227855   5.249   1.215   2.215  0.4061 -0.1574 -1.7799
 2122TIP3   OH227856   1.171   1.209   5.260 -0.4385  0.6252  0.0858
 2122TIP3    H127857   1.137   1.157   5.334  0.7577 -0.9312 -0.4172
 2122TIP3    H227858   1.182   1.297   5.296 -1.1759  0.2197  1.3710
 2123TIP3   OH227859   0.384   6.849  12.856  0.4945  0.1807 -0.1096
 2123TIP3    H127860   0.310   6.799  12.888  0.5795  1.2901  1.9823
 2123TIP3    H227861   0.461   6.808  12.896  0.6166  1.4750  1.0827
 2124TIP3   OH227862   5.144   0.659  14.306 -0.0396 -0.7179  0.1927
 2124TIP3    H127863   5.139   0.566  14.327 -1.4362 -0.5219  0.7876
 2124TIP3    H227864   5.172   0.700  14.387  0.6429 -0.6075 -0.0894
 2125TIP3   OH227865   6.424   4.357  15.634 -0.2177  0.1937  0.4032
 2125TIP3    H127866   6.476   4.295  15.687 -0.3792  1.1510  1.7146
 2125TIP3    H227867   6.342   4.311  15.618 -0.3779  0.0864  1.4540
 2126TIP3   OH227868   3.129   4.109   2.586 -0.2864  0.0006 -0.1895
 2126TIP3    H127869   3.178   4.096   2.667 -0.5796 -2.7841 -0.3445
 2126TIP3    H227870   3.195   4.112   2.517 -0.1382  0.5310 -0.0290
 2127TIP3   OH227871   4.954   2.858   3.466 -0.6755  0.4885  0.0669
 2127TIP3    H127872   4.897   2.918   3.514  0.2576  2.0778 -0.7188
 2127TIP3    H227873   5.015   2.826   3.532  1.2702  3.4574 -0.0772
 2128TIP3   OH227874   2.792   5.158   6.256  0.2177 -0.3686  0.4544
 2128TIP3    H127875   2.866   5.212   6.228 -0.7346  1.0451  0.5579
 2128TIP3    H227876   2.762   5.199   6.337  0.3536 -1.9405  1.3290
 2129TIP3   OH227877   5.805   6.846   4.864 -0.4798  0.1393 -0.1758
 2129TIP3    H127878   5.802   6.900   4.785 -1.3038 -1.9827 -1.6739
 2129TIP3    H227879   5.756   6.767   4.841 -0.2406 -0.7996  2.2820
 2130TIP3   OH227880   3.206   6.455   2.167  0.0207 -0.3920  0.2091
 2130TIP3    H127881   3.271   6.522   2.147 -0.9701  0.8213  0.8756
 2130TIP3    H227882   3.139   6.465   2.099 -1.3610  1.0281  1.6923
 2131TIP3   OH227883   6.109   4.071  13.594 -0.0079  0.9943  0.1415
 2131TIP3    H127884   6.112   4.118  13.510  1.1347  1.7765  0.5974
 2131TIP3    H227885   6.018   4.042  13.601 -0.0901  0.7765 -1.4395
 2132TIP3   OH227886   0.106   2.804   4.240  0.1834  0.1552  0.0798
 2132TIP3    H127887   0.196   2.832   4.256 -0.5663  1.4437  2.4383
 2132TIP3    H227888   0.056   2.839   4.313 -2.0407 -1.6776 -0.4402
 2133TIP3   OH227889   5.069   6.334   2.356  0.1486 -0.0647  0.1047
 2133TIP3    H127890   5.069   6.429   2.369  1.1499 -0.2773  2.1244
 2133TIP3    H227891   4.977   6.312   2.343 -0.5192  0.9078  2.5728
 2134TIP3   OH227892   6.107   2.177  11.178 -0.6470  0.5467  0.4296
 2134TIP3    H127893   6.153   2.138  11.104 -1.7686  0.1821 -0.0827
 2134TIP3    H227894   6.103   2.270  11.157  0.2401  0.6626  0.7007
 2135TIP3   OH227895   2.440   2.741   0.975  0.3111 -0.0718 -0.1737
 2135TIP3    H127896   2.407   2.714   0.889 -1.3256  2.5110 -0.4582
 2135TIP3    H227897   2.513   2.799   0.956  0.1667  0.2332  0.1854
 2136TIP3   OH227898   2.309   2.301   0.560  0.5742 -0.3402  0.2774
 2136TIP3    H127899   2.281   2.212   0.540 -0.6217 -0.0078  0.3610
 2136TIP3    H227900   2.367   2.326   0.488 -1.1667 -0.2718 -1.1815
 2137TIP3   OH227901   1.635   3.737   6.610  0.1862 -0.1299 -0.0517
 2137TIP3    H127902   1.650   3.662   6.552 -0.4893  0.4481 -1.0125
 2137TIP3    H227903   1.551   3.719   6.651  0.1060  0.0133 -0.1512
 2138TIP3   OH227904   6.236   4.898   2.264 -0.1286 -0.2220  0.4429
 2138TIP3    H127905   6.228   4.950   2.344 -0.9603 -2.2494  1.7445
 2138TIP3    H227906   6.213   4.959   2.194 -0.3329  1.3625  1.8264
 2139TIP3   OH227907   5.609   3.158   2.470 -0.7703 -0.4567 -0.0341
 2139TIP3    H127908   5.695   3.118   2.462 -1.3828 -1.7473 -0.4759
 2139TIP3    H227909   5.600   3.179   2.563  0.1285 -0.0286 -0.0371
 2140TIP3   OH227910   4.011   6.223  11.522  0.1924  0.3624 -0.1590
 2140TIP3    H127911   3.938   6.170  11.554 -0.7798  1.2646 -0.8132
 2140TIP3    H227912   4.000   6.308  11.566  2.2179 -0.1829  1.5350
 2141TIP3   OH227913   5.434   4.052  12.165  0.1915  0.7948  0.3667
 2141TIP3    H127914   5.500   4.027  12.230  0.9514  0.7059 -0.4191
 2141TIP3    H227915   5.477   4.037  12.081 -1.2922 -0.5748 -0.1945
 2142TIP3   OH227916   4.795   1.768  15.939 -0.1142  0.0276  0.0651
 2142TIP3    H127917   4.789   1.777  15.844 -1.5077 -0.3095  0.0962
 2142TIP3    H227918   4.812   1.675  15.953  1.6709  0.3273  0.1253
 2143TIP3   OH227919   5.190   1.129  15.092 -0.2916 -0.0831 -0.0098
 2143TIP3    H127920   5.244   1.208  15.092 -0.5723  0.1123  0.4118
 2143TIP3    H227921   5.102   1.160  15.071 -0.7845  0.0051  1.9486
 2144TIP3   OH227922   2.790   4.196   0.748 -0.1276 -0.6738 -0.2421
 2144TIP3    H127923   2.876   4.228   0.776 -0.7131 -0.3300  1.2642
 2144TIP3    H227924   2.785   4.218   0.655  1.5753 -1.0833 -0.4550
 2145TIP3   OH227925   0.893   4.787  12.105  0.2817 -0.6817  0.0159
 2145TIP3    H127926   0.921   4.697  12.086 -0.2941 -0.9853  0.5850
 2145TIP3    H227927   0.872   4.824  12.019 -2.0910 -1.9708 -0.0376
 2146TIP3   OH227928   5.675   2.116   3.678  0.0592 -0.5393  0.1742
 2146TIP3    H127929   5.660   2.041   3.621  0.4737 -0.0376 -0.6066
 2146TIP3    H227930   5.675   2.191   3.620 -1.7803  0.2517  1.1300
 2147TIP3   OH227931   4.802   2.863  16.059  0.9331  0.6399 -0.5788
 2147TIP3    H127932   4.885   2.833  16.098  0.7598 -0.2404 -0.8748
 2147TIP3    H227933   4.829   2.913  15.982  1.1786 -0.0795 -0.9671
 2148TIP3   OH227934   0.487   4.928   0.488 -0.3340  0.2964  0.0240
 2148TIP3    H127935   0.479   4.977   0.571 -0.7838  0.6086 -0.1982
 2148TIP3    H227936   0.541   4.985   0.433 -0.4094  0.2955 -0.0504
 2149TIP3   OH227937   3.024   3.805   4.999 -0.1253  0.7111 -0.3816
 2149TIP3    H127938   3.095   3.840   5.052 -1.1542 -0.3820  1.9111
 2149TIP3    H227939   3.000   3.876   4.940  0.7958  2.2178  0.9635
 2150TIP3   OH227940   4.761   5.774  11.384  0.0598 -0.3262  0.3756
 2150TIP3    H127941   4.697   5.805  11.448 -0.3122 -0.5324  0.1065
 2150TIP3    H227942   4.805   5.854  11.354  1.3184 -0.3627  2.0076
 2151TIP3   OH227943   6.582   0.054  15.562  0.2056 -0.4193  0.8264
 2151TIP3    H127944   6.553   0.125  15.505  0.3156  0.4353  1.8238
 2151TIP3    H227945   6.548   0.077  15.649  1.5960 -0.7725  1.4843
 2152TIP3   OH227946   0.648   4.312  15.725 -0.0776 -0.3941 -0.0496
 2152TIP3    H127947   0.555   4.288  15.727  0.1306 -1.3575  2.7694
 2152TIP3    H227948   0.648   4.407  15.722 -1.1013 -0.4177 -1.7282
 2153TIP3   OH227949   1.059   0.551   4.343  0.3160 -0.2575 -0.8766
 2153TIP3    H127950   1.048   0.632   4.293 -3.0351  1.0676  1.5769
 2153TIP3    H227951   1.135   0.568   4.399  0.4619  0.6453 -1.3265
 2154TIP3   OH227952   4.529   6.805  16.251  0.2708  0.1082 -0.1377
 2154TIP3    H127953   4.536   6.851  16.334 -0.3788 -0.3100  0.1530
 2154TIP3    H227954   4.614   6.818  16.209  0.4000  0.8008  0.3353
 2155TIP3   OH227955   3.323   4.907  15.466 -0.1286 -0.0645  0.1797
 2155TIP3    H127956   3.256   4.965  15.502 -1.1381  0.9672 -3.0788
 2155TIP3    H227957   3.290   4.819  15.483 -0.4528  0.3393  1.8378
 2156TIP3   OH227958   0.751   3.887  11.488 -0.2779  0.1056 -0.4099
 2156TIP3    H127959   0.768   3.919  11.576  0.8203  0.0086 -0.5803
 2156TIP3    H227960   0.655   3.892  11.479 -0.3203  1.0778  0.4153
 2157TIP3   OH227961   1.561   3.328  14.618 -0.0938  0.0628  0.6256
 2157TIP3    H127962   1.602   3.411  14.596 -0.9807  0.4234  0.3032
 2157TIP3    H227963   1.631   3.263  14.606  0.8471  0.8422  1.7292
 2158TIP3   OH227964   4.552   2.086  16.869 -0.0101 -0.2655 -0.2483
 2158TIP3    H127965   4.639   2.113  16.840  0.1783  0.2265  0.7159
 2158TIP3    H227966   4.557   1.991  16.874 -0.3756 -0.4725 -2.7487
 2159TIP3   OH227967   6.030   1.216  13.646  0.6261  0.4741  0.1200
 2159TIP3    H127968   6.119   1.239  13.674  0.6959 -1.5472  1.8183
 2159TIP3    H227969   6.018   1.262  13.563  3.0864  1.1565  0.0737
 2160TIP3   OH227970   5.656   5.358   2.737 -0.4106 -0.0453 -0.1357
 2160TIP3    H127971   5.724   5.297   2.765 -0.7608  0.1253  1.1584
 2160TIP3    H227972   5.597   5.305   2.683  1.0304 -0.0573 -1.7951
 2161TIP3   OH227973   4.252   1.269  14.756  0.5502  0.0507 -0.5811
 2161TIP3    H127974   4.316   1.265  14.827 -0.4343 -1.4807  0.2562
 2161TIP3    H227975   4.302   1.248  14.678  1.2129 -0.3900 -0.0487
 2162TIP3   OH227976   0.896   4.991   0.380  0.0204  0.2347  0.5348
 2162TIP3    H127977   0.921   4.991   0.472 -1.0051  0.8736  0.8278
 2162TIP3    H227978   0.804   5.016   0.379  0.0033  0.2263 -0.6651
 2163TIP3   OH227979   0.609   6.641   6.679  0.3932  0.1674 -0.1869
 2163TIP3    H127980   0.556   6.717   6.702 -1.5630 -0.9014 -0.9063
 2163TIP3    H227981   0.681   6.642   6.742 -0.8523  1.3326  1.3145
 2164TIP3   OH227982   2.425   1.628   2.632 -0.0787  0.4029  0.2811
 2164TIP3    H127983   2.339   1.671   2.640 -0.5315 -0.2826 -0.6904
 2164TIP3    H227984   2.404   1.539   2.606  0.9538  0.3864 -0.5401
 2165TIP3   OH227985   1.156   2.898  12.058 -0.2165  0.6311  0.4243
 2165TIP3    H127986   1.118   2.815  12.029 -0.1788  0.3486  1.1572
 2165TIP3    H227987   1.226   2.873  12.119 -1.1708  1.2212  1.8087
 2166TIP3   OH227988   0.015   5.202   4.076 -0.4022 -0.2372 -0.0660
 2166TIP3    H127989   0.048   5.141   4.142 -1.6903 -0.9373 -0.0286
 2166TIP3    H227990   0.066   5.282   4.089 -0.5705 -0.3792  1.7336
 2167TIP3   OH227991   1.545   2.095  15.159  0.0725  0.0866  0.5633
 2167TIP3    H127992   1.457   2.106  15.193  0.2836 -0.4767  1.3205
 2167TIP3    H227993   1.588   2.036  15.221  1.3126  1.1803  0.8086
 2168TIP3   OH227994   3.413   1.941  12.471  0.1990  0.0935 -0.1108
 2168TIP3    H127995   3.460   1.860  12.491  2.3380  1.1467 -0.5678
 2168TIP3    H227996   3.427   1.997  12.547 -0.2517  0.4639 -0.2955
 2169TIP3   OH227997   6.490   1.864  16.454  0.2245 -0.2912 -0.2970
 2169TIP3    H127998   6.469   1.919  16.530  1.3703 -2.2929  1.6138
 2169TIP3    H227999   6.579   1.833  16.471  1.4816  1.0079 -3.7061
 2170TIP3   OH228000   0.628   6.018  10.698  0.3799  0.0339  0.5708
 2170TIP3    H128001   0.620   6.112  10.688  2.2657  0.1502 -0.0670
 2170TIP3    H228002   0.542   5.991  10.732 -0.4530  1.8505  0.0511
 2171TIP3   OH228003   1.300   6.455   3.481  0.2030 -0.2758  0.1070
 2171TIP3    H128004   1.296   6.530   3.540  1.6071 -0.1504  0.0838
 2171TIP3    H228005   1.383   6.466   3.434  0.1546 -1.5296 -0.3083
 2172TIP3   OH228006   6.580   6.135   0.751 -0.3366  0.0551 -0.7366
 2172TIP3    H128007   6.574   6.209   0.691  2.0868  0.4387 -0.6269
 2172TIP3    H228008   6.542   6.167   0.833 -0.9498  0.5510 -1.2093
 2173TIP3   OH228009   2.064   4.917   2.028  0.0716 -0.2885  0.1028
 2173TIP3    H128010   2.039   4.833   2.067 -0.5219  0.7419  2.1114
 2173TIP3    H228011   2.028   4.914   1.939 -0.8477 -1.7384  0.4844
 2174TIP3   OH228012   6.637   2.759   3.818  0.5656 -0.0654  0.0800
 2174TIP3    H128013   6.562   2.814   3.842  0.1973 -1.1811  1.6578
 2174TIP3    H228014   6.615   2.672   3.852  1.9789 -0.7364 -0.6414
 2175TIP3   OH228015   0.277   2.201  11.159  0.5894  0.4657  0.3573
 2175TIP3    H128016   0.191   2.198  11.117  1.0573 -0.3441 -0.5849
 2175TIP3    H228017   0.281   2.287  11.200 -0.1175  1.0748 -0.8012
 2176TIP3   OH228018   6.363   0.164  13.856  0.1522 -0.2956 -0.2765
 2176TIP3    H128019   6.366   0.257  13.881  2.2987 -0.7631  1.6301
 2176TIP3    H228020   6.278   0.152  13.816 -1.0461  2.0519  1.3354
 2177TIP3   OH228021   6.389   4.352  14.264 -0.3980 -0.2156 -0.2865
 2177TIP3    H128022   6.449   4.418  14.299 -0.4929  0.8616 -2.0273
 2177TIP3    H228023   6.425   4.330  14.178 -1.4502 -0.9816 -0.5465
 2178TIP3   OH228024   1.060   6.681  10.855  0.3427  0.4535 -0.2904
 2178TIP3    H128025   1.010   6.727  10.788  1.0852  0.7293 -0.6734
 2178TIP3    H228026   0.994   6.642  10.912 -0.3002  0.8169 -0.7691
 2179TIP3   OH228027   2.558   6.176  12.458  0.3919 -0.4380  0.2074
 2179TIP3    H128028   2.584   6.261  12.494 -0.6751  1.0659 -2.3069
 2179TIP3    H228029   2.479   6.153  12.507 -0.3441  0.9541 -0.2733
 2180TIP3   OH228030   0.755   0.301  15.218  0.3770  0.1191 -0.7189
 2180TIP3    H128031   0.778   0.248  15.294  0.8064  0.8122 -0.3552
 2180TIP3    H228032   0.680   0.256  15.179 -1.1291  0.7946  1.2550
 2181TIP3   OH228033   2.943   4.064  11.642 -0.8514  0.2264 -0.4890
 2181TIP3    H128034   2.956   3.988  11.699 -2.9278 -0.5524 -0.9671
 2181TIP3    H228035   3.032   4.093  11.619  0.0113 -0.4557  1.7549
 2182TIP3   OH228036   2.073   6.488   0.931 -0.4464 -0.2533  0.3682
 2182TIP3    H128037   2.165   6.480   0.908  0.3899  1.2180  2.8532
 2182TIP3    H228038   2.044   6.397   0.944  0.1072 -0.8554 -2.0585
 2183TIP3   OH228039   6.592   6.147   1.667  0.7956  0.2366  0.2166
 2183TIP3    H128040   6.568   6.185   1.583  0.2737 -1.4972 -0.4715
 2183TIP3    H228041   6.510   6.141   1.716  1.0908  1.2100  0.8578
 2184TIP3   OH228042   0.623   4.843  14.639 -0.1301 -0.3048  0.1929
 2184TIP3    H128043   0.535   4.877  14.656 -0.3944 -1.0077  0.2684
 2184TIP3    H228044   0.676   4.921  14.622 -0.8335  0.1110 -0.1536
 2185TIP3   OH228045   5.524   3.287  12.805  0.0367  0.2704  0.1322
 2185TIP3    H128046   5.485   3.205  12.776  0.4627  0.2483 -0.3869
 2185TIP3    H228047   5.599   3.300  12.748  0.2082  0.8209  0.4706
 2186TIP3   OH228048   6.581   1.879  10.329 -0.3402  0.5281 -0.4276
 2186TIP3    H128049   6.501   1.836  10.360  0.4414 -0.0957  0.8369
 2186TIP3    H228050   6.562   1.906  10.240 -2.0562  0.6464 -0.0476
 2187TIP3   OH228051   2.968   3.225  14.511  0.3333 -0.0626 -0.0815
 2187TIP3    H128052   2.936   3.152  14.459 -1.4028 -0.6384  1.6447
 2187TIP3    H228053   3.048   3.193  14.552 -0.5840 -1.1859  0.9175
 2188TIP3   OH228054   6.847   3.356  16.861  0.3873 -0.0200  0.0236
 2188TIP3    H128055   6.756   3.331  16.879  0.7420 -1.4850 -0.0470
 2188TIP3    H228056   6.842   3.447  16.835 -1.4115 -0.7565 -2.6288
 2189TIP3   OH228057   4.725   4.798  11.640  0.2070  0.2065 -0.1296
 2189TIP3    H128058   4.697   4.888  11.653 -1.4076 -0.3082  0.2119
 2189TIP3    H228059   4.670   4.747  11.700 -0.0116 -1.1467 -1.4173
 2190TIP3   OH228060   2.774   6.254  14.038  0.2080  0.4835 -0.1117
 2190TIP3    H128061   2.685   6.262  14.002  0.3758  1.9584 -0.2600
 2190TIP3    H228062   2.767   6.287  14.127  0.5195  0.1726  0.0296
 2191TIP3   OH228063   6.846   6.200  16.523 -0.4945 -0.6013 -0.4393
 2191TIP3    H128064   6.916   6.174  16.582 -0.7686  1.9202  1.1599
 2191TIP3    H228065   6.784   6.248  16.578 -1.4523  0.7275 -2.5267
 2192TIP3   OH228066   3.118   4.962  13.253  0.1188 -0.0576  0.2704
 2192TIP3    H128067   3.063   4.908  13.310  0.6080 -0.9444 -0.0736
 2192TIP3    H228068   3.132   5.042  13.303  0.1687 -0.6320  1.2147
 2193TIP3   OH228069   0.153   2.538   3.746  0.6901  0.6074 -0.0151
 2193TIP3    H128070   0.240   2.524   3.783  0.4739 -0.3761  0.1680
 2193TIP3    H228071   0.110   2.598   3.807 -0.1989 -2.1455  2.3419
 2194TIP3   OH228072   3.082   0.898  10.643 -0.1882 -0.1687 -0.1866
 2194TIP3    H128073   3.104   0.805  10.629  0.4862  0.0217 -0.4422
 2194TIP3    H228074   3.162   0.945  10.621 -0.0725  0.3876  1.3223
 2195TIP3   OH228075   2.856   6.106  15.630 -0.0494 -0.3844 -0.6606
 2195TIP3    H128076   2.820   6.171  15.570 -1.9303  1.0772  1.8493
 2195TIP3    H228077   2.782   6.050  15.652  0.4784 -0.6377  0.5674
 2196TIP3   OH228078   3.515   6.426  11.301 -0.2710  0.3385 -0.7259
 2196TIP3    H128079   3.487   6.517  11.302  0.8743  0.7046 -0.4793
 2196TIP3    H228080   3.569   6.418  11.222  0.4846  0.1484 -0.1987
 2197TIP3   OH228081   1.503   0.187  11.354  0.0757 -0.6354  0.0720
 2197TIP3    H128082   1.581   0.181  11.409 -0.2006 -1.0695  0.4255
 2197TIP3    H228083   1.478   0.280  11.359  1.7588 -0.0012 -1.7493
 2198TIP3   OH228084   4.750   5.854   2.152 -0.1082  0.4869  0.3797
 2198TIP3    H128085   4.736   5.874   2.059  0.8344  1.1811  0.3644
 2198TIP3    H228086   4.812   5.921   2.181  1.4839 -1.1146  0.9018
 2199TIP3   OH228087   3.838   0.577  16.403  0.0572 -0.0364  0.1554
 2199TIP3    H128088   3.854   0.632  16.480 -0.3430 -1.4454  1.2937
 2199TIP3    H228089   3.926   0.547  16.378  0.2593  0.9485 -0.3686
 2200TIP3   OH228090   1.914   0.913   3.098 -0.0979 -0.5521 -0.0364
 2200TIP3    H128091   2.007   0.894   3.110  0.1259  0.5230 -0.0311
 2200TIP3    H228092   1.886   0.852   3.030  0.8739 -0.1096 -0.8556
 2201TIP3   OH228093   1.451   0.061  11.097 -0.2029  0.2535 -0.1142
 2201TIP3    H128094   1.526   0.013  11.061 -1.0490 -2.4915  1.4366
 2201TIP3    H228095   1.483   0.097  11.180 -0.9175 -2.4090  1.4265
 2202TIP3   OH228096   2.053   4.360  11.830  0.3478 -0.2825 -0.8580
 2202TIP3    H128097   2.087   4.415  11.760  1.4731  0.5722  0.3110
 2202TIP3    H228098   1.962   4.388  11.840 -0.0156 -0.8251 -2.3288
 2203TIP3   OH228099   1.237   3.837  14.131  0.0597  0.4408  0.0990
 2203TIP3    H128100   1.232   3.806  14.222  1.7317 -0.7407 -0.1417
 2203TIP3    H228101   1.294   3.914  14.135  1.2889 -0.4268 -0.0764
 2204TIP3   OH228102   3.115   5.655  10.507  0.2520  0.5123  0.3979
 2204TIP3    H128103   3.066   5.588  10.459 -0.7591  1.2387  0.3677
 2204TIP3    H228104   3.207   5.631  10.497  0.0238  0.2170 -1.2595
 2205TIP3   OH228105   1.061   5.841   0.544  0.1216  0.5283 -0.3736
 2205TIP3    H128106   1.088   5.820   0.455  3.1999  3.2230 -0.2952
 2205TIP3    H228107   0.991   5.905   0.533 -0.3104 -0.0145 -0.8179
 2206TIP3   OH228108   4.728   4.110   3.971 -0.1263  0.1167  0.0517
 2206TIP3    H128109   4.667   4.124   3.899  1.0958  1.4463 -0.7933
 2206TIP3    H228110   4.785   4.039   3.941 -0.2812 -0.0553  0.1655
 2207TIP3   OH228111   0.621   0.401   1.412 -0.1546 -0.0191 -0.6957
 2207TIP3    H128112   0.559   0.470   1.388  0.7014  0.7456 -0.7486
 2207TIP3    H228113   0.571   0.320   1.402 -0.9394  0.5303 -1.4088
 2208TIP3   OH228114   0.870   6.492  15.579 -0.1186  0.6059 -0.0695
 2208TIP3    H128115   0.812   6.442  15.521  1.4465 -1.5961  0.1482
 2208TIP3    H228116   0.903   6.427  15.641  1.9996  1.9193  0.2679
 2209TIP3   OH228117   0.778   0.383  12.663  0.4856 -0.1772  0.1890
 2209TIP3    H128118   0.817   0.464  12.632  1.3652  0.2815  2.3104
 2209TIP3    H228119   0.803   0.317  12.598  2.8166  0.5826  0.2360
 2210TIP3   OH228120   4.556   0.259   2.184  0.3654 -0.2322  0.3530
 2210TIP3    H128121   4.501   0.222   2.254 -0.6979  0.3942 -0.1310
 2210TIP3    H228122   4.569   0.351   2.211  0.0530 -0.0229 -0.1990
 2211TIP3   OH228123   3.184   3.749   2.437 -0.4975  1.0740 -0.6309
 2211TIP3    H128124   3.255   3.811   2.451 -2.1821  2.9705  0.1354
 2211TIP3    H228125   3.195   3.719   2.347  1.1793  1.3760 -0.5570
 2212TIP3   OH228126   0.300   1.283   4.556 -0.1634  0.1805 -0.0804
 2212TIP3    H128127   0.356   1.262   4.482 -1.4610 -0.4460 -0.9244
 2212TIP3    H228128   0.360   1.292   4.631  0.9501 -1.3493 -0.7591
 2213TIP3   OH228129   3.242   3.081  13.525  0.0932 -0.3849 -0.4758
 2213TIP3    H128130   3.281   3.042  13.603 -0.5362  2.0664  1.1680
 2213TIP3    H228131   3.317   3.102  13.469  0.5679 -1.9977 -0.4880
 2214TIP3   OH228132   4.149   4.749   3.387 -0.1244 -0.0479 -0.3112
 2214TIP3    H128133   4.104   4.806   3.325  1.7444  1.7048 -0.1480
 2214TIP3    H228134   4.199   4.689   3.332  1.4688  1.4530 -0.5710
 2215TIP3   OH228135   1.562   3.827   4.368  0.5618  0.1597  0.3863
 2215TIP3    H128136   1.469   3.823   4.391  0.1258  0.2830 -1.2335
 2215TIP3    H228137   1.573   3.758   4.303  1.3934  0.7228 -0.0873
 2216TIP3   OH228138   5.120   1.627  10.885 -0.7825  0.0004  0.2610
 2216TIP3    H128139   5.044   1.573  10.908 -1.4227  1.1551  0.9709
 2216TIP3    H228140   5.086   1.717  10.883  0.2366  0.3880 -0.9328
 2217TIP3   OH228141   4.066   4.805   1.467 -0.0031  0.0478  0.1726
 2217TIP3    H128142   3.993   4.828   1.525 -1.4134  1.4589 -2.0267
 2217TIP3    H228143   4.069   4.876   1.403  1.9942 -1.0393 -1.0245
 2218TIP3   OH228144   5.127   1.976   2.823  0.0853  0.0533  0.2138
 2218TIP3    H128145   5.193   1.974   2.892  0.2883  0.2463  0.0274
 2218TIP3    H228146   5.080   2.059   2.837 -0.0731 -0.0503  0.3034
 2219TIP3   OH228147   4.869   2.664   0.033 -0.0170 -0.3872  0.7222
 2219TIP3    H128148   4.832   2.625   0.112 -0.1116 -0.6338  0.5545
 2219TIP3    H228149   4.799   2.659  -0.032 -0.3036  0.7608  0.9173
 2220TIP3   OH228150   1.910   4.573   4.258  0.0143 -0.0951 -0.0421
 2220TIP3    H128151   1.959   4.495   4.283  2.3291  1.3626  0.1939
 2220TIP3    H228152   1.841   4.539   4.200  0.4039 -2.3903  0.7116
 2221TIP3   OH228153   4.446   5.596   4.325  0.2808  0.7265  0.4606
 2221TIP3    H128154   4.506   5.666   4.298  3.1015 -1.9397 -0.8591
 2221TIP3    H228155   4.425   5.549   4.244 -1.8194  0.1914  1.2424
 2222TIP3   OH228156   5.018   3.604   3.413 -0.1193 -0.5159  0.2786
 2222TIP3    H128157   4.964   3.673   3.451  0.8924  0.2004  0.4583
 2222TIP3    H228158   4.995   3.526   3.463  0.2470  0.1387  1.5010
 2223TIP3   OH228159   1.654   3.797  13.130  0.4137 -0.4411  0.4164
 2223TIP3    H128160   1.576   3.799  13.075  0.9621 -0.9320 -0.3949
 2223TIP3    H228161   1.727   3.805  13.069  0.9997  0.2800  1.1827
 2224TIP3   OH228162   3.201   1.211  13.841 -0.3796 -0.1421 -0.0389
 2224TIP3    H128163   3.216   1.146  13.909  0.8655 -0.0109 -0.1691
 2224TIP3    H228164   3.281   1.263  13.839  0.1476 -0.9310 -2.4662
 2225TIP3   OH228165   2.793   5.676   4.508 -0.6133  0.2273 -0.0144
 2225TIP3    H128166   2.704   5.710   4.500 -0.7927 -0.4181 -0.8870
 2225TIP3    H228167   2.788   5.614   4.581  0.0768  3.0992  2.6876
 2226TIP3   OH228168   5.737   2.018   3.071 -0.0257  0.1578  0.2051
 2226TIP3    H128169   5.752   1.939   3.123 -3.2099 -0.5461  0.2682
 2226TIP3    H228170   5.812   2.021   3.011  0.7423 -2.3138  0.8888
 2227TIP3   OH228171   2.564   5.844   0.532  0.2269 -0.5099  0.2548
 2227TIP3    H128172   2.602   5.873   0.449 -1.0834  1.4421  0.2952
 2227TIP3    H228173   2.491   5.789   0.507 -1.2870  1.5080  0.0048
 2228TIP3   OH228174   6.461   6.125  11.293  0.3948 -0.5707 -0.1477
 2228TIP3    H128175   6.525   6.055  11.280  0.1730 -0.8909  0.4446
 2228TIP3    H228176   6.511   6.195  11.335  0.1663 -1.1862  1.2034
 2229TIP3   OH228177   1.045   5.316   0.614  0.1070  0.8157  0.1045
 2229TIP3    H128178   0.965   5.291   0.660 -0.4986 -0.0628 -1.3466
 2229TIP3    H228179   1.016   5.373   0.543  0.8316  0.9220 -0.1164
 2230TIP3   OH228180   5.150   0.598  15.090 -0.5689  0.1880  0.3944
 2230TIP3    H128181   5.099   0.547  15.028  0.0412 -0.0139  0.0475
 2230TIP3    H228182   5.201   0.658  15.035  0.6088 -0.5692  0.6330
 2231TIP3   OH228183   0.094   1.443   2.751  0.6680  0.0728 -0.3977
 2231TIP3    H128184   0.012   1.482   2.780  0.8081 -1.0991  1.7910
 2231TIP3    H228185   0.126   1.502   2.683 -1.9214  0.5994 -1.2821
 2232TIP3   OH228186   0.540   5.002  11.582  0.2260  0.2652 -0.1900
 2232TIP3    H128187   0.451   5.017  11.550  0.2736 -0.8746 -0.9462
 2232TIP3    H228188   0.596   5.026  11.508  0.5343  0.6931  0.1797
 2233TIP3   OH228189   2.197   4.720   2.465 -0.4385  0.1504  0.6399
 2233TIP3    H128190   2.277   4.688   2.508 -0.9436 -1.1610  0.6602
 2233TIP3    H228191   2.181   4.658   2.395  0.1350  2.0379 -1.2634
 2234TIP3   OH228192   3.539   3.765  15.395  0.0169 -0.5599  0.0400
 2234TIP3    H128193   3.532   3.847  15.443  0.3411 -0.2204 -0.4829
 2234TIP3    H228194   3.476   3.707  15.437 -2.1147  0.7263 -1.1679
 2235TIP3   OH228195   3.710   5.602   4.810  0.0348  0.2462 -0.0092
 2235TIP3    H128196   3.645   5.588   4.741  0.7109 -2.0021 -0.2823
 2235TIP3    H228197   3.794   5.591   4.766  0.4763 -1.1842  1.1224
 2236TIP3   OH228198   6.616   4.531  14.014  0.1592  0.0798  0.1090
 2236TIP3    H128199   6.544   4.474  13.988 -0.4987  0.3700  1.2060
 2236TIP3    H228200   6.671   4.538  13.936  1.1274 -3.2839  0.3164
 2237TIP3   OH228201   3.007   1.852   5.992  0.4207 -0.0093 -0.1974
 2237TIP3    H128202   2.951   1.903   6.050  0.1435  0.0859 -0.5444
 2237TIP3    H228203   3.036   1.778   6.046  0.4595  0.2706  0.1690
 2238TIP3   OH228204   4.738   2.715   5.101  0.0539 -0.2457  0.7223
 2238TIP3    H128205   4.677   2.650   5.136  0.7067  0.3485  3.1478
 2238TIP3    H228206   4.824   2.675   5.110  0.3585  0.4869  1.1653
 2239TIP3   OH228207   4.371   0.840   3.746 -0.2233 -0.9273 -0.1554
 2239TIP3    H128208   4.317   0.811   3.672  1.6391 -2.7502 -0.8791
 2239TIP3    H228209   4.439   0.894   3.706 -0.2749 -0.3807  0.4851
 2240TIP3   OH228210   3.021   1.737   3.729  0.1692 -0.6444  0.4499
 2240TIP3    H128211   3.075   1.659   3.716  2.1567  1.0458 -2.6128
 2240TIP3    H228212   3.059   1.779   3.807  2.4877 -0.2338 -0.8161
 2241TIP3   OH228213   6.355   5.043   3.554  0.5754  0.5155  0.0219
 2241TIP3    H128214   6.392   5.124   3.591  0.4183  1.0799 -1.0316
 2241TIP3    H228215   6.270   5.068   3.519  0.2521 -0.2491  0.2292
 2242TIP3   OH228216   1.086   1.505   1.179 -0.4299 -0.2754  0.0969
 2242TIP3    H128217   1.042   1.428   1.213  0.1577 -0.3295  0.7544
 2242TIP3    H228218   1.163   1.471   1.133 -0.2899 -0.0978  0.1978
 2243TIP3   OH228219   3.902   2.388  13.106 -0.6806  0.3145  0.6180
 2243TIP3    H128220   3.827   2.447  13.120 -1.8603 -0.4839 -1.7342
 2243TIP3    H228221   3.862   2.304  13.085  0.8496 -0.0536 -1.0765
 2244TIP3   OH228222   1.354   0.375  15.190  0.1831 -0.4021  0.3458
 2244TIP3    H128223   1.394   0.453  15.229  0.2052 -0.9341  1.4098
 2244TIP3    H228224   1.422   0.307  15.197  0.1429 -0.5426 -0.5220
 2245TIP3   OH228225   3.549   6.331   1.583  0.3608  0.1757 -0.8726
 2245TIP3    H128226   3.615   6.384   1.629 -0.8011  1.2923 -0.4253
 2245TIP3    H228227   3.538   6.375   1.499 -1.5096  1.4685 -0.0220
 2246TIP3   OH228228   3.159   5.726  13.173 -0.2354  0.2018 -0.7853
 2246TIP3    H128229   3.107   5.804  13.191 -2.2255 -1.4812  1.3275
 2246TIP3    H228230   3.114   5.684  13.099 -1.3526 -0.7150  0.3716
 2247TIP3   OH228231   2.442   1.746   1.042 -0.1326 -0.1050  0.1011
 2247TIP3    H128232   2.360   1.760   0.995  0.0625 -0.5213 -0.3703
 2247TIP3    H228233   2.453   1.651   1.042  2.5697  0.0199 -3.7179
 2248TIP3   OH228234   3.657   1.278   0.299 -0.2153  0.2387  0.3053
 2248TIP3    H128235   3.686   1.198   0.343 -0.6576 -0.5186 -0.7456
 2248TIP3    H228236   3.569   1.258   0.267 -0.9471  1.6666  1.3097
 2249TIP3   OH228237   4.697   3.120  11.124  0.0338 -0.1854 -0.4880
 2249TIP3    H128238   4.770   3.105  11.184  0.9699  2.3066 -0.8938
 2249TIP3    H228239   4.729   3.087  11.040 -0.4203 -1.6285 -0.1203
 2250TIP3   OH228240   0.122   0.310   3.067  0.6369 -1.0046  0.1687
 2250TIP3    H128241   0.069   0.287   2.991 -0.6177  2.7183 -0.2944
 2250TIP3    H228242   0.209   0.329   3.032  0.0626  0.7003 -0.4181
 2251TIP3   OH228243   0.926   0.078   3.041 -0.4706  0.3496 -0.0053
 2251TIP3    H128244   1.011   0.043   3.066 -0.0385  0.9221 -0.6457
 2251TIP3    H228245   0.889   0.112   3.123  1.0904  2.5751 -0.1311
 2252TIP3   OH228246   5.961   6.312   1.156  0.1112 -0.0834 -0.0719
 2252TIP3    H128247   6.009   6.306   1.238  0.3588  0.5273 -0.1694
 2252TIP3    H228248   6.026   6.339   1.091 -0.3762  0.8779 -0.1819
 2253TIP3   OH228249   5.415   0.425   4.676  0.5190 -0.1385  0.2334
 2253TIP3    H128250   5.464   0.461   4.603 -0.6417 -2.1322 -1.6322
 2253TIP3    H228251   5.454   0.339   4.691 -0.3341 -0.4315  0.8723
 2254TIP3   OH228252   6.711   3.534   5.808  0.4967 -0.2965 -0.7141
 2254TIP3    H128253   6.755   3.619   5.816  1.8962 -0.8302 -2.2556
 2254TIP3    H228254   6.738   3.501   5.723 -1.8770 -1.2750 -1.1532
 2255TIP3   OH228255   4.696   6.624   4.119  0.3462  0.2174  0.1890
 2255TIP3    H128256   4.792   6.619   4.120  0.3532  0.3915  0.7262
 2255TIP3    H228257   4.668   6.557   4.182  0.2317  2.2817  2.4757
 2256TIP3   OH228258   5.628   1.043  16.627 -0.7707  0.3271 -0.4877
 2256TIP3    H128259   5.609   1.128  16.667  0.6254  0.3599  0.1418
 2256TIP3    H228260   5.618   1.059  16.533 -0.2503  1.2737 -0.3985
 2257TIP3   OH228261   4.743   6.008   2.501 -0.4842  0.4805  0.2477
 2257TIP3    H128262   4.669   5.956   2.470  0.7548 -0.3306 -1.5272
 2257TIP3    H228263   4.781   5.955   2.571 -2.2553  1.4985  2.0976
 2258TIP3   OH228264   2.542   5.178   1.479  0.8676  0.0739 -0.0715
 2258TIP3    H128265   2.480   5.160   1.549 -0.9177  2.5664 -0.9011
 2258TIP3    H228266   2.506   5.133   1.402  0.8496  0.3637 -0.2337
 2259TIP3   OH228267   3.806   1.311   0.071  0.2403  0.0947 -0.7496
 2259TIP3    H128268   3.783   1.307   0.163 -1.1420  0.7351 -1.0465
 2259TIP3    H228269   3.841   1.399   0.058  1.7753 -0.4604 -0.5643
 2260TIP3   OH228270   3.713   4.846  14.949  0.1801 -0.6364 -0.4902
 2260TIP3    H128271   3.678   4.850  15.038 -1.1188 -0.1619 -0.9941
 2260TIP3    H228272   3.757   4.929  14.936 -0.8995 -0.0944 -0.7741
 2261TIP3   OH228273   0.216   6.200  13.309  0.1754  0.0204 -0.6084
 2261TIP3    H128274   0.276   6.137  13.350 -1.4621 -2.0610 -1.2218
 2261TIP3    H228275   0.247   6.207  13.219  0.8605  0.7927 -0.3263
 2262TIP3   OH228276   5.141   3.391   4.471 -0.1181  0.5560  0.6355
 2262TIP3    H128277   5.077   3.333   4.432 -0.7029  0.2279  2.0012
 2262TIP3    H228278   5.198   3.334   4.522 -0.4883  1.1140  1.7163
 2263TIP3   OH228279   4.140   2.543  13.092 -0.1898  0.6042 -0.3595
 2263TIP3    H128280   4.058   2.494  13.097 -1.4265  2.6702  0.6445
 2263TIP3    H228281   4.199   2.485  13.044 -2.5112 -0.5488 -2.0060
 2264TIP3   OH228282   0.526   3.230   4.528 -0.4876  0.1637 -0.2822
 2264TIP3    H128283   0.593   3.287   4.564  1.4169 -3.1521  1.9382
 2264TIP3    H228284   0.450   3.243   4.586 -0.5673  1.3300 -0.6223
 2265TIP3   OH228285   6.024   2.815  10.360  0.3223 -0.0198 -0.0117
 2265TIP3    H128286   6.028   2.740  10.419  0.0369  0.7410  1.0010
 2265TIP3    H228287   5.932   2.841  10.361  0.8178  1.9603  1.7901
 2266TIP3   OH228288   5.919   2.405   4.535  0.4833 -0.7521 -0.7385
 2266TIP3    H128289   5.915   2.312   4.515 -0.6416 -0.7216 -0.6965
 2266TIP3    H228290   5.915   2.448   4.449  3.8502 -0.7348 -1.0422
 2267TIP3   OH228291   5.942   2.582   2.748  0.0491  0.0092  0.0332
 2267TIP3    H128292   5.979   2.668   2.726 -0.7856  0.5913  0.8514
 2267TIP3    H228293   5.850   2.599   2.765 -0.0404 -0.9876  0.6107
 2268TIP3   OH228294   1.781   0.892   1.065 -0.4020 -0.0192 -0.3160
 2268TIP3    H128295   1.744   0.875   1.152 -1.0033 -1.6424 -0.8465
 2268TIP3    H228296   1.758   0.983   1.047 -2.4928 -0.3747  0.1991
 2269TIP3   OH228297   2.496   6.035   2.431  0.4582  0.6270 -0.0999
 2269TIP3    H128298   2.511   5.951   2.473  1.2729  0.7601 -0.1207
 2269TIP3    H228299   2.402   6.052   2.445  0.5290  0.2649  0.9133
 2270TIP3   OH228300   0.072   3.285   2.320  0.1737 -0.0603 -0.2958
 2270TIP3    H128301   0.047   3.363   2.370 -0.4081 -0.7820  0.5781
 2270TIP3    H228302  -0.011   3.249   2.288  0.3193 -0.9606  0.2991
 2271TIP3   OH228303   1.101   0.270  15.072  0.1410 -0.3293 -0.1572
 2271TIP3    H128304   1.194   0.293  15.077 -0.1208  1.2632 -1.5379
 2271TIP3    H228305   1.066   0.294  15.159  0.8055  0.1429 -0.0101
 2272TIP3   OH228306   4.251   4.130  11.210  0.3547 -0.0215  0.8092
 2272TIP3    H128307   4.219   4.202  11.266  0.4494  0.0968  0.7111
 2272TIP3    H228308   4.185   4.061  11.220 -0.9304  0.8883 -0.8030
 2273TIP3   OH228309   2.516   4.348   3.258  0.2924 -0.3582 -0.6329
 2273TIP3    H128310   2.575   4.390   3.320 -0.5315  0.2226 -0.2152
 2273TIP3    H228311   2.429   4.358   3.297 -0.0547 -1.4501 -1.0903
 2274TIP3   OH228312   3.960   3.995  15.852 -0.1752  0.1006 -0.4903
 2274TIP3    H128313   3.993   4.081  15.828 -0.0255 -0.5210 -2.7314
 2274TIP3    H228314   4.037   3.938  15.852 -0.4391 -0.2652 -0.2014
 2275TIP3   OH228315   4.618   4.563  12.872  0.6786 -0.0764  0.2619
 2275TIP3    H128316   4.568   4.491  12.911  0.0475 -0.3734 -1.0451
 2275TIP3    H228317   4.563   4.640  12.884 -0.2003 -0.4264 -1.2943
 2276TIP3   OH228318   3.838   0.519   3.236 -0.3596 -0.3792  0.2198
 2276TIP3    H128319   3.769   0.585   3.231  1.2361  1.3503 -0.0597
 2276TIP3    H228320   3.892   0.546   3.310  1.6257  0.0033 -1.2931
 2277TIP3   OH228321   2.757   0.977  12.192  0.0787  0.2298 -0.2613
 2277TIP3    H128322   2.799   0.971  12.278  0.1522 -1.0470 -0.3685
 2277TIP3    H228323   2.676   1.026  12.209  0.6907  1.0583  0.2962
 2278TIP3   OH228324   2.827   3.573  15.749  0.9155 -0.4396  0.0279
 2278TIP3    H128325   2.743   3.553  15.790  1.4344  0.9505  1.9289
 2278TIP3    H228326   2.805   3.600  15.660 -0.4943 -1.5314  0.0223
 2279TIP3   OH228327   2.114   0.629  11.126 -0.7502  0.4702 -0.5148
 2279TIP3    H128328   2.070   0.566  11.068 -1.7071  2.0036 -1.5185
 2279TIP3    H228329   2.100   0.714  11.084 -0.1063  1.4540  1.1784
 2280TIP3   OH228330   0.463   3.913   5.351  0.0188 -0.1642  0.3380
 2280TIP3    H128331   0.372   3.883   5.350  0.3670 -1.4153 -2.1945
 2280TIP3    H228332   0.502   3.868   5.426 -0.8493 -1.6791 -0.0783
 2281TIP3   OH228333   6.722   1.220   5.964  0.7060  0.2404 -0.0210
 2281TIP3    H128334   6.760   1.238   6.050  1.0224  1.5382 -0.4044
 2281TIP3    H228335   6.721   1.125   5.957  0.3202  0.0993  1.5757
 2282TIP3   OH228336   4.076   1.386  15.532 -0.7301  0.3651  0.0473
 2282TIP3    H128337   4.051   1.410  15.621 -0.2652  1.6046 -0.1351
 2282TIP3    H228338   3.995   1.353  15.492 -1.3824  1.5572  0.3517
 2283TIP3   OH228339   0.093   6.736  14.878 -0.0933  0.1121 -0.0062
 2283TIP3    H128340   0.184   6.761  14.864  0.0113 -0.8654 -1.3186
 2283TIP3    H228341   0.048   6.819  14.894  1.3045  0.4574  2.8469
 2284TIP3   OH228342   0.010   4.810  14.336  0.8405  0.2683  0.3751
 2284TIP3    H128343   0.026   4.716  14.331  0.3264  0.2113 -0.6080
 2284TIP3    H228344  -0.043   4.822  14.415 -1.7593 -0.7142 -1.1074
 2285TIP3   OH228345   5.116   0.105   1.716  0.0511 -0.3096 -0.0627
 2285TIP3    H128346   5.025   0.077   1.722 -0.5340  1.1137 -1.5475
 2285TIP3    H228347   5.138   0.134   1.805 -1.3643  0.4784  0.0653
 2286TIP3   OH228348   4.281   3.231  16.603 -0.1763 -0.0756 -0.0357
 2286TIP3    H128349   4.376   3.228  16.606 -0.1129  1.2785 -0.1772
 2286TIP3    H228350   4.253   3.213  16.692  0.1191 -2.2486 -0.3253
 2287TIP3   OH228351   0.636   3.317   5.943 -0.3500 -0.2939  0.3329
 2287TIP3    H128352   0.638   3.412   5.948  0.4536 -0.2635 -0.3764
 2287TIP3    H228353   0.621   3.289   6.033 -2.7413  0.5231  0.2646
 2288TIP3   OH228354   2.832   4.028   2.758  0.1260 -0.5023  0.1317
 2288TIP3    H128355   2.899   4.078   2.804 -0.1842  0.3360 -0.2967
 2288TIP3    H228356   2.869   4.013   2.671 -0.4788  0.5159 -0.3191
 2289TIP3   OH228357   0.954   0.168  11.181  0.1605 -0.2978  0.1121
 2289TIP3    H128358   1.023   0.106  11.207  1.1361 -0.1182 -1.9204
 2289TIP3    H228359   0.917   0.131  11.101  0.0008  1.1787 -0.5256
 2290TIP3   OH228360   4.260   6.113   3.554 -0.1255 -0.4382 -0.4924
 2290TIP3    H128361   4.260   6.017   3.554  2.2893 -0.5110  1.1223
 2290TIP3    H228362   4.168   6.137   3.543 -1.1922 -3.0029  1.8426
 2291TIP3   OH228363   0.082   2.678  15.153 -0.1190 -0.8367  0.3442
 2291TIP3    H128364  -0.008   2.691  15.125  0.6308  2.8762 -0.8726
 2291TIP3    H228365   0.129   2.651  15.074  0.0423 -2.0060  0.8066
 2292TIP3   OH228366   2.721   5.294   6.480  0.3519  0.2690  0.1035
 2292TIP3    H128367   2.657   5.301   6.551 -0.8073  2.5386 -1.0550
 2292TIP3    H228368   2.745   5.384   6.461 -1.5472  0.0666 -4.2353
 2293TIP3   OH228369   0.977   4.597   3.426  0.5377 -0.2232  0.1604
 2293TIP3    H128370   0.900   4.652   3.409  1.3802  0.9652  0.0792
 2293TIP3    H228371   1.036   4.615   3.353  0.4373 -2.0194 -0.3938
 2294TIP3   OH228372   4.436   3.965   5.497  0.5589 -0.2151 -0.1650
 2294TIP3    H128373   4.466   4.054   5.516  1.2197 -0.2448 -1.0185
 2294TIP3    H228374   4.360   3.977   5.439  0.4144 -0.2022  0.0254
 2295TIP3   OH228375   6.137   2.588  12.934 -0.7475 -0.0668 -0.1287
 2295TIP3    H128376   6.205   2.523  12.916 -0.4553  0.2335 -0.1187
 2295TIP3    H228377   6.093   2.556  13.013  0.4248  0.5566  0.8075
 2296TIP3   OH228378   3.930   3.262  10.895  0.4596  0.3384 -0.7194
 2296TIP3    H128379   3.943   3.232  10.985  1.2860  1.0732 -0.5798
 2296TIP3    H228380   3.877   3.194  10.855 -1.6335  0.8946  0.8484
 2297TIP3   OH228381   3.200   4.227   0.054 -0.0662  0.8499  0.4536
 2297TIP3    H128382   3.156   4.148   0.086  2.2831 -1.6887 -2.0304
 2297TIP3    H228383   3.144   4.299   0.083 -2.2868 -1.6503  3.0006
 2298TIP3   OH228384   1.018   5.863   2.524 -0.2324  0.6641  0.1845
 2298TIP3    H128385   0.951   5.795   2.539 -0.0029  0.5399  0.6915
 2298TIP3    H228386   1.072   5.828   2.453  0.5665 -0.2319  1.1799
 2299TIP3   OH228387   4.270   5.697   1.873 -0.1406 -0.0937 -0.3011
 2299TIP3    H128388   4.203   5.746   1.825  1.2957  1.1134 -1.1769
 2299TIP3    H228389   4.337   5.762   1.894  0.6349 -1.1995  0.8029
 2300TIP3   OH228390   5.035   1.386   3.938 -0.5004 -0.4441  0.2682
 2300TIP3    H128391   5.075   1.411   4.021 -0.5612 -0.7618  0.3946
 2300TIP3    H228392   5.110   1.366   3.881 -0.4003  1.2341 -0.2369
 2301TIP3   OH228393   2.008   6.309  15.657 -0.1077 -0.0671  0.5818
 2301TIP3    H128394   2.058   6.381  15.696 -1.6250  0.3273  1.9139
 2301TIP3    H228395   2.028   6.314  15.564 -0.3460  2.2682  0.5889
 2302TIP3   OH228396   6.057   5.759  13.901  0.4513  0.5229 -0.2139
 2302TIP3    H128397   6.069   5.669  13.932  0.3460  0.9353  1.1073
 2302TIP3    H228398   6.015   5.750  13.816 -1.6084 -0.6482  0.8433
 2303TIP3   OH228399   4.111   4.797   3.645  0.1491 -0.4054  0.4538
 2303TIP3    H128400   4.113   4.778   3.551 -1.5827 -1.0484  0.5219
 2303TIP3    H228401   4.202   4.815   3.667  0.3731  1.5289 -1.6977
 2304TIP3   OH228402   2.197   2.911   4.579  0.5295  0.0852 -0.4803
 2304TIP3    H128403   2.236   2.986   4.625 -1.3878  0.4351  0.6514
 2304TIP3    H228404   2.239   2.835   4.618  0.6474  0.4783  0.1700
 2305TIP3   OH228405   4.046   5.717   1.309  0.2016 -0.1967 -0.1100
 2305TIP3    H128406   4.104   5.705   1.385  0.1258 -1.5780 -0.2557
 2305TIP3    H228407   4.026   5.628   1.280 -0.0406  0.3148 -1.5565
 2306TIP3   OH228408   3.618   2.623  14.420 -0.4369 -0.5809 -0.4416
 2306TIP3    H128409   3.640   2.642  14.329 -1.3887  0.0786 -0.5538
 2306TIP3    H228410   3.540   2.676  14.437  0.2689  0.0629  1.0463
 2307TIP3   OH228411   0.910   5.359   5.005 -0.6783  0.6282 -0.1679
 2307TIP3    H128412   0.895   5.265   5.006 -0.1461  0.5408  0.1920
 2307TIP3    H228413   0.845   5.395   5.064 -0.7074  0.4571 -0.0971
 2308TIP3   OH228414   1.013   3.499  14.971  1.0714 -0.3797 -0.4073
 2308TIP3    H128415   0.977   3.458  15.050  1.8026  0.7237  0.5170
 2308TIP3    H228416   0.942   3.555  14.939  0.9642 -0.4202 -0.2407
 2309TIP3   OH228417   3.371   6.286   6.108 -0.4553  0.1125  0.0783
 2309TIP3    H128418   3.330   6.263   6.025 -1.9740 -2.0490  1.3231
 2309TIP3    H228419   3.314   6.246   6.174  0.9171  1.4171  2.1457
 2310TIP3   OH228420   0.995   3.913  15.617  0.3001 -0.2461  0.3788
 2310TIP3    H128421   0.944   3.834  15.601 -0.3952  0.1554  0.5802
 2310TIP3    H228422   0.936   3.971  15.666 -0.0351  1.3096 -1.7016
 2311TIP3   OH228423   3.123   1.583   4.336  0.3013  0.3343 -0.7738
 2311TIP3    H128424   3.088   1.529   4.266 -0.0333 -0.2557 -0.1685
 2311TIP3    H228425   3.162   1.520   4.398  0.7652  0.8509 -0.5255
 2312TIP3   OH228426   0.544   1.812  10.766 -0.1324 -0.3072 -0.0130
 2312TIP3    H128427   0.585   1.809  10.853  1.9883 -1.4465 -0.9609
 2312TIP3    H228428   0.615   1.837  10.707 -1.5892  0.7143 -1.4221
 2313TIP3   OH228429   4.581   2.641   4.857  0.0949 -0.7215 -0.4731
 2313TIP3    H128430   4.542   2.568   4.808  0.4491 -1.7230  0.6953
 2313TIP3    H228431   4.662   2.606   4.893  0.2396  0.2321  0.1731
 2314TIP3   OH228432   0.668   3.581  12.639  0.3170 -0.3580 -0.4674
 2314TIP3    H128433   0.661   3.495  12.679  2.0227  0.3446  1.5090
 2314TIP3    H228434   0.644   3.642  12.708  0.3315  0.8154 -1.4601
 2315TIP3   OH228435   3.734   4.635   2.835  0.2365 -0.5804  0.8185
 2315TIP3    H128436   3.663   4.699   2.835  2.0084  1.5109  1.0937
 2315TIP3    H228437   3.700   4.561   2.887 -1.2355  0.9430  2.1446
 2316TIP3   OH228438   0.831   3.990   5.735  0.3599 -0.2440 -0.4557
 2316TIP3    H128439   0.740   3.982   5.763 -0.1477  1.7416 -1.3856
 2316TIP3    H228440   0.854   4.081   5.753  1.8053 -0.4176 -1.2897
 2317TIP3   OH228441   0.260   1.940  11.855  0.0341 -0.2523 -0.0901
 2317TIP3    H128442   0.244   1.859  11.807  2.9507 -1.0219  0.0576
 2317TIP3    H228443   0.206   1.931  11.934 -1.0331 -1.2027 -0.8813
 2318TIP3   OH228444   5.438   3.107   3.983  0.2912  0.6164  0.0930
 2318TIP3    H128445   5.533   3.094   3.983  0.0834 -1.3958  1.0222
 2318TIP3    H228446   5.421   3.160   4.061  0.5947  0.3129  0.3684
 2319TIP3   OH228447   5.926   2.128  15.537  0.0425 -0.6495  0.4645
 2319TIP3    H128448   5.913   2.161  15.448 -0.9275 -0.3192  0.7161
 2319TIP3    H228449   5.990   2.187  15.576 -1.3817  0.7710  0.7854
 2320TIP3   OH228450   2.937   4.525   4.898 -0.4165  0.5474 -0.5128
 2320TIP3    H128451   3.021   4.571   4.909 -1.2138  1.4691  2.5377
 2320TIP3    H228452   2.940   4.493   4.808  2.3086  2.3446 -1.2004
 2321TIP3   OH228453   1.520   2.661  15.913 -0.5396  0.0962  0.1345
 2321TIP3    H128454   1.606   2.691  15.941 -1.3702  0.0136  3.2111
 2321TIP3    H228455   1.538   2.596  15.845  1.8853 -0.4014  1.1484
 2322TIP3   OH228456   2.353   5.360  16.936 -0.0473  0.2276 -0.8155
 2322TIP3    H128457   2.363   5.283  16.992  0.7826  0.3142 -0.8397
 2322TIP3    H228458   2.343   5.325  16.848  1.7951  0.1678 -1.0320
 2323TIP3   OH228459   5.234   0.476  11.635 -0.2057  0.1135 -0.4524
 2323TIP3    H128460   5.261   0.392  11.671  1.1191  0.2755 -1.0112
 2323TIP3    H228461   5.315   0.524  11.621 -0.6559  0.3182 -2.9970
 2324TIP3   OH228462   2.910   4.139  14.518 -0.4250 -0.0484 -0.2865
 2324TIP3    H128463   2.943   4.096  14.439 -0.5801 -0.0969 -0.3244
 2324TIP3    H228464   2.931   4.078  14.589 -0.5423 -0.1322 -0.3258
 2325TIP3   OH228465   4.235   1.883  14.306  0.1097  0.3351  0.3794
 2325TIP3    H128466   4.264   1.950  14.244  1.2395 -0.2053  0.2932
 2325TIP3    H228467   4.148   1.912  14.334 -1.1824 -0.2286 -2.6486
 2326TIP3   OH228468   5.896   0.594  16.073 -0.4348 -0.3428  0.1543
 2326TIP3    H128469   5.937   0.625  16.153 -0.3643  1.0393 -0.3986
 2326TIP3    H228470   5.923   0.502  16.066  2.2784  0.3990 -0.0164
 2327TIP3   OH228471   5.634   5.452  12.806  0.2401  0.6023 -0.1388
 2327TIP3    H128472   5.679   5.524  12.762  1.5431 -0.6460 -0.9189
 2327TIP3    H228473   5.682   5.440  12.888 -0.3929  1.0298  0.3083
 2328TIP3   OH228474   1.898   2.628   1.117 -0.2236 -0.3268 -0.6343
 2328TIP3    H128475   1.960   2.690   1.079 -0.2168  0.9454  1.3165
 2328TIP3    H228476   1.822   2.631   1.059  1.0647 -1.0818 -2.4417
 2329TIP3   OH228477   2.423   4.919   5.826  0.7798  0.0111  0.5007
 2329TIP3    H128478   2.344   4.871   5.806  2.5627 -2.8860 -0.1885
 2329TIP3    H228479   2.476   4.914   5.746  1.5688  2.1842  0.8016
 2330TIP3   OH228480   3.706   0.085  11.155  0.3810  0.1774 -0.1807
 2330TIP3    H128481   3.777   0.052  11.211  1.0621 -1.3729 -1.8515
 2330TIP3    H228482   3.705   0.179  11.172  0.8258 -0.1516  2.0776
 2331TIP3   OH228483   3.318   6.291  14.820  0.1291 -0.2259 -0.1862
 2331TIP3    H128484   3.344   6.260  14.906 -0.6325  0.4916  0.3087
 2331TIP3    H228485   3.335   6.385  14.821 -2.0926  0.2219  0.0374
 2332TIP3   OH228486   3.034   1.352   5.426  0.0622 -0.3003  0.5115
 2332TIP3    H128487   3.082   1.383   5.503 -1.5942 -0.6824  1.7606
 2332TIP3    H228488   3.093   1.290   5.384  0.9131 -0.2620  1.6216
 2333TIP3   OH228489   4.872   2.305  12.702 -0.2155  0.7712 -0.4474
 2333TIP3    H128490   4.949   2.356  12.728  0.1489  0.5021 -0.9748
 2333TIP3    H228491   4.800   2.368  12.704  0.2054  1.2772 -0.9661
 2334TIP3   OH228492   4.216   3.228   6.037  0.1435  1.0901  0.2206
 2334TIP3    H128493   4.184   3.138   6.047  1.7184  0.4277 -0.3593
 2334TIP3    H228494   4.238   3.256   6.126  3.2127 -0.5432  0.1085
 2335TIP3   OH228495   6.440   6.823   1.300  0.6634  0.3530  0.0784
 2335TIP3    H128496   6.417   6.733   1.278  2.8548 -0.1321 -0.5047
 2335TIP3    H228497   6.384   6.845   1.374  0.1404 -1.5183  0.2901
 2336TIP3   OH228498   2.689   5.812  10.582 -0.6850  0.5349  0.5915
 2336TIP3    H128499   2.752   5.835  10.650  0.9199 -0.0407 -0.6502
 2336TIP3    H228500   2.676   5.718  10.592  1.9854 -0.2057 -1.7507
 2337TIP3   OH228501   4.693   3.050   0.628  0.7800  0.5570  0.2252
 2337TIP3    H128502   4.782   3.035   0.595  0.6963 -0.2106  0.3340
 2337TIP3    H228503   4.671   2.970   0.676 -0.0573  0.6471  0.0114
 2338TIP3   OH228504   1.912   1.711  15.972 -0.0117 -0.3616  0.7506
 2338TIP3    H128505   1.901   1.679  16.062 -1.3121  1.0243  1.1258
 2338TIP3    H228506   1.866   1.795  15.971 -0.1711 -0.4376 -1.2764
 2339TIP3   OH228507   0.500   1.902   4.679 -1.1282 -0.0827  0.0326
 2339TIP3    H128508   0.520   1.898   4.586 -0.2216 -0.1550  0.2138
 2339TIP3    H228509   0.531   1.988   4.707 -1.2835 -0.1082  0.2878
 2340TIP3   OH228510   3.539   3.373  16.690  0.2770  0.2360  0.6555
 2340TIP3    H128511   3.527   3.279  16.695 -1.8351  0.3854 -0.3952
 2340TIP3    H228512   3.631   3.385  16.664  0.2762 -1.5574 -0.3019
 2341TIP3   OH228513   4.424   2.036   4.939 -0.2030  0.0465  0.1217
 2341TIP3    H128514   4.449   2.057   4.849 -0.2631  0.8529  0.2887
 2341TIP3    H228515   4.507   2.016   4.982  0.0334  1.4692  0.3492
 2342TIP3   OH228516   4.119   2.537  13.831 -0.3837  0.1334  0.0763
 2342TIP3    H128517   4.027   2.555  13.848 -0.6337 -0.9972 -0.0028
 2342TIP3    H228518   4.165   2.610  13.872 -1.2254 -0.1903  1.7239
 2343TIP3   OH228519   6.722   4.196  15.532  0.1075 -0.4742  0.3019
 2343TIP3    H128520   6.638   4.158  15.508  0.3921 -0.5414 -0.6165
 2343TIP3    H228521   6.701   4.259  15.601 -0.4799 -1.6599  1.2421
 2344TIP3   OH228522   6.050   2.997  15.041  0.2707 -0.2878 -0.0508
 2344TIP3    H128523   6.135   3.039  15.046  0.5362 -1.0013  2.5568
 2344TIP3    H228524   5.991   3.056  15.087 -0.7422  0.2676 -1.9445
 2345TIP3   OH228525   2.589   3.762   1.960  0.1880  0.2539  0.1350
 2345TIP3    H128526   2.604   3.727   2.048  1.2035 -0.4618 -0.2981
 2345TIP3    H228527   2.623   3.694   1.901  0.7809  1.3069 -0.7789
 2346TIP3   OH228528   3.931   4.746  16.044  0.0085 -0.2473 -0.4265
 2346TIP3    H128529   4.016   4.729  16.004 -0.0280  0.6636 -0.9280
 2346TIP3    H228530   3.941   4.830  16.088 -0.7996  0.1665 -0.9993
 2347TIP3   OH228531   6.143   0.315   4.741  0.2792  0.2118  0.3301
 2347TIP3    H128532   6.201   0.352   4.807 -1.0154 -1.3753  2.4895
 2347TIP3    H228533   6.185   0.233   4.715 -0.6111 -0.6560  1.4794
 2348TIP3   OH228534   1.592   3.646  12.822 -0.2058 -0.3534 -0.3289
 2348TIP3    H128535   1.649   3.715  12.857 -0.0001  0.1341 -1.5851
 2348TIP3    H228536   1.519   3.693  12.782  0.7003 -0.7378 -2.5871
 2349TIP3   OH228537   6.009   4.310   2.486 -0.8662  0.1476 -0.3280
 2349TIP3    H128538   6.032   4.239   2.545  0.7392 -0.4409 -1.5964
 2349TIP3    H228539   5.918   4.294   2.463 -0.2920 -2.0488 -1.2920
 2350TIP3   OH228540   6.403   1.993  13.070  0.4066  0.3600 -0.2094
 2350TIP3    H128541   6.412   1.945  13.153 -1.6276  0.2118 -0.0198
 2350TIP3    H228542   6.317   1.967  13.036  0.8074  1.1219 -1.9213
 2351TIP3   OH228543   6.056   4.942   3.597  0.2060  0.0504 -0.8079
 2351TIP3    H128544   6.109   4.886   3.542  0.4544  1.0132 -1.5678
 2351TIP3    H228545   5.987   4.884   3.631  1.0835 -0.9446 -0.6950
 2352TIP3   OH228546   5.315   5.343   1.084  0.5719  0.4204 -0.4291
 2352TIP3    H128547   5.246   5.350   1.150 -0.1832  0.9330 -1.2583
 2352TIP3    H228548   5.396   5.354   1.134  0.0546 -0.0424  0.5341
 2353TIP3   OH228549   5.812   5.739  14.403  0.2458  0.2382  0.0493
 2353TIP3    H128550   5.720   5.723  14.424 -0.0432  0.9588 -0.5905
 2353TIP3    H228551   5.814   5.737  14.307  0.2229  3.4883 -0.1306
 2354TIP3   OH228552   3.952   2.122   1.106  0.0024  0.2914  0.4308
 2354TIP3    H128553   3.923   2.208   1.136  1.5266  0.9938 -0.0167
 2354TIP3    H228554   4.048   2.126   1.110  0.1305 -1.0403 -0.5245
 2355TIP3   OH228555   6.777   3.401   0.526  0.2063  0.1269 -0.1312
 2355TIP3    H128556   6.748   3.490   0.548  1.9511  0.0818  2.7985
 2355TIP3    H228557   6.870   3.411   0.507  0.6115 -1.1739  1.0796
 2356TIP3   OH228558   2.478   2.027   2.575 -0.7174  0.4115  0.0532
 2356TIP3    H128559   2.418   2.014   2.649 -1.3277 -0.8348 -0.6200
 2356TIP3    H228560   2.435   2.093   2.521 -0.0442  1.6760  1.0057
 2357TIP3   OH228561   5.267   1.011   2.687 -0.5539  0.5469  0.7939
 2357TIP3    H128562   5.336   1.008   2.621 -0.3984  1.4239  0.9024
 2357TIP3    H228563   5.262   0.922   2.721 -0.7100  0.0482 -0.4757
 2358TIP3   OH228564   3.815   1.197  15.701 -0.6395  0.1819 -0.0424
 2358TIP3    H128565   3.903   1.194  15.737 -1.4078  0.2995  2.0062
 2358TIP3    H228566   3.826   1.178  15.608  1.6360  1.1631 -0.0484
 2359TIP3   OH228567   3.009   2.753   3.977  0.2420 -0.3606 -0.1003
 2359TIP3    H128568   3.007   2.793   3.890  1.0711  1.7999  0.8075
 2359TIP3    H228569   3.018   2.659   3.960  2.4587  0.1581 -2.3314
 2360TIP3   OH228570   2.215   3.239  12.779 -0.3540  0.1813  0.0283
 2360TIP3    H128571   2.238   3.327  12.808 -1.7144 -0.1727  2.4859
 2360TIP3    H228572   2.280   3.218  12.712  1.7985  1.9779  1.3938
 2361TIP3   OH228573   2.198   4.565   0.779  1.0278  0.7923 -0.0989
 2361TIP3    H128574   2.143   4.488   0.764  1.5226  0.3657  0.2465
 2361TIP3    H228575   2.183   4.621   0.703 -0.4091  1.0031  0.3180
 2362TIP3   OH228576   3.116   4.564   6.513 -0.2890  0.3496  0.1969
 2362TIP3    H128577   3.150   4.578   6.601 -2.3844  0.5179  1.0318
 2362TIP3    H228578   3.121   4.469   6.501 -0.6760  0.2503  0.7901
 2363TIP3   OH228579   4.252   2.300  13.892 -0.8864  0.3231  0.1236
 2363TIP3    H128580   4.334   2.307  13.843 -1.1569  1.4808 -0.2041
 2363TIP3    H228581   4.204   2.381  13.870 -1.6041  0.2241  1.2312
 2364TIP3   OH228582   0.383   4.109  17.034 -0.3658  0.0360  0.2222
 2364TIP3    H128583   0.414   4.097  16.945 -0.3974 -0.9941  0.3417
 2364TIP3    H228584   0.442   4.175  17.071 -0.6419  0.8057 -0.6914
 2365TIP3   OH228585   6.763   0.952  13.137  0.5917  0.4279 -0.2333
 2365TIP3    H128586   6.801   0.880  13.087 -1.5120 -0.1534 -1.1064
 2365TIP3    H228587   6.754   1.023  13.074 -2.1328 -0.3290 -0.8335
 2366TIP3   OH228588   3.683   6.369  14.784  0.5802 -0.5225  0.2449
 2366TIP3    H128589   3.651   6.440  14.729 -0.7824 -0.9495  0.4495
 2366TIP3    H228590   3.775   6.389  14.798  0.6984  0.1403 -1.3204
 2367TIP3   OH228591   1.277   5.261  16.810 -0.0831  0.1425  0.1299
 2367TIP3    H128592   1.351   5.260  16.872  0.1608 -0.0305 -0.1602
 2367TIP3    H228593   1.314   5.295  16.729 -0.0893 -0.8185 -0.2981
 2368TIP3   OH228594   6.600   1.823   3.998 -0.6459  0.5682 -0.1421
 2368TIP3    H128595   6.679   1.771   3.986 -0.6813  0.3526  0.5080
 2368TIP3    H228596   6.610   1.863   4.084 -0.7247  1.4653 -0.5427
 2369TIP3   OH228597   0.693   5.301  11.394  0.4441 -0.6351 -0.3341
 2369TIP3    H128598   0.667   5.211  11.372  0.4518 -0.8622  0.5735
 2369TIP3    H228599   0.640   5.324  11.470  0.2641  0.2264 -0.7049
 2370TIP3   OH228600   1.178   4.809  15.900 -0.0356  0.2096 -0.1909
 2370TIP3    H128601   1.154   4.784  15.811 -0.7312 -1.5998  0.4450
 2370TIP3    H228602   1.265   4.772  15.912  0.7946  1.9319 -0.6478
 2371TIP3   OH228603   1.054   4.234  14.720  0.5169 -0.0478  0.4492
 2371TIP3    H128604   1.057   4.314  14.667 -1.3172  0.0566  0.4531
 2371TIP3    H228605   1.057   4.163  14.656  0.5727  0.0372  0.3564
 2372TIP3   OH228606   3.631   4.146   1.457  0.4969 -0.1092  0.8258
 2372TIP3    H128607   3.642   4.055   1.429  0.3498 -0.5461  2.1295
 2372TIP3    H228608   3.537   4.155   1.472  0.6761 -0.1911  2.1073
 2373TIP3   OH228609   1.559   1.545  11.974 -0.4480  0.3220 -0.3102
 2373TIP3    H128610   1.602   1.628  11.994  1.0688 -0.6103  0.5674
 2373TIP3    H228611   1.624   1.478  11.999 -1.1486 -1.1082 -2.0770
 2374TIP3   OH228612   3.534   1.220  16.660 -0.4484 -0.2576 -0.1858
 2374TIP3    H128613   3.534   1.230  16.564  1.0153 -1.5604 -0.3652
 2374TIP3    H228614   3.474   1.288  16.691 -0.7082  0.4096 -2.0039
 2375TIP3   OH228615   3.403   4.620   4.735  0.1241 -0.0437  0.1120
 2375TIP3    H128616   3.317   4.645   4.702  0.2081  0.5356  0.3312
 2375TIP3    H228617   3.464   4.674   4.686  0.2501  0.8194  1.2042
 2376TIP3   OH228618   6.202   3.034   5.934 -0.1173 -0.0824 -0.0526
 2376TIP3    H128619   6.248   3.034   5.850  0.0934 -0.9975  0.0561
 2376TIP3    H228620   6.258   2.982   5.992  0.0965  1.1108  0.8656
 2377TIP3   OH228621   2.640   5.898  12.123  0.3962 -0.5310  0.2989
 2377TIP3    H128622   2.559   5.879  12.171 -0.1723 -0.5347 -0.6289
 2377TIP3    H228623   2.633   5.846  12.043  0.5085  0.7819 -0.5904
 2378TIP3   OH228624   2.255   0.098   0.599 -0.1026  0.1332  0.3188
 2378TIP3    H128625   2.166   0.066   0.611  1.0455 -2.5113  2.9580
 2378TIP3    H228626   2.298   0.029   0.547  0.3660  1.6273 -1.3927
 2379TIP3   OH228627   4.280   6.602  15.706 -0.8540 -0.5492 -0.3751
 2379TIP3    H128628   4.237   6.566  15.784 -1.6222 -0.9420 -0.9707
 2379TIP3    H228629   4.312   6.688  15.734  0.3181 -1.3475  0.8392
 2380TIP3   OH228630   4.414   2.433   5.042 -0.3049  0.3902 -0.3844
 2380TIP3    H128631   4.324   2.400   5.039 -0.4839  0.7372  0.7850
 2380TIP3    H228632   4.445   2.424   4.952 -0.8574 -1.5144 -0.4369
 2381TIP3   OH228633   3.374   5.540  14.875 -0.3908  0.0961 -0.0573
 2381TIP3    H128634   3.352   5.544  14.968 -0.0237  1.2845 -0.0161
 2381TIP3    H228635   3.326   5.613  14.835 -0.7067 -0.5202 -0.8428
 2382TIP3   OH228636   3.434   2.247   4.858  0.0913  0.0807  0.0004
 2382TIP3    H128637   3.441   2.221   4.950 -1.7801 -1.6670 -0.2986
 2382TIP3    H228638   3.340   2.245   4.839  0.5262 -1.1591 -2.3553
 2383TIP3   OH228639   2.271   4.413   3.362  0.1818 -0.5341  0.8288
 2383TIP3    H128640   2.237   4.340   3.310  0.2887  0.5742 -0.8879
 2383TIP3    H228641   2.217   4.412   3.441  0.5119 -2.7441  1.0956
 2384TIP3   OH228642   4.336   4.512  16.636  0.6125 -0.0189  0.3019
 2384TIP3    H128643   4.254   4.480  16.675 -0.2878 -1.0320 -2.2356
 2384TIP3    H228644   4.313   4.535  16.546  2.6828  1.7690  0.1360
 2385TIP3   OH228645   1.250   5.396   2.398 -0.9219 -0.2258  0.0457
 2385TIP3    H128646   1.293   5.482   2.394 -2.3374  0.5620  1.0600
 2385TIP3    H228647   1.323   5.334   2.411  0.1471  0.7580 -0.9910
 2386TIP3   OH228648   5.588   1.112  15.671  0.8012  0.1704  0.1853
 2386TIP3    H128649   5.540   1.192  15.651  0.2194 -0.4947 -1.1836
 2386TIP3    H228650   5.551   1.082  15.754  0.8935  1.1863  0.6192
 2387TIP3   OH228651   0.695   6.294  16.491  0.4065  0.3110  0.5260
 2387TIP3    H128652   0.663   6.291  16.581 -1.8215  0.5942 -0.2039
 2387TIP3    H228653   0.655   6.219  16.448  1.8115 -0.0847 -0.1438
 2388TIP3   OH228654   0.713   6.377   0.396 -0.4658  0.3371 -0.0567
 2388TIP3    H128655   0.692   6.332   0.314 -1.1776  1.4522 -0.5142
 2388TIP3    H228656   0.716   6.307   0.462 -2.9797 -0.2512 -0.4655
 2389TIP3   OH228657   5.090   1.182   1.495  0.2514 -0.7578  0.5169
 2389TIP3    H128658   5.085   1.107   1.437 -0.8733 -0.9632  0.8572
 2389TIP3    H228659   5.159   1.160   1.557  0.9679 -0.8422 -0.2938
 2390TIP3   OH228660   0.813   3.426   3.615  0.0695  0.0205  0.5462
 2390TIP3    H128661   0.819   3.332   3.633  0.5813  0.2299  1.5515
 2390TIP3    H228662   0.748   3.458   3.676  0.0865  0.3704  0.3835
 2391TIP3   OH228663   4.262   6.637   2.907  0.1520 -0.2941 -0.1304
 2391TIP3    H128664   4.221   6.613   2.824  2.5617 -4.6145 -0.3185
 2391TIP3    H228665   4.193   6.626   2.972 -0.3030 -2.9071 -0.9506
 2392TIP3   OH228666   5.114   3.265   1.357 -0.1117  0.1618  0.1805
 2392TIP3    H128667   5.056   3.288   1.284  3.0081  2.0822 -1.9137
 2392TIP3    H228668   5.135   3.173   1.343  0.1515  0.4130 -1.1479
 2393TIP3   OH228669   3.503   4.239  16.655 -0.3625 -0.4759 -0.6753
 2393TIP3    H128670   3.431   4.184  16.686  0.3543 -0.3028  1.4363
 2393TIP3    H228671   3.467   4.328  16.657 -0.4493 -0.5069 -0.7923
 2394TIP3   OH228672   3.445   1.682  16.287  0.4548 -0.3789  0.0457
 2394TIP3    H128673   3.388   1.721  16.221  0.1318 -0.0694  0.4997
 2394TIP3    H228674   3.498   1.754  16.319  0.0459 -0.3548  0.6930
 2395TIP3   OH228675   1.950   1.168   1.751 -0.0020 -0.1847  0.2067
 2395TIP3    H128676   2.038   1.132   1.764  0.3515  0.9947  1.3085
 2395TIP3    H228677   1.941   1.179   1.656  0.7276 -1.0347  0.0296
 2396TIP3   OH228678   5.170   1.383  12.025 -0.1704 -0.2119  0.7635
 2396TIP3    H128679   5.119   1.304  12.043  0.7860 -1.0455 -0.0900
 2396TIP3    H228680   5.244   1.379  12.085  1.3166 -1.3766 -1.0294
 2397TIP3   OH228681   0.726   1.087  14.487 -0.5016 -0.2064  0.2353
 2397TIP3    H128682   0.633   1.066  14.482 -0.5834  0.3651 -1.0481
 2397TIP3    H228683   0.740   1.150  14.416  0.5808  0.7766  1.2622
 2398TIP3   OH228684   6.534   1.826  12.818  0.3679  0.0089  0.5225
 2398TIP3    H128685   6.546   1.914  12.853 -0.2063  0.5301 -0.5485
 2398TIP3    H228686   6.451   1.829  12.772  0.1544 -1.2141  0.7954
 2399TIP3   OH228687   0.028   1.867   1.179  0.0798  0.0884 -0.7498
 2399TIP3    H128688  -0.066   1.886   1.190  0.1043 -0.2415  0.0788
 2399TIP3    H228689   0.033   1.772   1.179  0.3778  0.1037 -1.1719
 2400TIP3   OH228690   1.286   4.491   2.389 -0.0495  0.3306  0.1573
 2400TIP3    H128691   1.348   4.547   2.342  0.1226  1.5014  1.7143
 2400TIP3    H228692   1.201   4.515   2.351  0.3716 -1.3272 -2.0279
 2401TIP3   OH228693   5.469   4.720   0.297  0.4481 -0.0603 -0.2874
 2401TIP3    H128694   5.474   4.645   0.237 -2.7227 -0.7540  0.1238
 2401TIP3    H228695   5.398   4.774   0.261 -1.5377 -0.4563  2.6381
 2402TIP3   OH228696   1.708   6.424  10.696  0.3449  0.0006 -0.5389
 2402TIP3    H128697   1.798   6.425  10.663  1.0633 -2.5873  1.0610
 2402TIP3    H228698   1.686   6.331  10.703 -1.7227  0.5360  1.0600
 2403TIP3   OH228699   0.681   4.473  11.827  0.5388  0.1391  0.6290
 2403TIP3    H128700   0.590   4.463  11.856  0.5637 -0.0622  0.6402
 2403TIP3    H228701   0.684   4.560  11.786  0.2180 -0.0691  0.1556
 2404TIP3   OH228702   1.955   4.208  14.428 -0.1840 -0.1136 -0.3208
 2404TIP3    H128703   1.892   4.205  14.500 -1.1610 -0.4020 -1.1679
 2404TIP3    H228704   1.942   4.125  14.382  0.6938 -0.0931 -0.6161
 2405TIP3   OH228705   5.637   5.634   5.856 -0.0819  0.1059  0.3752
 2405TIP3    H128706   5.572   5.701   5.836 -0.3567 -0.0611  0.7000
 2405TIP3    H228707   5.676   5.661   5.939 -1.0287 -0.7496  1.1173
 2406TIP3   OH228708   0.450   2.982   1.703  0.1858  0.5108  0.4521
 2406TIP3    H128709   0.511   2.975   1.777  0.3693  0.7749  0.3280
 2406TIP3    H228710   0.375   3.030   1.738 -0.3926 -0.6541  0.8772
 2407TIP3   OH228711   1.766   1.757  13.903  0.0852  0.1881 -0.7110
 2407TIP3    H128712   1.707   1.689  13.937  0.6215 -0.1338 -0.4196
 2407TIP3    H228713   1.812   1.790  13.980 -1.2996  2.0215 -0.5843
 2408TIP3   OH228714   5.774   5.093   3.756  0.6176  0.1268  0.0240
 2408TIP3    H128715   5.710   5.021   3.754 -0.2393  0.7638  2.2779
 2408TIP3    H228716   5.833   5.070   3.827  1.8782  0.4327 -0.9028
 2409TIP3   OH228717   1.528   6.753   0.353  0.2287  0.3435 -0.1813
 2409TIP3    H128718   1.580   6.761   0.433  0.4653  1.0791 -0.3963
 2409TIP3    H228719   1.537   6.839   0.310 -1.0182  0.4357 -0.3084
 2410TIP3   OH228720   3.114   1.653  14.703 -0.0521  0.1565  0.5638
 2410TIP3    H128721   3.118   1.661  14.608  1.1606 -0.3179  0.5558
 2410TIP3    H228722   3.062   1.728  14.731  3.0865  2.8862 -0.1772
 2411TIP3   OH228723   3.099   5.583  16.535  0.2053  0.5335  0.4078
 2411TIP3    H128724   3.172   5.630  16.576 -0.8670  1.4599  1.3268
 2411TIP3    H228725   3.022   5.634  16.558 -0.8012 -0.6886 -0.1362
 2412TIP3   OH228726   5.553   3.461   2.823 -0.2112 -0.6566  0.4899
 2412TIP3    H128727   5.476   3.448   2.767  0.0779 -1.0939  0.1835
 2412TIP3    H228728   5.519   3.501   2.902 -0.3685  2.0332 -0.8315
 2413TIP3   OH228729   3.084   6.385  10.359 -0.0345  0.1802 -0.7988
 2413TIP3    H128730   3.032   6.449  10.408 -0.2846  0.0692 -0.9169
 2413TIP3    H228731   3.019   6.325  10.321  0.2595 -1.1193  0.6461
 2414TIP3   OH228732   4.494   6.780  12.487  0.1151 -0.1533 -0.0632
 2414TIP3    H128733   4.588   6.795  12.488  0.4541 -2.0943  0.2519
 2414TIP3    H228734   4.467   6.800  12.397  0.7214  0.9247 -0.0153
 2415TIP3   OH228735   1.187   0.502  15.960  0.4530  0.2577 -0.3399
 2415TIP3    H128736   1.199   0.411  15.934  1.1537  0.3873 -0.5070
 2415TIP3    H228737   1.146   0.544  15.885  3.4589  0.8833 -1.8003
 2416TIP3   OH228738   0.852   1.249  16.548  0.0421  0.1370  0.6296
 2416TIP3    H128739   0.945   1.265  16.565 -0.0940 -0.0743  1.6644
 2416TIP3    H228740   0.806   1.314  16.602 -0.4097  1.3454 -1.1274
 2417TIP3   OH228741   6.148   3.468   5.362 -0.8911  0.0771 -0.1016
 2417TIP3    H128742   6.072   3.472   5.421 -2.2170  1.1086 -1.7761
 2417TIP3    H228743   6.110   3.477   5.274  1.3314  2.9319 -0.9003
 2418TIP3   OH228744   4.410   0.006  15.854 -0.0973  0.4401 -0.3583
 2418TIP3    H128745   4.371   0.065  15.918  0.5155 -1.6801  2.1165
 2418TIP3    H228746   4.502  -0.001  15.879 -0.0640 -1.2475 -0.7758
 2419TIP3   OH228747   0.915   3.211   2.154  0.4070 -0.2310 -0.1366
 2419TIP3    H128748   0.972   3.145   2.115 -1.5574 -0.1183 -3.5445
 2419TIP3    H228749   0.900   3.275   2.084 -1.9859  0.9820  1.3461
 2420TIP3   OH228750   4.989   0.454  12.370 -0.3117 -0.4720  0.1171
 2420TIP3    H128751   4.998   0.388  12.302  0.4998 -0.5644  0.3062
 2420TIP3    H228752   5.057   0.432  12.434 -1.0137 -0.3472  0.9271
 2421TIP3   OH228753   4.303   1.826  13.905 -0.0874 -0.1163  0.5069
 2421TIP3    H128754   4.276   1.737  13.924 -1.8834  0.1126 -0.7414
 2421TIP3    H228755   4.281   1.839  13.813  2.8721  0.6865 -0.2093
 2422TIP3   OH228756   4.880   0.519  16.612  0.0914 -0.3218  0.6721
 2422TIP3    H128757   4.866   0.498  16.705  2.3525 -0.7156  0.9785
 2422TIP3    H228758   4.972   0.545  16.607 -0.2459  0.6348 -1.3164
 2423TIP3   OH228759   2.992   3.942   3.753  0.2670 -0.0138  0.1163
 2423TIP3    H128760   3.084   3.928   3.729  0.1727 -0.4624  0.0199
 2423TIP3    H228761   2.975   4.033   3.729 -0.6343 -1.1308 -4.1669
 2424TIP3   OH228762   2.451   0.854  10.176 -0.3060 -0.2897  0.0435
 2424TIP3    H128763   2.455   0.798  10.098 -0.9722  0.3239 -0.4405
 2424TIP3    H228764   2.506   0.929  10.155 -2.1371  0.9027 -0.7019
 2425TIP3   OH228765   5.398   2.431  12.469 -0.3604 -0.1901  0.2947
 2425TIP3    H128766   5.442   2.350  12.443  0.9294 -0.1365  2.1036
 2425TIP3    H228767   5.403   2.487  12.391 -0.9694 -1.6978 -0.8732
 2426TIP3   OH228768   1.331   1.568  15.960  0.0965  0.0314 -0.0528
 2426TIP3    H128769   1.401   1.591  15.898  1.0308 -0.1777  0.8817
 2426TIP3    H228770   1.290   1.651  15.983  0.6099  0.2631  0.0410
 2427TIP3   OH228771   1.811   0.189  12.662  0.2301 -0.2955  0.0517
 2427TIP3    H128772   1.733   0.181  12.606  0.5827 -2.0020 -0.2506
 2427TIP3    H228773   1.881   0.215  12.602 -0.2285  2.0769  0.4626
 2428TIP3   OH228774   1.957   0.178  13.280 -0.1448 -0.1946  0.1747
 2428TIP3    H128775   1.978   0.152  13.190 -0.0855 -0.0166  0.1359
 2428TIP3    H228776   1.862   0.173  13.285 -0.1442 -0.2604  0.1177
 2429TIP3   OH228777   2.939   2.125  10.421  0.1906  0.0380  0.6083
 2429TIP3    H128778   3.000   2.156  10.487  1.8855  0.1583 -0.9282
 2429TIP3    H228779   2.953   2.030  10.418 -1.6404 -0.3336  2.0580
 2430TIP3   OH228780   0.115   1.521   5.752 -0.0984 -0.3925 -0.4230
 2430TIP3    H128781   0.131   1.433   5.718  0.9220 -0.0678 -0.7957
 2430TIP3    H228782   0.095   1.507   5.845 -1.5799 -1.1573 -0.8243
 2431TIP3   OH228783   4.885   6.496  15.867 -0.5676 -0.1157 -0.3207
 2431TIP3    H128784   4.806   6.547  15.854 -0.3833  0.9852  2.3113
 2431TIP3    H228785   4.863   6.434  15.937  0.3046 -1.2374 -0.9901
 2432TIP3   OH228786   3.518   5.421   3.659  0.5449  0.6332 -0.0251
 2432TIP3    H128787   3.450   5.470   3.704 -0.8591 -1.6845  0.5710
 2432TIP3    H228788   3.475   5.340   3.631  2.7988 -0.4685 -0.5786
 2433TIP3   OH228789   5.804   0.831   3.553  0.1688 -0.4401 -0.2260
 2433TIP3    H128790   5.890   0.814   3.593 -0.0716 -1.1033  0.0265
 2433TIP3    H228791   5.749   0.760   3.584 -0.7287  0.4827  0.3411
 2434TIP3   OH228792   6.423   2.979   5.073 -0.2906 -0.1775 -0.4816
 2434TIP3    H128793   6.415   3.075   5.072  1.0640 -0.0517 -1.0009
 2434TIP3    H228794   6.359   2.951   5.139  0.0392  1.1620  0.4641
 2435TIP3   OH228795   1.006   5.729  13.357  0.1942 -0.6951 -0.0125
 2435TIP3    H128796   0.978   5.804  13.408 -0.0217 -0.5135 -0.3892
 2435TIP3    H228797   1.050   5.767  13.280  0.7015 -0.9647  0.1375
 2436TIP3   OH228798   5.565   0.058  12.559 -0.6856 -0.3698 -0.8034
 2436TIP3    H128799   5.585   0.071  12.466  2.7790 -0.9215 -0.2620
 2436TIP3    H228800   5.579   0.144  12.599 -1.0633 -0.3869 -0.6335
 2437TIP3   OH228801   4.447   1.121  12.602 -0.6768  1.0151 -0.2003
 2437TIP3    H128802   4.463   1.061  12.529  2.3279 -0.7829  1.7288
 2437TIP3    H228803   4.459   1.209  12.564  3.8209  0.1062 -1.4207
 2438TIP3   OH228804   2.054   0.106  14.659  0.7676 -0.2055  0.4363
 2438TIP3    H128805   2.094   0.133  14.576  1.5537  1.4697  1.2985
 2438TIP3    H228806   2.093   0.165  14.724 -1.9587  0.5079  1.5745
 2439TIP3   OH228807   0.073   0.144   0.034  0.0959 -0.1945  0.2484
 2439TIP3    H128808   0.159   0.154   0.073 -0.2775 -0.7156  1.2333
 2439TIP3    H228809   0.027   0.083   0.092 -0.7728 -0.2988 -0.5215
 2440TIP3   OH228810   6.648   1.260  12.674 -0.5366 -0.0216 -0.0089
 2440TIP3    H128811   6.703   1.197  12.720 -1.7387 -0.7515  0.4870
 2440TIP3    H228812   6.582   1.287  12.739  0.2051  2.1377 -0.0495
 2441TIP3   OH228813   2.257   5.073   4.827 -0.5335 -0.6325 -0.5935
 2441TIP3    H128814   2.164   5.052   4.825 -0.6032 -0.3996 -2.7981
 2441TIP3    H228815   2.276   5.104   4.738  1.5968 -0.4685 -0.1304
 2442TIP3   OH228816   5.084   3.501  15.402 -0.2193 -0.2610  0.8667
 2442TIP3    H128817   5.110   3.580  15.449 -1.7810  2.7858 -2.8924
 2442TIP3    H228818   4.996   3.482  15.433 -0.3987  0.3661  0.7379
 2443TIP3   OH228819   0.698   0.930   5.304  0.5730  0.1341 -0.3697
 2443TIP3    H128820   0.617   0.939   5.354  1.4179 -0.3871  1.1625
 2443TIP3    H228821   0.690   0.994   5.233 -0.8951  0.5202  0.1140
 2444TIP3   OH228822   4.904   0.649  11.028 -0.9842 -0.1802  0.2494
 2444TIP3    H128823   4.901   0.667  11.122 -1.9598 -0.4765  0.2853
 2444TIP3    H228824   4.842   0.577  11.015 -1.2799  0.2278 -0.6994
 2445TIP3   OH228825   0.791   1.836   1.243  0.0772  0.0461 -0.5452
 2445TIP3    H128826   0.827   1.925   1.238 -0.2827  0.4149  2.0144
 2445TIP3    H228827   0.830   1.790   1.169  2.3635  1.6176 -0.4184
 2446TIP3   OH228828   4.348   1.333   2.552 -0.4334 -0.4061 -0.3165
 2446TIP3    H128829   4.255   1.353   2.565  0.0238  1.1887  0.8025
 2446TIP3    H228830   4.362   1.344   2.458 -1.1270  0.5310 -0.3211
 2447TIP3   OH228831   0.955   5.032  15.690 -0.1716  0.0406  0.5162
 2447TIP3    H128832   1.029   5.005  15.636 -0.1580  3.4722 -1.4848
 2447TIP3    H228833   0.892   4.960  15.682  1.0874 -0.9157 -1.6803
 2448TIP3   OH228834   0.489   6.406   6.630 -0.6667 -0.2757  0.3841
 2448TIP3    H128835   0.535   6.489   6.639 -0.6449 -0.2405 -0.0600
 2448TIP3    H228836   0.499   6.364   6.715  0.9346 -0.6572  0.0295
 2449TIP3   OH228837   2.198   6.081   1.655 -1.2088  0.0597  0.6372
 2449TIP3    H128838   2.184   6.016   1.724  1.7967  1.4826  2.7998
 2449TIP3    H228839   2.246   6.033   1.587 -2.7979 -0.9555  0.1684
 2450TIP3   OH228840   1.848   5.294  16.739  0.1263 -0.3930  0.0862
 2450TIP3    H128841   1.872   5.385  16.757  0.5952 -0.4918 -0.0419
 2450TIP3    H228842   1.910   5.242  16.790  1.5665 -0.6771 -1.8465
 2451TIP3   OH228843   3.203   1.264   2.610 -0.0759  0.3036  0.1361
 2451TIP3    H128844   3.117   1.245   2.571  1.3759 -0.4196 -3.0271
 2451TIP3    H228845   3.192   1.349   2.651 -2.1991  0.4342 -0.5503
 2452TIP3   OH228846   6.049   6.491  11.843  0.5273  0.2370  0.0406
 2452TIP3    H128847   6.092   6.418  11.799 -0.1139 -0.2918  0.2834
 2452TIP3    H228848   6.109   6.565  11.830  1.5534 -0.5026  0.4495
 2453TIP3   OH228849   6.525   1.129  13.863  0.0913  0.1761 -0.0621
 2453TIP3    H128850   6.484   1.073  13.929  0.2945 -0.3832 -0.4124
 2453TIP3    H228851   6.587   1.182  13.913  0.0816 -0.0831  0.2308
 2454TIP3   OH228852   0.151   6.520  12.352 -0.3402 -0.3072  0.2606
 2454TIP3    H128853   0.105   6.563  12.280 -0.5978  0.5943  0.9558
 2454TIP3    H228854   0.244   6.527  12.329 -0.2386  2.1442  1.1424
 2455TIP3   OH228855   4.477   1.802   3.605  0.5144 -0.0995 -0.3744
 2455TIP3    H128856   4.407   1.787   3.541  1.4630 -1.3486 -1.1909
 2455TIP3    H228857   4.450   1.879   3.653 -0.6771  0.3600 -1.7045
 2456TIP3   OH228858   2.722   1.152  13.429 -0.5054 -0.1250  0.3534
 2456TIP3    H128859   2.761   1.179  13.346  0.8184 -1.1307  0.6283
 2456TIP3    H228860   2.763   1.209  13.494 -1.5298  0.6503  0.3616
 2457TIP3   OH228861   4.128   2.229   2.128  0.5262  0.0238 -0.3980
 2457TIP3    H128862   4.144   2.297   2.194  1.3020 -0.9534  0.4477
 2457TIP3    H228863   4.179   2.258   2.052 -0.8978  1.4991 -0.8534
 2458TIP3   OH228864   1.834   3.614   1.775  0.3351  0.0695 -0.4218
 2458TIP3    H128865   1.927   3.596   1.759 -0.2739 -2.0303 -1.9422
 2458TIP3    H228866   1.787   3.557   1.715 -1.9777  1.8521 -0.4477
 2459TIP3   OH228867   6.430   6.493   1.378  0.1277  0.4715  0.3865
 2459TIP3    H128868   6.374   6.480   1.454 -0.3005 -0.6012 -0.0930
 2459TIP3    H228869   6.370   6.493   1.303  0.6573  0.3421 -0.0450
 2460TIP3   OH228870   3.540   6.148  11.105 -0.7266 -0.0661 -0.0245
 2460TIP3    H128871   3.500   6.062  11.096 -0.4072 -0.1277 -0.9140
 2460TIP3    H228872   3.536   6.186  11.017 -1.1396  0.9536  0.4192
 2461TIP3   OH228873   5.362   1.089   2.199 -0.4112 -0.2189 -0.0547
 2461TIP3    H128874   5.294   1.041   2.152 -2.2086  1.1448  1.0009
 2461TIP3    H228875   5.415   1.021   2.241 -1.7483 -1.3397 -0.0939
 2462TIP3   OH228876   3.112   2.302  11.261 -0.6453  0.3810  0.6042
 2462TIP3    H128877   3.134   2.391  11.232  0.1926  0.0421  0.1900
 2462TIP3    H228878   3.077   2.259  11.183  1.6744 -0.5529  0.0208
 2463TIP3   OH228879   1.475   1.394  13.389 -0.1623  0.1842 -0.2285
 2463TIP3    H128880   1.510   1.459  13.328  0.2130  0.7281  0.5462
 2463TIP3    H228881   1.432   1.329  13.333  0.0705  0.7278 -1.0579
 2464TIP3   OH228882   0.583   2.641  13.141 -0.0140 -0.0613 -0.2327
 2464TIP3    H128883   0.677   2.654  13.133  0.1099 -0.5539  0.3425
 2464TIP3    H228884   0.574   2.557  13.186 -0.7261  0.0293 -0.1913
 2465TIP3   OH228885   1.979   0.784   2.352  0.1740 -0.0360 -0.9200
 2465TIP3    H128886   1.888   0.798   2.324  0.5261  0.3359 -1.9262
 2465TIP3    H228887   1.999   0.694   2.325 -0.3920 -0.7093  0.7676
 2466TIP3   OH228888   3.701   3.785  17.027  0.6665 -0.5088 -0.2079
 2466TIP3    H128889   3.674   3.693  17.025  2.2494 -1.0439  1.0154
 2466TIP3    H228890   3.794   3.783  17.047  0.6621  1.3809  0.2474
 2467TIP3   OH228891   4.480   3.338  16.132 -0.2732 -0.4882  0.2011
 2467TIP3    H128892   4.403   3.352  16.077 -0.4796 -0.8352  0.3949
 2467TIP3    H228893   4.511   3.426  16.154 -1.3619 -0.3141  1.1544
 2468TIP3   OH228894   6.580   2.340   4.204 -0.1957 -0.5411 -0.4663
 2468TIP3    H128895   6.659   2.328   4.151  0.4165  2.9844 -0.5479
 2468TIP3    H228896   6.614   2.354   4.293 -0.7962 -0.1822 -0.2911
 2469TIP3   OH228897   5.619   1.773  11.795 -0.3477  0.2103  0.4941
 2469TIP3    H128898   5.611   1.748  11.887 -0.2886  0.3295  0.5327
 2469TIP3    H228899   5.613   1.691  11.747  0.0997  0.0941  0.6343
 2470TIP3   OH228900   3.714   2.411  14.933  0.2157 -0.2105 -0.1201
 2470TIP3    H128901   3.790   2.441  14.883 -0.1750 -0.0958 -0.6553
 2470TIP3    H228902   3.638   2.445  14.885 -0.1677  1.4974  1.5429
 2471TIP3   OH228903   2.570   3.567  14.813  0.0008 -0.5765 -0.1451
 2471TIP3    H128904   2.644   3.508  14.796  0.0574 -1.4331  2.5287
 2471TIP3    H228905   2.493   3.515  14.790  0.1296  0.3675 -3.0740
 2472TIP3   OH228906   1.304   5.612  14.667  0.3287  0.1525  0.0629
 2472TIP3    H128907   1.227   5.614  14.611  0.3016  0.4037  0.1045
 2472TIP3    H228908   1.359   5.683  14.634  0.9847 -0.6400 -0.5823
 2473TIP3   OH228909   2.940   3.198   4.351  0.2331 -0.3337  0.4436
 2473TIP3    H128910   2.849   3.222   4.335  0.7781  1.5692 -0.1781
 2473TIP3    H228911   2.966   3.149   4.274 -0.1333 -0.4977  0.4216
 2474TIP3   OH228912   1.920   0.682   5.309 -0.0753 -0.2235 -0.1762
 2474TIP3    H128913   1.995   0.623   5.315  0.3281  0.3407  0.6124
 2474TIP3    H228914   1.850   0.637   5.356 -0.3391 -0.8982 -1.1941
 2475TIP3   OH228915   5.428   1.468  12.136  0.7228  0.6884 -0.5932
 2475TIP3    H128916   5.390   1.542  12.182  0.6723 -0.6563  1.6673
 2475TIP3    H228917   5.485   1.507  12.069  2.1268  2.8197  1.6795
 2476TIP3   OH228918   0.130   4.823   0.678 -0.0415  0.4942  0.3225
 2476TIP3    H128919   0.069   4.895   0.669 -2.0592 -1.1084  0.5243
 2476TIP3    H228920   0.203   4.859   0.728 -2.0422  1.7937  2.4466
 2477TIP3   OH228921   0.980   2.857  11.184  0.0558  0.3820 -0.7141
 2477TIP3    H128922   0.927   2.843  11.262 -0.9239  0.2340 -1.3750
 2477TIP3    H228923   1.059   2.805  11.198 -0.0032  0.5477  0.2681
 2478TIP3   OH228924   5.485   6.381   4.292 -0.4381 -0.0878 -0.3315
 2478TIP3    H128925   5.513   6.371   4.200 -0.5013  0.7255 -0.4432
 2478TIP3    H228926   5.510   6.470   4.315 -1.5340  0.1372  0.0567
 2479TIP3   OH228927   3.037   0.128  15.331 -0.1745 -0.7994 -0.8069
 2479TIP3    H128928   2.955   0.151  15.373 -0.0666 -0.3540 -0.8324
 2479TIP3    H228929   3.105   0.158  15.392 -0.0327 -1.4669 -0.6290
 2480TIP3   OH228930   2.317   0.475   2.325 -0.2201 -0.3734 -0.5605
 2480TIP3    H128931   2.310   0.402   2.386 -0.1947  0.6455  0.7014
 2480TIP3    H228932   2.388   0.449   2.266  2.0218 -0.0572  1.8193
 2481TIP3   OH228933   5.502   0.126   4.274 -0.4133 -0.0006 -0.1474
 2481TIP3    H128934   5.501   0.218   4.249  0.5624 -0.1991 -0.9388
 2481TIP3    H228935   5.549   0.082   4.204  0.3053 -0.9163  0.8841
 2482TIP3   OH228936   3.185   2.267   2.836 -0.0027 -0.3577 -0.1583
 2482TIP3    H128937   3.264   2.320   2.831 -1.0692  1.3515  0.1526
 2482TIP3    H228938   3.184   2.232   2.925  0.6457 -0.8205 -0.3250
 2483TIP3   OH228939   0.902   4.116  12.180  0.5575  0.1021  0.2919
 2483TIP3    H128940   0.900   4.152  12.269 -0.5200 -0.5719  0.5659
 2483TIP3    H228941   0.917   4.022  12.193  0.4100  0.0015 -0.2304
 2484TIP3   OH228942   2.228   5.558  11.679  0.0358  0.1418 -0.0818
 2484TIP3    H128943   2.310   5.608  11.677 -0.1305  0.5263  1.6180
 2484TIP3    H228944   2.169   5.607  11.622 -0.5263  2.6909  2.4780
 2485TIP3   OH228945   0.312   6.207  13.955 -0.5597 -0.3207 -0.5493
 2485TIP3    H128946   0.254   6.143  13.997 -1.9000  1.4343  0.3676
 2485TIP3    H228947   0.332   6.168  13.869 -2.2764 -1.4375 -0.4877
 2486TIP3   OH228948   4.234   3.293  16.930 -0.3635 -0.2531 -0.3195
 2486TIP3    H128949   4.292   3.254  16.997 -0.7162 -1.0453 -0.4582
 2486TIP3    H228950   4.226   3.385  16.956  0.8710 -0.1504 -0.2372
 2487TIP3   OH228951   6.102   6.805   4.099  0.6691 -0.4181 -0.0501
 2487TIP3    H128952   6.110   6.780   4.191  0.9522 -1.9996 -0.4799
 2487TIP3    H228953   6.175   6.865   4.084  1.1777 -0.8803  0.5319
 2488TIP3   OH228954   4.799   4.443   1.655 -0.5579  0.0268  0.2524
 2488TIP3    H128955   4.728   4.390   1.619 -1.8482  2.6097 -1.3826
 2488TIP3    H228956   4.875   4.385   1.657 -1.9132 -1.9073 -1.1863
 2489TIP3   OH228957   3.232   6.799  15.328 -0.5685 -0.2996  0.0397
 2489TIP3    H128958   3.220   6.711  15.292 -1.0100 -0.4172  0.4755
 2489TIP3    H228959   3.157   6.849  15.296  0.2155  0.2085 -1.0665
 2490TIP3   OH228960   3.798   6.059   6.524  0.0278 -0.5680 -0.0878
 2490TIP3    H128961   3.708   6.043   6.496 -0.3215 -0.5283  1.0046
 2490TIP3    H228962   3.823   6.140   6.478 -0.7290 -0.1930  0.1470
 2491TIP3   OH228963   1.040   1.284  11.547 -0.1924  0.3132  0.0055
 2491TIP3    H128964   1.125   1.326  11.536 -0.0747  0.8052  2.2283
 2491TIP3    H228965   1.022   1.290  11.641 -1.2729 -2.5374  0.0895
 2492TIP3   OH228966   1.058   2.086  16.080  0.1075 -0.3948 -0.1101
 2492TIP3    H128967   0.975   2.119  16.045 -0.5778 -0.0066  1.7711
 2492TIP3    H228968   1.033   2.011  16.133  1.2123 -1.4814 -1.0607
 2493TIP3   OH228969   2.913   6.673   2.803 -0.3629  0.5627  0.5438
 2493TIP3    H128970   2.842   6.658   2.740 -0.8540  1.0895  0.9632
 2493TIP3    H228971   2.991   6.637   2.760 -0.8479  0.1494 -0.0009
 2494TIP3   OH228972   4.339   3.132   1.285  0.2946  0.6496 -0.1222
 2494TIP3    H128973   4.346   3.095   1.374  0.6021  0.9640 -0.0137
 2494TIP3    H228974   4.345   3.056   1.227 -0.2721  0.4028  0.1349
 2495TIP3   OH228975   1.035   5.461  12.164 -0.1287  0.1361 -0.2060
 2495TIP3    H128976   1.092   5.467  12.241 -0.1079  0.3599 -0.2391
 2495TIP3    H228977   1.008   5.369  12.162 -0.7783  0.2998  0.5339
 2496TIP3   OH228978   6.374   2.042   6.756  0.6647  0.3716 -0.5975
 2496TIP3    H128979   6.288   2.083   6.761  0.5280  0.0965 -0.6738
 2496TIP3    H228980   6.376   1.980   6.829  0.2924 -0.5648 -1.3603
 2497TIP3   OH228981   3.427   2.213   3.013 -0.3068 -0.4127 -0.4783
 2497TIP3    H128982   3.484   2.247   2.944 -1.4629 -0.5807 -1.5646
 2497TIP3    H228983   3.408   2.123   2.986 -1.6316 -0.1394 -0.5144
 2498TIP3   OH228984   0.102   2.361  14.491  0.3076 -0.4788 -0.3743
 2498TIP3    H128985   0.011   2.388  14.506 -0.3328 -1.5661 -2.0488
 2498TIP3    H228986   0.118   2.295  14.558  0.4052  0.7375  0.8729
 2499TIP3   OH228987   2.726   6.055  10.473  0.2213  0.3991  0.9316
 2499TIP3    H128988   2.640   6.095  10.464 -0.2601 -0.8420 -0.4218
 2499TIP3    H228989   2.708   5.967  10.507  0.9113  0.0488  0.4222
 2500TIP3   OH228990   6.148   2.311   5.621  0.2285 -0.2771  0.9242
 2500TIP3    H128991   6.168   2.397   5.656 -0.9197 -0.6595  2.6060
 2500TIP3    H228992   6.229   2.284   5.576  0.1883  2.1664 -0.7669
 2501TIP3   OH228993   5.261   3.779   1.382  0.3588  0.4430  0.3799
 2501TIP3    H128994   5.348   3.753   1.352 -0.1066  1.0103 -1.5932
 2501TIP3    H228995   5.216   3.696   1.398  0.6632  0.1008 -0.4631
 2502TIP3   OH228996   2.463   3.841  16.287 -0.3550 -0.3353  0.1228
 2502TIP3    H128997   2.441   3.775  16.221 -0.8476 -0.0050 -0.0511
 2502TIP3    H228998   2.558   3.833  16.298  0.1731  1.2729 -2.4486
 2503TIP3   OH228999   2.893   5.464   1.525  0.0398 -0.0722 -0.0831
 2503TIP3    H129000   2.973   5.411   1.526 -0.4433 -0.8315 -0.4012
 2503TIP3    H229001   2.829   5.411   1.572  0.0230  1.0614  1.2659
 2504TIP3   OH229002   1.137   1.123   2.109  0.4386  0.6278 -0.4236
 2504TIP3    H129003   1.202   1.173   2.159 -0.0590  0.8908 -0.0230
 2504TIP3    H229004   1.162   1.031   2.121  0.9165  0.7435 -0.5342
 2505TIP3   OH229005   6.507   3.129  16.211 -0.4383  0.1456  0.3892
 2505TIP3    H129006   6.581   3.133  16.271 -1.6015 -3.0246  2.2461
 2505TIP3    H229007   6.430   3.137  16.266 -1.5332 -0.7403 -0.9339
 2506TIP3   OH229008   1.283   5.665  10.633  1.0733 -0.0773  0.0292
 2506TIP3    H129009   1.233   5.745  10.648 -0.3512 -0.8679 -0.2935
 2506TIP3    H229010   1.248   5.602  10.697  1.4142 -0.7535 -0.4293
 2507TIP3   OH229011   6.407   1.284  11.420  0.3669 -0.0820 -0.6144
 2507TIP3    H129012   6.500   1.264  11.413  0.5463 -0.3376  1.7830
 2507TIP3    H229013   6.367   1.202  11.451 -0.5548  0.2314 -0.9285
 2508TIP3   OH229014   3.788   5.540   2.137  0.1522  0.3280  0.7601
 2508TIP3    H129015   3.852   5.567   2.071  0.9033  0.7194  1.6270
 2508TIP3    H229016   3.781   5.445   2.126  1.4098  0.1744  1.0883
 2509TIP3   OH229017   4.734   5.130   1.783  0.6836 -0.6627 -0.1727
 2509TIP3    H129018   4.767   5.144   1.871  1.6522 -0.6818 -0.5263
 2509TIP3    H229019   4.662   5.068   1.794  1.0659 -0.9849  0.5554
 2510TIP3   OH229020   2.710   1.154  15.477 -0.5863  1.0199 -0.3105
 2510TIP3    H129021   2.656   1.125  15.551  0.1758  0.1031 -0.0873
 2510TIP3    H229022   2.764   1.224  15.512 -0.1518  0.5162  0.0492
 2511TIP3   OH229023   6.392   3.341  15.044 -0.2580 -0.1949  0.4037
 2511TIP3    H129024   6.435   3.397  14.980 -0.8252  0.1368  0.3064
 2511TIP3    H229025   6.452   3.340  15.119 -0.2713  0.6083  0.4372
 2512TIP3   OH229026   2.482   3.568   1.694  0.3534  0.3985  0.3103
 2512TIP3    H129027   2.533   3.487   1.700 -1.9835 -1.3570 -1.5343
 2512TIP3    H229028   2.489   3.593   1.602 -2.1709 -0.0279 -0.0578
 2513TIP3   OH229029   6.515   0.142  14.436 -0.2161  0.6260  0.1220
 2513TIP3    H129030   6.464   0.066  14.464 -0.2607  0.5605 -0.1326
 2513TIP3    H229031   6.498   0.208  14.503 -0.2658  0.4490  0.2845
 2514TIP3   OH229032   2.172   0.032   6.102  0.5008 -0.0196 -0.0492
 2514TIP3    H129033   2.154  -0.054   6.063 -0.3879  0.0181  0.2345
 2514TIP3    H229034   2.187   0.013   6.194 -1.1454  0.2547  0.3034
 2515TIP3   OH229035   1.216   5.385  14.786  0.0053 -0.3620  0.1369
 2515TIP3    H129036   1.239   5.475  14.766  2.1796 -0.5547  1.5051
 2515TIP3    H229037   1.186   5.387  14.876 -0.3450 -0.9390  0.0360
 2516TIP3   OH229038   5.919   4.310  14.531  0.3304 -0.1354 -0.4981
 2516TIP3    H129039   6.007   4.336  14.501  0.9256 -0.8347  0.5689
 2516TIP3    H229040   5.890   4.383  14.586 -0.5351  0.9039 -2.2733
 2517TIP3   OH229041   2.500   6.164   6.081  0.5566  0.4684 -0.4859
 2517TIP3    H129042   2.453   6.229   6.133 -0.5713 -0.5530 -0.1789
 2517TIP3    H229043   2.516   6.092   6.142 -0.4551 -0.5955 -1.4279
 2518TIP3   OH229044   4.928   2.733  16.460 -0.4527 -0.7117  0.0344
 2518TIP3    H129045   4.879   2.802  16.504  0.2884 -0.2622  0.1760
 2518TIP3    H229046   5.016   2.740  16.495 -0.5489 -2.2821  0.6946
 2519TIP3   OH229047   3.455   3.709  15.057  0.2859 -0.2658  0.0380
 2519TIP3    H129048   3.466   3.764  14.980 -0.8872 -1.0802 -0.7609
 2519TIP3    H229049   3.544   3.685  15.083  0.6850 -0.6914 -1.6056
 2520TIP3   OH229050   2.165   3.514  13.935  0.0767 -0.3909 -0.3134
 2520TIP3    H129051   2.232   3.508  13.867 -1.0707 -2.2275 -1.3819
 2520TIP3    H229052   2.160   3.607  13.956  1.5721  0.0234 -1.6037
 2521TIP3   OH229053   3.487   6.178   3.540 -0.2271 -0.2455  0.1873
 2521TIP3    H129054   3.492   6.226   3.622  0.0404 -0.0743  0.0712
 2521TIP3    H229055   3.577   6.176   3.508 -0.4152  0.1629 -0.3747
 2522TIP3   OH229056   5.039   4.365   0.803 -0.4426  0.0086 -0.4029
 2522TIP3    H129057   5.131   4.387   0.814 -0.0096 -2.1724  0.9211
 2522TIP3    H229058   5.011   4.333   0.889 -1.5906 -2.0795 -1.4687
 2523TIP3   OH229059   5.323   3.145   4.513 -0.0989  0.1381 -0.0524
 2523TIP3    H129060   5.411   3.138   4.550  0.2260  0.3108 -0.7847
 2523TIP3    H229061   5.305   3.058   4.478  0.2658  0.4145 -0.9606
 2524TIP3   OH229062   1.411   6.493   5.350  0.2178 -0.4591  0.0870
 2524TIP3    H129063   1.383   6.402   5.339  1.5449 -0.7961 -0.5973
 2524TIP3    H229064   1.386   6.515   5.441  0.5955 -1.7490  0.5187
 2525TIP3   OH229065   0.216   1.559  12.058  0.1925 -1.0422  0.6688
 2525TIP3    H129066   0.123   1.566  12.037  0.6346  2.0482 -0.7902
 2525TIP3    H229067   0.224   1.591  12.147 -0.1629 -1.8217  0.9916
 2526TIP3   OH229068   4.558   2.918  12.817 -0.1990 -0.4590  0.1957
 2526TIP3    H129069   4.615   2.959  12.882 -1.0056  1.3531 -0.1520
 2526TIP3    H229070   4.484   2.979  12.809 -1.5135 -2.0404 -0.3568
 2527TIP3   OH229071   4.385   2.407  10.974  0.1524  0.6289 -0.0286
 2527TIP3    H129072   4.453   2.400  10.908  2.5396  0.2015  2.2797
 2527TIP3    H229073   4.336   2.324  10.968  0.4788  0.5002 -1.0489
 2528TIP3   OH229074   1.829   3.574   3.838  0.0327 -0.4702 -0.2010
 2528TIP3    H129075   1.768   3.635   3.796 -0.2690 -0.3092  0.4492
 2528TIP3    H229076   1.897   3.559   3.773 -0.2399  0.0444 -0.6136
 2529TIP3   OH229077   3.501   3.869  14.852  0.2556  0.2737 -0.0587
 2529TIP3    H129078   3.569   3.806  14.829  0.7670  1.0952 -0.8786
 2529TIP3    H229079   3.512   3.940  14.789 -0.4368  1.0977  0.7235
 2530TIP3   OH229080   4.150   2.844   5.821 -0.6798 -0.2059 -0.3600
 2530TIP3    H129081   4.233   2.891   5.835 -0.3064 -1.5456  2.6415
 2530TIP3    H229082   4.118   2.878   5.738  2.3101  1.2104 -1.0883
 2531TIP3   OH229083   6.111   3.735   5.198 -0.1582 -0.2144 -0.2289
 2531TIP3    H129084   6.068   3.788   5.265 -1.3091 -2.1461  0.6703
 2531TIP3    H229085   6.041   3.678   5.165  0.9938 -1.1192 -1.1838
 2532TIP3   OH229086   5.072   2.817   3.752 -0.1344 -0.2841  0.2199
 2532TIP3    H129087   4.981   2.798   3.777  0.2499  0.4176  2.3322
 2532TIP3    H229088   5.099   2.886   3.812  1.0652  1.2692 -1.9528
 2533TIP3   OH229089   4.454   1.533  16.603 -0.3405 -0.6541 -0.3473
 2533TIP3    H129090   4.501   1.609  16.636 -1.4726 -0.8911  1.9746
 2533TIP3    H229091   4.405   1.566  16.527 -0.0849  0.6976  0.0595
 2534TIP3   OH229092   5.850   6.474  12.742 -0.2619 -0.6596 -0.1445
 2534TIP3    H129093   5.920   6.409  12.750 -0.6330 -1.0374  0.0617
 2534TIP3    H229094   5.792   6.437  12.675  0.4459  0.3055 -1.3362
 2535TIP3   OH229095   0.691   0.794   2.580  0.3805 -0.1282  0.4243
 2535TIP3    H129096   0.769   0.778   2.634 -0.3489 -0.5133  1.4006
 2535TIP3    H229097   0.639   0.855   2.632 -0.0462 -0.0125 -0.1366
 2536TIP3   OH229098   2.144   3.196  16.859 -0.1001  0.0493  0.5769
 2536TIP3    H129099   2.054   3.224  16.846  0.0289  0.5182  0.6674
 2536TIP3    H229100   2.195   3.249  16.798 -0.0152 -1.0928 -0.3721
 2537TIP3   OH229101   4.933   0.255   1.554 -0.0731  0.4845  0.4236
 2537TIP3    H129102   5.014   0.243   1.505 -0.1482  2.0791 -0.1560
 2537TIP3    H229103   4.865   0.222   1.496  0.0246  0.5495  0.2705
 2538TIP3   OH229104   0.278   1.350  10.679  0.1750  0.3581  0.1150
 2538TIP3    H129105   0.304   1.327  10.590  1.1301 -0.3524  0.5674
 2538TIP3    H229106   0.313   1.438  10.692 -1.3297  1.1227 -0.7438
 2539TIP3   OH229107   5.010   4.664  14.836 -0.5778  0.0543 -0.2449
 2539TIP3    H129108   5.041   4.736  14.782  3.3574 -2.2138 -1.3442
 2539TIP3    H229109   4.939   4.624  14.785  0.7135  0.0634 -2.1122
 2540TIP3   OH229110   6.464   1.393   4.590 -0.4680  0.1511 -0.8831
 2540TIP3    H129111   6.494   1.472   4.635  0.9943  0.3439 -2.1259
 2540TIP3    H229112   6.538   1.366   4.537 -1.1148 -1.7939 -0.8690
 2541TIP3   OH229113   0.508   6.336  14.928  0.1537  0.3913  0.3096
 2541TIP3    H129114   0.427   6.289  14.951  0.3087 -0.0917 -0.1259
 2541TIP3    H229115   0.554   6.346  15.011  0.2852 -0.5480  0.3521
 2542TIP3   OH229116   2.691   0.184  16.596 -0.4208  0.5259 -0.5580
 2542TIP3    H129117   2.631   0.142  16.658  1.6113 -1.2860  0.3090
 2542TIP3    H229118   2.749   0.237  16.650  1.2190 -0.8845 -0.8545
 2543TIP3   OH229119   2.911   3.646   5.715  0.0672 -0.5276  0.0658
 2543TIP3    H129120   2.931   3.555   5.738  1.1508 -0.1963  0.4830
 2543TIP3    H229121   2.826   3.662   5.757  0.0604 -1.2131  0.3424
 2544TIP3   OH229122   3.604   6.168   6.180  0.1116 -0.4096 -0.3550
 2544TIP3    H129123   3.612   6.095   6.119 -2.6018 -0.2715 -1.0122
 2544TIP3    H229124   3.513   6.199   6.169  0.3624  1.3652  1.8011
 2545TIP3   OH229125   3.013   1.216   3.144  0.5047  0.1365  0.1046
 2545TIP3    H129126   2.934   1.259   3.114  0.0521  0.1298  1.2285
 2545TIP3    H229127   3.075   1.226   3.072 -0.3916  0.4637 -0.6388
 2546TIP3   OH229128   3.060   2.555   2.298  0.2345 -0.2537  0.0595
 2546TIP3    H129129   3.154   2.569   2.285  0.3262  0.9992  1.7593
 2546TIP3    H229130   3.054   2.472   2.345  0.6330  0.3585  1.2376
 2547TIP3   OH229131   0.065   3.526  11.824  0.0363  0.4690 -0.1608
 2547TIP3    H129132   0.096   3.566  11.905  2.0100  0.8737 -1.0603
 2547TIP3    H229133   0.121   3.450  11.811  2.1369  2.2869 -2.8349
 2548TIP3   OH229134   4.261   2.773  14.276  0.3622 -0.1497  0.1220
 2548TIP3    H129135   4.303   2.695  14.313  0.0123  0.7145  2.4787
 2548TIP3    H229136   4.216   2.741  14.198  1.2626 -2.0544  0.3249
 2549TIP3   OH229137   0.153   4.452  14.678 -0.3829 -0.1006  0.0790
 2549TIP3    H129138   0.184   4.522  14.735  1.0467 -0.8570  0.2639
 2549TIP3    H229139   0.175   4.481  14.590  0.9183 -0.6305  0.2081
 2550TIP3   OH229140   3.930   3.211   3.678  0.3685 -0.3427  0.2382
 2550TIP3    H129141   3.860   3.150   3.703 -0.0096  0.2233  0.5824
 2550TIP3    H229142   3.944   3.265   3.756  0.2749  0.4090 -0.2513
 2551TIP3   OH229143   6.084   0.959   4.564  0.1429  0.3234 -0.1759
 2551TIP3    H129144   6.068   0.867   4.545  1.0499  0.2199 -0.5073
 2551TIP3    H229145   6.013   0.985   4.623  1.3604 -1.2869  2.1376
 2552TIP3   OH229146   3.648   1.727  11.928  0.2966 -0.3128  0.0374
 2552TIP3    H129147   3.686   1.754  11.844  0.2561  0.7817  0.3543
 2552TIP3    H229148   3.723   1.719  11.987  0.2099  0.0824  0.2013
 2553TIP3   OH229149   1.709   0.923   0.244 -0.5510  0.6032  0.4070
 2553TIP3    H129150   1.686   1.005   0.288 -1.4366 -0.0128  1.1261
 2553TIP3    H229151   1.625   0.877   0.234 -0.2520  0.3552 -1.1661
 2554TIP3   OH229152   0.121   1.584  10.461  0.1350  0.3965  0.4729
 2554TIP3    H129153   0.100   1.667  10.418 -2.3096  0.0142  0.7643
 2554TIP3    H229154   0.118   1.603  10.555 -2.1892 -0.2795  0.6119
 2555TIP3   OH229155   0.524   0.807  10.657 -0.1251 -0.4169  0.2138
 2555TIP3    H129156   0.558   0.801  10.567 -0.9277  2.0274 -0.3238
 2555TIP3    H229157   0.602   0.828  10.710  0.0928 -0.1956 -0.1841
 2556TIP3   OH229158   1.666   6.820  14.012  0.3482  0.2447  0.9713
 2556TIP3    H129159   1.648   6.769  13.933  0.7247  2.1677 -0.3994
 2556TIP3    H229160   1.623   6.771  14.082 -0.4041 -1.2529 -0.4759
 2557TIP3   OH229161   4.782   1.302   0.180  0.0296  0.0488 -0.1213
 2557TIP3    H129162   4.771   1.212   0.152 -2.1270  0.6269 -1.3649
 2557TIP3    H229163   4.794   1.352   0.099  1.3954  0.8720  0.5558
 2558TIP3   OH229164   5.502   4.847   5.169  0.0310  0.0807 -0.0836
 2558TIP3    H129165   5.539   4.798   5.243 -0.5566  0.4612  0.4809
 2558TIP3    H229166   5.412   4.865   5.197 -0.0296  0.6899 -0.6753
 2559TIP3   OH229167   4.163   5.325  15.760  0.2775  0.3814 -0.4014
 2559TIP3    H129168   4.106   5.375  15.819 -0.0148 -0.9825  0.4934
 2559TIP3    H229169   4.161   5.236  15.793  0.0668 -0.4581 -2.5132
 2560TIP3   OH229170   0.730   1.128   4.552  0.1155  0.5257  0.1510
 2560TIP3    H129171   0.665   1.169   4.494 -1.0516  1.3583  1.9701
 2560TIP3    H229172   0.724   1.035   4.532 -1.4275  0.6190  0.0260
 2561TIP3   OH229173   3.627   4.958   0.967  0.2427  0.0606  0.0485
 2561TIP3    H129174   3.565   4.956   0.895  1.5742  0.4827 -1.1473
 2561TIP3    H229175   3.634   4.867   0.996  2.3523 -0.7897 -2.7583
 2562TIP3   OH229176   5.871   2.634  14.218  0.1157  0.0900  0.1037
 2562TIP3    H129177   5.803   2.694  14.249  2.3106  1.6500  2.2976
 2562TIP3    H229178   5.840   2.547  14.243 -0.9883  0.7831  1.2454
 2563TIP3   OH229179   3.396   3.622   4.565 -0.0512  0.6377  0.6941
 2563TIP3    H129180   3.484   3.604   4.531 -0.1523 -0.6588  1.0512
 2563TIP3    H229181   3.352   3.537   4.561 -1.3521  1.3196  0.3487
 2564TIP3   OH229182   4.882   5.639   3.627 -0.1635 -0.0290  0.1120
 2564TIP3    H129183   4.948   5.707   3.614 -0.5622  0.1697 -0.9591
 2564TIP3    H229184   4.929   5.556   3.617  0.1023  0.0968  0.3222
 2565TIP3   OH229185   3.367   0.296  14.988  0.1938  0.0118  0.3032
 2565TIP3    H129186   3.333   0.350  15.060  0.9011  0.8790  0.0016
 2565TIP3    H229187   3.410   0.358  14.930 -0.4473 -0.6706 -0.9378
 2566TIP3   OH229188   4.901   2.973  15.130 -0.6341 -0.0774  0.0431
 2566TIP3    H129189   4.965   2.962  15.059  1.0052  0.6210  1.3516
 2566TIP3    H229190   4.823   3.006  15.086  1.3178  3.4949 -1.1539
 2567TIP3   OH229191   1.137   4.106  12.446  0.2814 -0.4484  0.4035
 2567TIP3    H129192   1.063   4.085  12.502  0.2222 -0.5442  0.2912
 2567TIP3    H229193   1.202   4.144  12.505  0.5970 -1.4321  0.6985
 2568TIP3   OH229194   4.046   3.732   3.806  0.2793  0.0581 -0.1678
 2568TIP3    H129195   3.997   3.663   3.760 -1.1025  1.0837 -0.2951
 2568TIP3    H229196   4.128   3.690   3.831 -0.2322 -1.4308 -0.8551
 2569TIP3   OH229197   1.092   6.671   0.955  0.9244  0.2465 -0.0451
 2569TIP3    H129198   1.097   6.681   0.859  2.5836  0.6308  0.0519
 2569TIP3    H229199   1.184   6.671   0.984  0.4561 -0.1267  1.5301
 2570TIP3   OH229200   6.131   0.519   0.662  0.6704 -0.0817  0.5469
 2570TIP3    H129201   6.126   0.592   0.724 -2.1315 -1.5038  2.1923
 2570TIP3    H229202   6.188   0.455   0.704 -1.4037 -1.1397  1.9265
 2571TIP3   OH229203   2.592   5.824  15.268  0.2566 -0.0487  0.2880
 2571TIP3    H129204   2.596   5.741  15.219 -1.7173 -0.5131  0.8552
 2571TIP3    H229205   2.529   5.808  15.338  0.3677  1.7345  0.8378
 2572TIP3   OH229206   1.138   5.905   5.367  0.3160 -0.5318 -0.1715
 2572TIP3    H129207   1.075   5.973   5.343 -1.2957 -1.3321  1.5352
 2572TIP3    H229208   1.090   5.823   5.357  1.5746 -1.2905 -0.2204
 2573TIP3   OH229209   3.225   2.606   1.045 -0.1498  0.1140 -0.1947
 2573TIP3    H129210   3.167   2.536   1.075  0.8048 -1.0802 -0.9966
 2573TIP3    H229211   3.188   2.635   0.961  0.1464 -0.3533 -0.4965
 2574TIP3   OH229212   0.623   3.315   5.055  0.2291 -0.4694  0.6559
 2574TIP3    H129213   0.685   3.265   5.001  1.0270  0.6347  0.5097
 2574TIP3    H229214   0.642   3.288   5.144  0.2804 -0.8299  0.5386
 2575TIP3   OH229215   1.510   2.983  11.734 -0.5200 -0.2338  0.0798
 2575TIP3    H129216   1.451   3.059  11.724 -0.7523 -0.5623 -1.3919
 2575TIP3    H229217   1.577   2.997  11.667 -1.7344 -2.3300 -1.6986
 2576TIP3   OH229218   3.287   5.834   5.492  0.0292 -0.3988  0.2946
 2576TIP3    H129219   3.200   5.871   5.477  0.3337 -0.0185 -0.6033
 2576TIP3    H229220   3.333   5.901   5.542  0.5330  0.4170 -1.2053
 2577TIP3   OH229221   4.777   6.040  16.870  0.1692 -0.0254  0.9781
 2577TIP3    H129222   4.735   6.125  16.864 -1.5354 -0.8780 -0.2995
 2577TIP3    H229223   4.821   6.029  16.785 -0.2438 -0.6899  0.8400
 2578TIP3   OH229224   1.370   3.632  11.747  0.0383 -0.3371 -0.2769
 2578TIP3    H129225   1.344   3.632  11.655  2.5728 -3.4010 -1.1483
 2578TIP3    H229226   1.464   3.645  11.746 -0.1632  2.1281  2.1585
 2579TIP3   OH229227   0.893   2.016   3.451 -0.2102  0.3637 -0.1411
 2579TIP3    H129228   0.833   1.947   3.479 -0.9031  0.3554 -1.5625
 2579TIP3    H229229   0.897   2.007   3.356 -2.1898  3.6874 -0.7118
 2580TIP3   OH229230   5.824   4.505   2.343 -0.4331 -0.0940  0.1341
 2580TIP3    H129231   5.779   4.457   2.274 -1.4683  0.1735  0.6035
 2580TIP3    H229232   5.836   4.441   2.413 -2.0340  0.3382  0.8590
 2581TIP3   OH229233   6.086   5.931  12.500  0.3337  0.5294 -0.5141
 2581TIP3    H129234   6.140   5.997  12.457  0.3487  0.6689 -0.2833
 2581TIP3    H229235   6.000   5.972  12.509  0.3553  0.5377 -0.3288
 2582TIP3   OH229236   4.750   0.084  11.048  0.0383 -0.5303  0.0594
 2582TIP3    H129237   4.807   0.092  11.125  2.0998  0.6648 -1.4888
 2582TIP3    H229238   4.810   0.076  10.974 -1.8019  0.4607 -1.6480
 2583TIP3   OH229239   0.197   1.577   0.823 -0.1475  0.5405 -0.0515
 2583TIP3    H129240   0.212   1.595   0.916 -0.3536 -0.6164  0.2183
 2583TIP3    H229241   0.262   1.511   0.800 -1.0030 -0.2147 -0.3622
 2584TIP3   OH229242   5.627   6.030  11.176 -0.3281 -0.1185 -0.6940
 2584TIP3    H129243   5.653   6.058  11.264 -3.5896  0.7742  0.0992
 2584TIP3    H229244   5.599   5.939  11.188 -1.4336  0.2216 -0.6322
 2585TIP3   OH229245   4.827   5.915   1.120  0.3638 -0.4571 -0.1726
 2585TIP3    H129246   4.784   5.908   1.035  3.7143 -0.7433 -2.0401
 2585TIP3    H229247   4.810   5.831   1.163 -2.0595  0.0065 -0.0909
 2586TIP3   OH229248   2.723   3.701   2.947  0.4235  0.1032 -0.3552
 2586TIP3    H129249   2.682   3.787   2.940  0.0355  0.1263  1.6818
 2586TIP3    H229250   2.656   3.640   2.916 -0.4814  0.2972  1.1496
 2587TIP3   OH229251   2.580   3.268  11.877  0.0892 -0.1145 -0.0100
 2587TIP3    H129252   2.553   3.193  11.928 -0.7595  0.1341 -0.0788
 2587TIP3    H229253   2.547   3.344  11.925  1.3875  0.2611  0.3369
 2588TIP3   OH229254   6.206   5.030   3.811  0.1837  0.2773 -0.4413
 2588TIP3    H129255   6.165   5.000   3.730  1.2469  0.8406 -1.2114
 2588TIP3    H229256   6.154   4.989   3.880 -0.1299 -1.0327 -1.4077
 2589TIP3   OH229257   0.988   5.341   1.343 -0.0386  0.5593  0.4756
 2589TIP3    H129258   0.910   5.325   1.396 -0.5147  0.6455 -0.1880
 2589TIP3    H229259   1.036   5.408   1.390 -0.5923  0.8230  0.6631
 2590TIP3   OH229260   3.529   6.216  10.848  0.0905 -0.3933 -0.2824
 2590TIP3    H129261   3.592   6.282  10.818 -0.8426  0.3970 -0.5483
 2590TIP3    H229262   3.446   6.241  10.807 -0.5260 -1.0992  0.4927
 2591TIP3   OH229263   2.223   3.061  14.667 -0.5486  0.6802 -0.7401
 2591TIP3    H129264   2.315   3.047  14.691 -0.7117  0.3499 -0.2927
 2591TIP3    H229265   2.183   3.096  14.747 -0.5685  1.9196 -1.2678
 2592TIP3   OH229266   2.838   5.646  15.077 -0.3092  0.2015  0.7873
 2592TIP3    H129267   2.879   5.571  15.033  0.0395  0.2524  1.0210
 2592TIP3    H229268   2.744   5.629  15.071 -0.2117 -0.6968  1.5943
 2593TIP3   OH229269   3.738   0.592   1.628 -0.3116  0.2354  0.4913
 2593TIP3    H129270   3.740   0.574   1.722  0.2096  0.6756  0.5720
 2593TIP3    H229271   3.769   0.511   1.588 -3.3512 -1.0695  0.4900
 2594TIP3   OH229272   2.957   3.363   2.344 -0.2932  0.5053  0.0640
 2594TIP3    H129273   3.034   3.350   2.399 -0.0746  1.2823 -0.0459
 2594TIP3    H229274   2.983   3.431   2.283 -0.1497 -1.0794 -1.7394
 2595TIP3   OH229275   0.412   2.691  10.623 -0.0921  0.0256  0.4494
 2595TIP3    H129276   0.506   2.707  10.632  0.0090 -0.6442  0.6736
 2595TIP3    H229277   0.381   2.679  10.712 -0.2412 -0.5379  0.3247
 2596TIP3   OH229278   2.244   1.362   2.236  0.1403 -0.0232 -0.5417
 2596TIP3    H129279   2.198   1.443   2.255 -0.6748 -0.6720  0.3318
 2596TIP3    H229280   2.183   1.293   2.262  1.2422 -0.9098 -0.2431
 2597TIP3   OH229281   4.858   5.263  11.736  0.2274 -1.1020  0.2570
 2597TIP3    H129282   4.891   5.207  11.666  1.0050 -1.0109  0.5470
 2597TIP3    H229283   4.890   5.222  11.817  0.7665 -0.2639  0.4741
 2598TIP3   OH229284   3.162   3.437   6.370  0.0105 -0.3634 -0.2503
 2598TIP3    H129285   3.131   3.370   6.430  0.5093 -0.4392 -0.0750
 2598TIP3    H229286   3.137   3.520   6.411  2.2223 -0.3070  1.1903
 2599TIP3   OH229287   2.159   4.564  16.124 -0.1278 -0.0010  0.7043
 2599TIP3    H129288   2.131   4.519  16.204 -0.1894 -0.9225  0.1783
 2599TIP3    H229289   2.078   4.586  16.079 -0.1085  0.9076  1.0878
 2600TIP3   OH229290   0.834   6.016   0.312  0.5195  0.5411 -0.5984
 2600TIP3    H129291   0.864   5.987   0.226  0.0741  2.2154 -1.3566
 2600TIP3    H229292   0.738   6.006   0.308  0.5233  0.3192 -0.1767
 2601TIP3   OH229293   0.696   3.166   2.970 -0.3999 -0.1301  0.0809
 2601TIP3    H129294   0.764   3.233   2.973 -0.7283  0.3510 -1.7684
 2601TIP3    H229295   0.720   3.110   2.896  0.2982 -2.6072  2.0370
 2602TIP3   OH229296   5.584   5.109   2.962  0.3098  0.5561  0.0276
 2602TIP3    H129297   5.676   5.132   2.979 -0.0154  1.1034  1.1156
 2602TIP3    H229298   5.588   5.050   2.886  1.5873  0.3279  0.2463
 2603TIP3   OH229299   3.716   2.652  12.590 -0.5181 -0.1095  0.1121
 2603TIP3    H129300   3.765   2.632  12.511 -2.7368  0.0977 -1.4308
 2603TIP3    H229301   3.644   2.589  12.591 -0.3699 -0.3223  2.1718
 2604TIP3   OH229302   3.853   6.619  15.802  0.2229 -0.2646 -0.3954
 2604TIP3    H129303   3.788   6.552  15.822  0.4443 -0.3817 -0.0553
 2604TIP3    H229304   3.919   6.575  15.750  0.4887 -0.3701  0.0302
 2605TIP3   OH229305   2.578   6.032  15.637 -0.0900  0.2401  0.0930
 2605TIP3    H129306   2.531   6.098  15.687 -0.1383  1.1274 -1.0709
 2605TIP3    H229307   2.514   6.000  15.573 -0.0794 -0.9828  0.6577
 2606TIP3   OH229308   2.864   4.151  14.126  0.1383 -0.4934 -0.0367
 2606TIP3    H129309   2.955   4.175  14.114 -0.4990  2.2816  0.0340
 2606TIP3    H229310   2.821   4.175  14.044 -0.6765 -1.1033  0.1919
 2607TIP3   OH229311   3.012   5.299  15.770  0.1494  0.2888  0.1603
 2607TIP3    H129312   2.921   5.330  15.776  0.0826 -0.0221  0.9156
 2607TIP3    H229313   3.015   5.249  15.689 -0.1958  0.8201 -0.1830
 2608TIP3   OH229314   4.105   0.601   5.673 -0.9036  0.0232 -0.7712
 2608TIP3    H129315   4.074   0.535   5.735  1.1191  0.0919  0.4010
 2608TIP3    H229316   4.073   0.684   5.708 -1.5140 -0.1173 -0.9836
 2609TIP3   OH229317   5.187   0.022  14.432 -0.2827  0.1061  0.2151
 2609TIP3    H129318   5.171   0.013  14.526 -1.0305 -0.7665  0.0192
 2609TIP3    H229319   5.110   0.068  14.399 -1.0411 -1.4445 -0.2749
 2610TIP3   OH229320   3.586   1.211   3.736 -0.8091  0.2251  0.9481
 2610TIP3    H129321   3.616   1.273   3.802  0.3327  0.0660  0.6118
 2610TIP3    H229322   3.527   1.261   3.680  0.2165  1.0652  0.5882
 2611TIP3   OH229323   6.844   6.055   1.967  0.4238  0.6640  0.1640
 2611TIP3    H129324   6.890   6.087   1.889  1.0259 -3.2096 -1.2826
 2611TIP3    H229325   6.752   6.049   1.939  0.8378 -2.0518 -0.8866
 2612TIP3   OH229326   3.880   6.760   3.041 -0.0964 -0.5276 -0.1025
 2612TIP3    H129327   3.884   6.819   3.116 -0.0385 -1.0011  0.2674
 2612TIP3    H229328   3.871   6.819   2.965 -0.9406 -0.0764  0.3339
 2613TIP3   OH229329   3.958   1.096  10.491 -0.1973  0.2427 -0.6191
 2613TIP3    H129330   3.990   1.176  10.532 -0.1214  0.0110 -0.2255
 2613TIP3    H229331   3.862   1.106  10.491 -0.1677  0.6202 -1.1635
 2614TIP3   OH229332   0.606   4.804   0.063 -0.1495 -0.4371  0.1531
 2614TIP3    H129333   0.603   4.897   0.042  0.8168 -0.1179  1.3331
 2614TIP3    H229334   0.689   4.774   0.026 -0.6984 -0.9657 -0.6869
 2615TIP3   OH229335   2.956   4.015  16.536  0.0664  0.5341 -0.0054
 2615TIP3    H129336   3.005   3.941  16.573 -1.4795 -0.7477 -0.4273
 2615TIP3    H229337   3.015   4.052  16.470  1.6292  0.9300  1.5306
 2616TIP3   OH229338   3.666   6.361  11.648 -0.4425 -0.0124  0.1322
 2616TIP3    H129339   3.703   6.414  11.578 -0.7281  2.5894  1.8287
 2616TIP3    H229340   3.613   6.295  11.602  0.9208  0.3380 -2.1061
 2617TIP3   OH229341   2.219   2.387  16.860  0.0040 -0.5668 -0.0662
 2617TIP3    H129342   2.145   2.420  16.810  0.9682  0.7487 -0.6844
 2617TIP3    H229343   2.289   2.377  16.795  1.5395  1.9644  1.0622
 2618TIP3   OH229344   5.603   0.185  11.849 -0.1880  0.4868 -0.5938
 2618TIP3    H129345   5.693   0.158  11.869 -0.2444  0.4643 -0.3693
 2618TIP3    H229346   5.552   0.105  11.854 -0.6636  0.8632  1.8054
 2619TIP3   OH229347   3.589   5.131   4.388 -0.0828 -0.0162  0.5307
 2619TIP3    H129348   3.537   5.074   4.444  0.3396 -0.6295  0.3035
 2619TIP3    H229349   3.606   5.080   4.309 -2.3231  1.5110 -1.0458
 2620TIP3   OH229350   5.994   2.755  12.368 -0.0998  0.0465  0.0177
 2620TIP3    H129351   5.969   2.769  12.459 -2.6413 -0.2394 -0.5628
 2620TIP3    H229352   6.015   2.662  12.363 -2.3727 -0.5124 -0.1362
 2621TIP3   OH229353   0.114   4.224   4.627  0.0613 -0.1882  0.9080
 2621TIP3    H129354   0.181   4.185   4.571 -0.1834 -1.0635  1.2041
 2621TIP3    H229355   0.087   4.303   4.581  1.5860  0.4138  0.9824
 2622TIP3   OH229356   5.745   4.928   4.490 -0.7428  0.4348 -0.3632
 2622TIP3    H129357   5.720   4.994   4.425  0.5120  0.8981 -0.3991
 2622TIP3    H229358   5.782   4.978   4.563 -0.4757 -0.1844 -0.0623
 2623TIP3   OH229359   4.341   0.094   3.626  0.2947 -0.5270  0.4447
 2623TIP3    H129360   4.262   0.097   3.680 -0.2865 -0.3492 -0.4105
 2623TIP3    H229361   4.391   0.171   3.653 -1.2225  1.0883 -1.1009
 2624TIP3   OH229362   3.429   1.756   3.062 -0.2605 -0.5521  0.0624
 2624TIP3    H129363   3.456   1.667   3.039 -0.1815 -0.3449 -0.6504
 2624TIP3    H229364   3.342   1.745   3.101  0.9139 -1.2745  2.7484
 2625TIP3   OH229365   0.468   2.453  11.187 -0.5924 -0.3950  0.1897
 2625TIP3    H129366   0.508   2.459  11.100 -0.3120 -0.5579  0.3042
 2625TIP3    H229367   0.415   2.532  11.194 -0.5902 -0.3633 -0.1166
 2626TIP3   OH229368   5.502   1.905  15.174 -1.3658  0.0856  0.7830
 2626TIP3    H129369   5.445   1.964  15.125 -0.8592 -0.5111 -0.5661
 2626TIP3    H229370   5.560   1.963  15.224 -1.1360  0.7357 -0.2125
 2627TIP3   OH229371   5.997   6.417   2.601 -0.5575  0.1437 -0.4118
 2627TIP3    H129372   5.957   6.425   2.688 -1.6743  1.7808 -1.0115
 2627TIP3    H229373   6.090   6.435   2.615 -1.0671  2.7044  0.1942
 2628TIP3   OH229374   0.569   4.444  14.300  0.2220 -0.4299 -0.4685
 2628TIP3    H129375   0.495   4.501  14.321  1.2601  0.5972  0.5764
 2628TIP3    H229376   0.613   4.488  14.227 -0.6042 -1.4384 -1.6035
 2629TIP3   OH229377   0.387   4.286   2.688  0.3355  0.2756  0.2029
 2629TIP3    H129378   0.404   4.236   2.608 -1.7182  1.8820 -1.3485
 2629TIP3    H229379   0.402   4.223   2.759 -1.3160 -2.3148 -1.5684
 2630TIP3   OH229380   1.278   1.393  10.611  0.3539 -0.0968  0.1117
 2630TIP3    H129381   1.293   1.466  10.671  1.7805 -0.5728  0.3755
 2630TIP3    H229382   1.197   1.353  10.641  1.0230 -0.3094  1.7247
 2631TIP3   OH229383   6.008   5.982  13.623  0.0062  0.2583  0.6036
 2631TIP3    H129384   6.045   6.066  13.651  0.1524  0.1069  0.8786
 2631TIP3    H229385   5.976   5.997  13.535  0.9511  0.3378  0.2587
 2632TIP3   OH229386   1.314   6.184   5.240 -0.4522 -0.4165 -0.5534
 2632TIP3    H129387   1.275   6.190   5.327 -2.4638 -0.9786 -1.3496
 2632TIP3    H229388   1.405   6.158   5.255 -1.3949 -3.0244  1.3070
 2633TIP3   OH229389   0.874   1.294  16.926  0.5278  0.1752 -0.1204
 2633TIP3    H129390   0.848   1.379  16.889 -1.0880 -0.8391 -1.5028
 2633TIP3    H229391   0.963   1.281  16.895  0.8776  1.4414  0.2815
 2634TIP3   OH229392   6.685   2.017   0.089  0.6209  0.9414  0.7254
 2634TIP3    H129393   6.625   2.090   0.106  0.3858  0.6765  1.0446
 2634TIP3    H229394   6.648   1.973   0.012  0.1268  0.4961  1.2018
 2635TIP3   OH229395   0.766   2.357   5.202  0.1178  0.3468  0.1183
 2635TIP3    H129396   0.729   2.332   5.287  1.1787 -0.5092  0.3538
 2635TIP3    H229397   0.727   2.296   5.140 -1.8246  1.9239 -0.3013
 2636TIP3   OH229398   2.197   3.706  14.853  0.5882 -0.5954  0.2614
 2636TIP3    H129399   2.196   3.802  14.849 -1.3180 -0.5683  0.7077
 2636TIP3    H229400   2.115   3.679  14.813  1.4035 -2.0989 -0.4887
 2637TIP3   OH229401   6.024   0.538  14.602 -0.2860 -0.0083  0.3226
 2637TIP3    H129402   5.945   0.563  14.650  0.1043  1.0221  0.4567
 2637TIP3    H229403   6.026   0.442  14.607 -2.7195 -0.2560 -1.5748
 2638TIP3   OH229404   5.670   1.417   1.787  0.1740 -0.2929  0.5923
 2638TIP3    H129405   5.728   1.478   1.833 -0.8060 -0.3586  2.0075
 2638TIP3    H229406   5.586   1.427   1.832 -0.3233 -1.7961  0.0507
 2639TIP3   OH229407   2.938   4.806  13.847  0.5001 -0.4680  0.2203
 2639TIP3    H129408   2.969   4.849  13.767  1.1337  0.7707  1.0921
 2639TIP3    H229409   3.012   4.813  13.908 -0.2961 -0.5572  1.2173
 2640TIP3   OH229410   0.228   5.359  10.608 -0.5807 -0.0484  1.4162
 2640TIP3    H129411   0.233   5.284  10.549 -0.9502  1.1612 -0.2223
 2640TIP3    H229412   0.319   5.382  10.625 -0.3949  1.2041 -0.8943
 2641TIP3   OH229413   0.892   6.370  16.247 -0.0106 -0.1080 -0.5133
 2641TIP3    H129414   0.806   6.413  16.248 -0.9719 -1.8783  1.2942
 2641TIP3    H229415   0.938   6.406  16.323  0.5772  0.3013 -1.0531
 2642TIP3   OH229416   0.047   0.249  15.595 -0.7803  0.0357 -0.1406
 2642TIP3    H129417  -0.031   0.301  15.578  0.2075  1.5122 -0.3869
 2642TIP3    H229418   0.064   0.203  15.513 -0.1904  1.4087 -0.8217
 2643TIP3   OH229419   5.592   2.250  15.201  0.4286 -0.3753 -0.3591
 2643TIP3    H129420   5.609   2.183  15.268  1.9658  0.6027  0.2906
 2643TIP3    H229421   5.498   2.267  15.208  0.3684 -1.0611  0.8140
 2644TIP3   OH229422   3.898   5.335  12.783  0.1235 -0.0699 -0.3510
 2644TIP3    H129423   3.991   5.341  12.760 -0.0886 -0.6315 -1.4422
 2644TIP3    H229424   3.886   5.243  12.809 -0.2935 -0.2174 -1.0388
 2645TIP3   OH229425   3.524   0.269   4.497  0.3833  0.4258 -0.0686
 2645TIP3    H129426   3.488   0.193   4.544 -1.3640  0.2690 -1.5604
 2645TIP3    H229427   3.544   0.332   4.566 -0.8535 -0.3087  1.0100
 2646TIP3   OH229428   0.067   0.277   4.273 -0.1830  0.4171 -0.4242
 2646TIP3    H129429   0.160   0.252   4.269 -0.1323  0.6406 -0.6985
 2646TIP3    H229430   0.067   0.361   4.318 -0.2169  0.5878 -0.7399
 2647TIP3   OH229431   4.154   5.373   5.295  1.1245 -0.1544  0.1758
 2647TIP3    H129432   4.232   5.411   5.254  0.8493  0.2636  0.0291
 2647TIP3    H229433   4.081   5.418   5.253  0.7438 -1.5570 -0.6922
 2648TIP3   OH229434   5.605   5.165  12.797  0.3992 -0.5602  0.2131
 2648TIP3    H129435   5.678   5.136  12.851  0.4665 -0.5316  0.1390
 2648TIP3    H229436   5.624   5.257  12.780 -0.0450 -0.3512  0.8264
 2649TIP3   OH229437   4.724   1.065   3.356 -0.4162 -0.5779 -0.1279
 2649TIP3    H129438   4.716   1.159   3.336  2.4611  0.2803  1.9974
 2649TIP3    H229439   4.780   1.062   3.434  1.2029 -4.1115 -1.2066
 2650TIP3   OH229440   6.806   6.758  15.695 -0.5132 -0.4797  0.4911
 2650TIP3    H129441   6.749   6.808  15.637  2.1766  0.5675 -1.4290
 2650TIP3    H229442   6.829   6.820  15.765  0.9720  0.2743 -0.6285
 2651TIP3   OH229443   5.395   0.992   4.123  0.1284  0.3663  0.2408
 2651TIP3    H129444   5.359   1.078   4.104 -0.7823 -0.0759 -0.0614
 2651TIP3    H229445   5.486   1.009   4.149  0.1312  1.3548 -0.3950
 2652TIP3   OH229446   0.023   2.137   1.100  0.2709 -0.1238  0.1732
 2652TIP3    H129447   0.044   2.047   1.123  1.4799  0.6164  2.2539
 2652TIP3    H229448   0.072   2.190   1.163 -2.6125  1.9374  0.9286
 2653TIP3   OH229449   1.039   0.785   4.200 -0.3390  0.0498  0.6980
 2653TIP3    H129450   1.041   0.851   4.269 -1.2485  0.7436  0.0909
 2653TIP3    H229451   1.005   0.832   4.124 -1.8337 -1.2928  0.4789
 2654TIP3   OH229452   1.122   4.224   6.720 -0.0938  0.4424  0.0899
 2654TIP3    H129453   1.122   4.313   6.684 -0.0989  0.2126 -0.4932
 2654TIP3    H229454   1.215   4.200   6.723 -0.0981  0.4347  0.1713
 2655TIP3   OH229455   4.347   4.840   1.369  0.7121 -0.0156  0.0725
 2655TIP3    H129456   4.286   4.887   1.425  0.3783 -1.5752  1.0798
 2655TIP3    H229457   4.434   4.869   1.397  0.4838  1.2786 -0.5194
 2656TIP3   OH229458   1.152   1.905  14.259 -0.2876 -0.0155  0.2832
 2656TIP3    H129459   1.237   1.926  14.298  1.1600 -1.5231 -1.8030
 2656TIP3    H229460   1.114   1.839  14.317  1.0059 -0.9251  0.1461
 2657TIP3   OH229461   3.194   3.333  12.072  0.0833  0.0092  0.4249
 2657TIP3    H129462   3.215   3.331  11.978  0.4837 -1.6065  0.5253
 2657TIP3    H229463   3.185   3.241  12.096 -0.9053  0.4373  1.7907
 2658TIP3   OH229464   4.731   2.586   5.470 -0.1231  0.3873 -0.3368
 2658TIP3    H129465   4.650   2.635   5.488 -0.0715 -0.1718  1.6357
 2658TIP3    H229466   4.800   2.641   5.506  0.1148 -0.2764  0.2335
 2659TIP3   OH229467   5.245   6.782   2.457 -0.0238 -0.4530 -0.1003
 2659TIP3    H129468   5.171   6.721   2.454  0.3391 -1.1057  2.2744
 2659TIP3    H229469   5.204   6.868   2.447 -1.1181 -0.8112  0.9746
 2660TIP3   OH229470   3.718   6.366  16.707 -0.5582 -0.2325 -0.2767
 2660TIP3    H129471   3.765   6.284  16.724 -0.3596 -0.0841 -0.1123
 2660TIP3    H229472   3.786   6.428  16.683 -0.6044  0.1234  0.4759
 2661TIP3   OH229473   6.531   1.000  15.958  0.5416  0.3117  0.1169
 2661TIP3    H129474   6.624   1.017  15.944  0.3652  1.8411  0.5913
 2661TIP3    H229475   6.519   1.007  16.052  0.0685 -0.6351  0.1385
 2662TIP3   OH229476   4.472   4.122  16.027 -0.1378 -0.0466  0.4359
 2662TIP3    H129477   4.452   4.161  16.112 -1.5541  0.1318  0.0295
 2662TIP3    H229478   4.503   4.196  15.974 -0.6340  0.1089  0.3606
 2663TIP3   OH229479   0.384   4.417  12.498  0.2146  0.2718  0.1994
 2663TIP3    H129480   0.375   4.502  12.455  1.3259  0.7096  0.7962
 2663TIP3    H229481   0.417   4.437  12.585 -0.1649 -0.7366  0.5982
 2664TIP3   OH229482   2.110   0.889  11.032  0.0860 -0.2381 -0.4691
 2664TIP3    H129483   2.051   0.886  10.957  1.1497 -1.3605 -1.2913
 2664TIP3    H229484   2.158   0.971  11.023  0.5289 -0.5806 -1.2813
 2665TIP3   OH229485   4.068   3.519   4.354 -0.1770 -0.2430  0.0377
 2665TIP3    H129486   4.123   3.443   4.373 -0.0901  0.2868  2.0607
 2665TIP3    H229487   4.122   3.594   4.380 -0.4545  0.5227 -1.4675
 2666TIP3   OH229488   1.735   1.914  15.860 -0.0015  0.1321  0.1714
 2666TIP3    H129489   1.708   1.999  15.895 -1.8136  0.0009 -0.7866
 2666TIP3    H229490   1.760   1.932  15.770 -0.5886 -0.3699 -0.0982
 2667TIP3   OH229491   1.315   4.018   1.633 -0.4947 -0.0504 -0.2474
 2667TIP3    H129492   1.325   4.103   1.676 -0.8442 -0.3674  0.4736
 2667TIP3    H229493   1.314   4.039   1.540  0.1741  0.6620 -0.1117
 2668TIP3   OH229494   3.599   2.772   2.039 -0.4807  0.6165 -0.0345
 2668TIP3    H129495   3.525   2.834   2.038 -1.5865 -0.6260  0.9154
 2668TIP3    H229496   3.558   2.687   2.025  0.3842 -0.4220  2.9660
 2669TIP3   OH229497   1.367   5.705  13.632 -0.4476 -0.6194 -0.4892
 2669TIP3    H129498   1.425   5.750  13.570  1.0730 -1.2345  0.4225
 2669TIP3    H229499   1.377   5.755  13.713 -1.4747 -0.5468 -0.4011
 2670TIP3   OH229500   4.672   0.227   5.628  0.0209 -0.0124 -0.0846
 2670TIP3    H129501   4.656   0.133   5.640  0.1087 -0.3172 -2.0497
 2670TIP3    H229502   4.620   0.251   5.551  0.2379  1.4899  0.2113
 2671TIP3   OH229503   1.141   5.904   3.721 -0.1040  0.2278 -0.5116
 2671TIP3    H129504   1.182   5.841   3.779 -2.3788 -0.7899  0.0995
 2671TIP3    H229505   1.148   5.988   3.767 -0.7686 -0.3459  0.6693
 2672TIP3   OH229506   1.319   0.713   4.188  0.3331  0.2850  0.0542
 2672TIP3    H129507   1.224   0.720   4.192  0.2476 -0.7939  0.1795
 2672TIP3    H229508   1.351   0.783   4.245 -0.3855  0.4948  0.2064
 2673TIP3   OH229509   2.143   6.775   1.917  0.1039 -0.2142 -0.3877
 2673TIP3    H129510   2.109   6.686   1.923  0.2581 -0.2224  0.4457
 2673TIP3    H229511   2.222   6.768   1.865 -0.4658 -0.3941 -1.2468
 2674TIP3   OH229512   6.341   2.378  11.578  0.4324 -0.2822  0.2300
 2674TIP3    H129513   6.275   2.346  11.517  0.9302 -0.3589 -0.2744
 2674TIP3    H229514   6.369   2.301  11.627  1.1176 -0.5077 -0.4933
 2675TIP3   OH229515   0.932   4.092  11.737  0.1757 -0.6624 -0.2506
 2675TIP3    H129516   0.899   4.025  11.797  2.6282  0.3380  2.4281
 2675TIP3    H229517   1.012   4.056  11.701  2.0485  1.0205  1.9457
 2676TIP3   OH229518   1.660   2.125   5.949  0.1698  0.1581  0.3412
 2676TIP3    H129519   1.613   2.161   5.874 -0.1719 -0.0894  0.4338
 2676TIP3    H229520   1.681   2.202   6.002 -0.4119  0.2506  0.4534
 2677TIP3   OH229521   5.366   0.225   4.925  0.4306  0.1954  0.4234
 2677TIP3    H129522   5.302   0.175   4.976  0.4408  1.4573  1.7187
 2677TIP3    H229523   5.433   0.160   4.902 -1.6986 -1.3855 -1.8038
 2678TIP3   OH229524   0.148   5.989  16.302 -0.1370 -0.0361  0.4160
 2678TIP3    H129525   0.159   5.903  16.261 -0.9889 -0.3282  0.7764
 2678TIP3    H229526   0.053   6.001  16.307 -0.0326  0.5300  1.1920
 2679TIP3   OH229527   6.368   6.369  15.269  0.1882 -0.1926  0.8064
 2679TIP3    H129528   6.377   6.340  15.178  2.8225 -0.5932  1.1234
 2679TIP3    H229529   6.415   6.302  15.320  0.3501  0.9860  2.2592
 2680TIP3   OH229530   5.282   1.258   1.698 -0.3627  0.1953 -0.1639
 2680TIP3    H129531   5.375   1.263   1.677 -0.1792  0.2232  0.6439
 2680TIP3    H229532   5.256   1.348   1.719 -0.3242  0.0297  0.6226
 2681TIP3   OH229533   4.208   4.670  15.122  0.3024  0.6193 -0.4007
 2681TIP3    H129534   4.128   4.722  15.133  1.0024  1.6954 -0.2010
 2681TIP3    H229535   4.215   4.621  15.204 -1.9659 -2.1995 -1.7151
 2682TIP3   OH229536   3.920   3.594  10.444 -0.6252 -0.0037 -0.0874
 2682TIP3    H129537   3.923   3.545  10.361  0.2027  1.1718 -0.7829
 2682TIP3    H229538   3.912   3.526  10.511 -2.0130 -0.9470 -1.1560
 2683TIP3   OH229539   3.075   0.350   5.398 -0.4117  0.1595 -0.3037
 2683TIP3    H129540   3.158   0.320   5.435 -0.7183 -0.1202  0.1638
 2683TIP3    H229541   3.015   0.277   5.411 -1.5954  1.4757  2.2141
 2684TIP3   OH229542   5.933   0.084   0.136 -0.1681 -0.3424 -0.0328
 2684TIP3    H129543   5.991   0.069   0.210  1.7642  2.9501 -0.6959
 2684TIP3    H229544   5.992   0.097   0.062 -1.9769 -1.5368 -1.7586
 2685TIP3   OH229545   1.023   6.438   4.159  0.1732 -0.1073 -0.1951
 2685TIP3    H129546   1.113   6.463   4.183 -0.1360 -0.6564  1.7483
 2685TIP3    H229547   0.992   6.511   4.106  1.9520 -0.1922 -1.4765
 2686TIP3   OH229548   3.065   0.555  14.813  0.3350  0.4625 -0.1572
 2686TIP3    H129549   3.038   0.622  14.750 -1.7248 -0.6517 -0.5662
 2686TIP3    H229550   2.990   0.546  14.872  0.3718 -1.7397 -0.3520
 2687TIP3   OH229551   0.452   1.742  14.004  1.1785  0.8248  0.3672
 2687TIP3    H129552   0.491   1.710  13.923 -1.6727 -1.5753 -0.2089
 2687TIP3    H229553   0.505   1.703  14.073 -0.8109 -3.7458 -0.3562
 2688TIP3   OH229554   1.727   5.891   3.984  0.4099 -0.5292 -0.4470
 2688TIP3    H129555   1.774   5.809   4.000  2.1628  0.2272 -1.4171
 2688TIP3    H229556   1.733   5.939   4.067 -2.7278 -2.2413  0.9734
 2689TIP3   OH229557   2.703   1.149   1.047  0.6731  0.4678 -0.2686
 2689TIP3    H129558   2.720   1.107   1.131  1.2783 -0.4807 -0.8438
 2689TIP3    H229559   2.627   1.103   1.012  0.3873  0.8970 -0.2154
 2690TIP3   OH229560   2.126   4.194   6.528 -0.4903  0.1298 -0.3548
 2690TIP3    H129561   2.131   4.289   6.530 -2.4714  0.2813  1.4798
 2690TIP3    H229562   2.034   4.175   6.547  0.2497 -2.1634  1.3752
 2691TIP3   OH229563   6.703   0.210  13.489  0.6706  0.7364  0.0991
 2691TIP3    H129564   6.608   0.224  13.490  0.1464 -2.2235  0.1666
 2691TIP3    H229565   6.715   0.124  13.528  3.2620  0.3443 -1.3497
 2692TIP3   OH229566   1.652   2.028   0.610  0.4353 -0.0077 -0.1728
 2692TIP3    H129567   1.740   2.008   0.641 -0.1823 -0.1332  1.5732
 2692TIP3    H229568   1.645   2.123   0.619  1.2837  0.4030 -2.8700
 2693TIP3   OH229569   5.574   6.638   1.598 -0.3852 -0.6979 -0.4006
 2693TIP3    H129570   5.591   6.546   1.576 -0.3757 -0.7824 -0.0464
 2693TIP3    H229571   5.503   6.663   1.539  2.0040  0.1756 -3.1002
 2694TIP3   OH229572   3.745   1.880  15.455  0.0648 -0.2488 -0.4922
 2694TIP3    H129573   3.798   1.934  15.513 -1.5217  0.2148  0.5920
 2694TIP3    H229574   3.683   1.942  15.415 -0.6655 -1.0030 -0.5530
 2695TIP3   OH229575   1.278   6.075  12.124  0.0670  0.1197 -0.0687
 2695TIP3    H129576   1.368   6.045  12.137  0.0303  0.5278  1.2453
 2695TIP3    H229577   1.224   6.015  12.175 -0.5711 -0.8912 -1.8379
 2696TIP3   OH229578   1.770   4.565   3.486  0.9209  0.0703 -0.3128
 2696TIP3    H129579   1.805   4.653   3.499  2.1698 -0.4585  0.1041
 2696TIP3    H229580   1.833   4.522   3.429  1.1544 -1.0255  0.7228
 2697TIP3   OH229581   4.435   0.417  13.044  0.1196  0.1887 -0.8717
 2697TIP3    H129582   4.450   0.482  12.975  1.9216 -0.3050 -1.0106
 2697TIP3    H229583   4.484   0.340  13.014  1.4917  0.1560  1.2235
 2698TIP3   OH229584   5.454   3.512   1.995  0.0245 -0.4043  0.1963
 2698TIP3    H129585   5.505   3.528   2.075 -0.2765 -0.8796  0.4880
 2698TIP3    H229586   5.368   3.549   2.013 -0.6892 -2.2593  0.8891
 2699TIP3   OH229587   0.789   4.463   2.292 -0.8751 -0.1009  0.1102
 2699TIP3    H129588   0.810   4.537   2.235  0.1730  0.3135  1.0058
 2699TIP3    H229589   0.720   4.496   2.350 -0.5280  0.1288  0.3965
 2700TIP3   OH229590   0.555   0.925   6.250  0.0748  0.4530  0.1743
 2700TIP3    H129591   0.515   0.850   6.293 -1.3766  0.4767 -1.0748
 2700TIP3    H229592   0.614   0.887   6.185  2.3538  0.4156  2.1110
 2701TIP3   OH229593   5.597   1.536  11.641  0.0177  0.4182  0.0551
 2701TIP3    H129594   5.679   1.510  11.598  1.0997 -0.1770  2.3156
 2701TIP3    H229595   5.530   1.483  11.598  1.0026 -0.1012 -0.9116
 2702TIP3   OH229596   0.022   5.137  16.891  0.0668 -0.6122 -0.1331
 2702TIP3    H129597   0.093   5.099  16.840  0.7865  0.8131 -0.2453
 2702TIP3    H229598  -0.043   5.066  16.899  0.7614 -1.4333 -1.4153
 2703TIP3   OH229599   6.743   2.264   2.620  0.2477  0.8412 -0.3964
 2703TIP3    H129600   6.662   2.276   2.571 -1.1311  0.4353  1.6451
 2703TIP3    H229601   6.744   2.336   2.684  1.4041  0.7191 -0.2470
 2704TIP3   OH229602   0.830   6.068   3.101 -0.2793  0.4937 -0.1644
 2704TIP3    H129603   0.813   6.111   3.017  0.4602  1.6549  0.2587
 2704TIP3    H229604   0.923   6.081   3.117 -0.4749  0.6529  1.0109
 2705TIP3   OH229605   4.058   3.785  10.553 -0.3235 -0.1264 -0.5582
 2705TIP3    H129606   4.000   3.861  10.550  1.4176  1.2352 -2.4404
 2705TIP3    H229607   4.013   3.719  10.499 -1.9555 -0.6114  1.2746
 2706TIP3   OH229608   3.235   5.712  14.692 -0.9736  0.2913 -0.0249
 2706TIP3    H129609   3.209   5.687  14.603 -0.1451  0.6218 -0.3664
 2706TIP3    H229610   3.256   5.805  14.685  1.9976 -0.3037 -0.1893
 2707TIP3   OH229611   1.051   4.455   6.106  0.4748  0.1263  0.5746
 2707TIP3    H129612   1.105   4.460   6.185 -0.5820  0.3331  1.2935
 2707TIP3    H229613   1.018   4.545   6.094  0.7833  0.1441 -0.2213
 2708TIP3   OH229614   4.789   6.170   4.278  0.3799 -0.4253  0.2313
 2708TIP3    H129615   4.873   6.174   4.324  2.1678  0.9537 -2.7768
 2708TIP3    H229616   4.762   6.262   4.271 -2.0129 -0.9034  2.0007
 2709TIP3   OH229617   2.312   3.597   0.242  0.3763 -0.0627 -0.1788
 2709TIP3    H129618   2.225   3.611   0.204 -0.3251  0.4761  1.5526
 2709TIP3    H229619   2.339   3.684   0.272  0.0672 -0.7385  2.2365
 2710TIP3   OH229620   2.670   0.252   4.228 -0.0405 -0.8238  0.1518
 2710TIP3    H129621   2.736   0.269   4.296  0.7905 -1.1263 -0.5611
 2710TIP3    H229622   2.720   0.249   4.147 -1.2083  1.1614 -0.7251
 2711TIP3   OH229623   0.844   4.424   3.615 -0.4323  0.1159 -0.1265
 2711TIP3    H129624   0.894   4.452   3.692  0.0183  0.6611 -0.6044
 2711TIP3    H229625   0.888   4.466   3.541 -1.1702  0.0237 -0.6344
 2712TIP3   OH229626   2.278   2.304  10.592 -0.6078 -0.2524 -0.2971
 2712TIP3    H129627   2.248   2.225  10.638 -2.1824  0.8034  0.5775
 2712TIP3    H229628   2.259   2.288  10.500 -1.8073 -0.5393 -0.0158
 2713TIP3   OH229629   2.674   6.365   2.805  0.1111  0.0330  0.2322
 2713TIP3    H129630   2.596   6.311   2.816 -0.0401 -0.0603 -1.1461
 2713TIP3    H229631   2.662   6.407   2.720  1.0572  0.8700  0.4997
 2714TIP3   OH229632   1.857   0.137  13.924 -0.3883 -0.2082  0.6307
 2714TIP3    H129633   1.878   0.174  14.010 -0.4371  1.5459 -0.0839
 2714TIP3    H229634   1.778   0.085  13.939 -1.5214  1.6486  1.2919
 2715TIP3   OH229635   3.402   6.529   3.240  0.0226  0.6168  0.1447
 2715TIP3    H129636   3.340   6.515   3.167  0.9576  0.8800 -0.7235
 2715TIP3    H229637   3.469   6.586   3.203  1.6666 -0.9726  0.5548
 2716TIP3   OH229638   0.548   6.066   2.687  0.4820 -0.5028  0.3604
 2716TIP3    H129639   0.605   6.141   2.669  1.7570 -1.6671 -0.6841
 2716TIP3    H229640   0.471   6.082   2.633  0.9179 -0.1457 -0.1726
 2717TIP3   OH229641   4.646   4.421  16.712  0.1194  0.1234  0.1884
 2717TIP3    H129642   4.661   4.509  16.745  1.5264  2.1317 -4.8980
 2717TIP3    H229643   4.559   4.424  16.672  0.9522 -0.0052 -1.7720
 2718TIP3   OH229644   1.977   4.200  15.699 -0.1956 -1.2551  0.3761
 2718TIP3    H129645   1.919   4.198  15.775 -0.2795 -1.8455  0.3055
 2718TIP3    H229646   1.934   4.260  15.638  1.2147  1.3432  1.8113
 2719TIP3   OH229647   3.155   6.034   5.106 -0.1692 -0.4010 -0.6304
 2719TIP3    H129648   3.204   6.055   5.027 -1.0805 -1.8573 -1.6222
 2719TIP3    H229649   3.171   5.941   5.121  0.7270  0.0097  1.4691
 2720TIP3   OH229650   4.537   6.554  11.542  0.4157 -0.0290  0.8231
 2720TIP3    H129651   4.458   6.568  11.491  1.5874 -0.3505 -1.1615
 2720TIP3    H229652   4.557   6.639  11.581  0.2389  0.5691 -0.3769
 2721TIP3   OH229653   0.187   4.322  12.927 -0.5587 -0.2244  0.2472
 2721TIP3    H129654   0.204   4.259  12.857  3.0589  0.7450  0.0480
 2721TIP3    H229655   0.232   4.284  13.004 -1.2041  0.5493  1.0257
 2722TIP3   OH229656   0.132   2.564   5.902  0.2162  0.2744  0.6065
 2722TIP3    H129657   0.069   2.607   5.961 -1.7661  0.2884 -1.3803
 2722TIP3    H229658   0.206   2.624   5.899 -0.5076  1.2580  1.4934
 2723TIP3   OH229659   3.096   1.858  12.570  0.3796  0.1201  0.0425
 2723TIP3    H129660   3.068   1.781  12.618 -0.9643  0.4512 -0.1655
 2723TIP3    H229661   3.178   1.832  12.528 -0.1956 -1.2956 -0.2652
 2724TIP3   OH229662   6.326   5.003  17.034 -0.1140 -0.1197 -0.1464
 2724TIP3    H129663   6.306   5.067  17.102  1.6708 -0.2099  0.5393
 2724TIP3    H229664   6.300   4.919  17.071  1.1278 -0.2046  0.6041
 2725TIP3   OH229665   1.298   1.431  11.940 -0.1247  0.7146  0.4709
 2725TIP3    H129666   1.382   1.476  11.951  0.5574 -0.4672  0.2789
 2725TIP3    H229667   1.232   1.499  11.955  0.8609  1.6239  0.8091
 2726TIP3   OH229668   5.815   4.149  11.317  0.0203  0.5056  0.6296
 2726TIP3    H129669   5.894   4.169  11.266 -0.0576  2.1136  1.0955
 2726TIP3    H229670   5.829   4.059  11.348  1.7262  0.7994  0.8174
 2727TIP3   OH229671   0.985   4.525  15.733  0.4719 -0.2037  0.2907
 2727TIP3    H129672   1.067   4.571  15.746 -0.2571  1.1238  0.3795
 2727TIP3    H229673   0.969   4.530  15.639 -0.3015  1.0062  0.4656
 2728TIP3   OH229674   3.287   0.447   2.200  0.3622 -0.1390 -0.1144
 2728TIP3    H129675   3.369   0.459   2.153 -0.3243  1.4145 -0.9971
 2728TIP3    H229676   3.297   0.499   2.280  0.8025 -1.2251  0.5613
 2729TIP3   OH229677   2.822   0.470   5.384  0.8953 -0.5211 -0.2089
 2729TIP3    H129678   2.886   0.400   5.376  0.0660 -1.1196 -2.0826
 2729TIP3    H229679   2.868   0.538   5.434  2.3064 -1.6822  0.1514
 2730TIP3   OH229680   6.141   1.486   0.008 -0.2371 -0.4960 -0.4347
 2730TIP3    H129681   6.045   1.492   0.014 -0.1072  1.0779  0.4969
 2730TIP3    H229682   6.164   1.537  -0.069  0.0220  1.8104  1.0608
 2731TIP3   OH229683   6.119   0.239   4.269 -0.3133  0.2785  0.0877
 2731TIP3    H129684   6.199   0.275   4.231 -1.1242  0.5431 -1.4573
 2731TIP3    H229685   6.149   0.167   4.325  0.9301 -0.6809 -1.7180
 2732TIP3   OH229686   3.162   2.128  13.298 -0.7680 -0.0140  0.6522
 2732TIP3    H129687   3.081   2.135  13.248 -0.6031  0.1921  0.4106
 2732TIP3    H229688   3.229   2.109  13.233 -0.5358  0.3531  0.7804
 2733TIP3   OH229689   3.620   6.168  12.059 -0.0569 -0.2855 -0.1520
 2733TIP3    H129690   3.632   6.257  12.025 -1.4632  0.0198  0.0672
 2733TIP3    H229691   3.562   6.126  11.995  1.7450 -1.5563 -1.0326
 2734TIP3   OH229692   6.426   2.095   4.178 -0.5067  0.4382 -0.4266
 2734TIP3    H129693   6.487   2.168   4.180 -0.6671  0.6685  3.3550
 2734TIP3    H229694   6.454   2.038   4.250 -2.9537 -0.9621 -0.4552
 2735TIP3   OH229695   2.780   3.329   5.163  0.0520  0.2224 -0.0996
 2735TIP3    H129696   2.809   3.238   5.156 -0.6601 -0.3536  2.9277
 2735TIP3    H229697   2.844   3.369   5.223 -1.2583  0.8770  0.8967
 2736TIP3   OH229698   1.275   4.861   1.003  0.6327 -0.8283 -0.5277
 2736TIP3    H129699   1.262   4.955   0.990  0.3457 -0.9547 -1.2173
 2736TIP3    H229700   1.253   4.846   1.095  0.1393 -0.3162 -0.5572
 2737TIP3   OH229701   4.331   1.305  13.494 -0.3137  0.6929 -0.5391
 2737TIP3    H129702   4.263   1.333  13.432  1.1042  2.8738 -1.2262
 2737TIP3    H229703   4.402   1.272  13.439 -0.3681 -0.5946  0.1245
 2738TIP3   OH229704   5.075   5.736  16.864 -0.5575 -0.6819  0.1433
 2738TIP3    H129705   4.998   5.681  16.877 -0.3860 -1.3070 -1.3153
 2738TIP3    H229706   5.054   5.789  16.788 -0.8452  1.5586  1.6813
 2739TIP3   OH229707   4.787   4.181   6.164  0.3248 -0.0841  0.3882
 2739TIP3    H129708   4.826   4.208   6.247 -2.0810  2.1474  0.9346
 2739TIP3    H229709   4.723   4.114   6.187 -0.0434  0.2298  0.2947
 2740TIP3   OH229710   1.616   0.969   6.124  0.4028  0.1680  0.3434
 2740TIP3    H129711   1.620   1.045   6.182 -0.9106  0.6671 -0.1604
 2740TIP3    H229712   1.707   0.945   6.108  0.8007  0.0848  2.4954
 2741TIP3   OH229713   5.058   5.766   2.843 -0.2918 -0.3831 -0.4276
 2741TIP3    H129714   5.115   5.835   2.808  1.4821  0.4595  3.6163
 2741TIP3    H229715   4.981   5.813   2.874  0.4712 -0.2812  1.4111
 2742TIP3   OH229716   3.621   5.602  14.547 -0.4185  0.9341 -0.1467
 2742TIP3    H129717   3.615   5.609  14.642  1.4241  0.8509  0.0262
 2742TIP3    H229718   3.701   5.551  14.533 -0.9036  0.5811 -1.7355
 2743TIP3   OH229719   3.296   0.933  13.548  0.1188  0.0106 -0.3300
 2743TIP3    H129720   3.304   0.912  13.455  1.1424 -0.4329 -0.1587
 2743TIP3    H229721   3.385   0.953  13.576 -0.0457 -0.6115  0.7183
 2744TIP3   OH229722   1.492   4.244   0.059 -0.0545  0.6457 -0.1445
 2744TIP3    H129723   1.561   4.179   0.047 -1.2647 -0.3952 -2.0731
 2744TIP3    H229724   1.523   4.322   0.014 -0.1344  0.1614 -1.0563
 2745TIP3   OH229725   2.861   3.059   3.936 -0.2903 -0.6983  0.2883
 2745TIP3    H129726   2.894   3.008   3.862  2.5724 -1.1954  1.7576
 2745TIP3    H229727   2.807   2.997   3.985 -0.1989 -1.0922 -0.1019
 2746TIP3   OH229728   5.521   2.203  16.450 -0.3430  0.7436  0.8242
 2746TIP3    H129729   5.586   2.265  16.418 -0.2220  0.0244 -0.3861
 2746TIP3    H229730   5.439   2.252  16.450 -0.1033  1.1465  0.6993
 2747TIP3   OH229731   3.701   0.772   4.716 -0.1161 -0.3134  0.3992
 2747TIP3    H129732   3.783   0.816   4.740 -0.3849 -0.3058  1.3506
 2747TIP3    H229733   3.651   0.769   4.798 -0.2207 -2.1376  0.3168
 2748TIP3   OH229734   6.447   1.357   1.756 -0.3586 -0.0427 -0.4491
 2748TIP3    H129735   6.359   1.328   1.732  0.5611 -1.4761 -2.4387
 2748TIP3    H229736   6.456   1.444   1.715 -0.7674 -0.0011 -0.4491
 2749TIP3   OH229737   1.273   2.397   5.546 -0.5477 -0.8531 -0.1696
 2749TIP3    H129738   1.351   2.411   5.493 -0.3338  0.3975  0.4238
 2749TIP3    H229739   1.244   2.486   5.569 -2.4652 -1.2591 -0.8313
 2750TIP3   OH229740   0.827   1.815  14.297 -0.2916 -0.2993 -0.2947
 2750TIP3    H129741   0.843   1.843  14.387 -0.0920  0.4478 -0.5553
 2750TIP3    H229742   0.733   1.831  14.284 -0.6639 -1.8617  0.2668
 2751TIP3   OH229743   5.284   6.433   5.256 -0.2483 -0.3399  0.0295
 2751TIP3    H129744   5.262   6.509   5.310 -0.0212 -1.1688  1.3579
 2751TIP3    H229745   5.206   6.377   5.261  0.1282 -0.8519  0.3035
 2752TIP3   OH229746   2.096   1.559  10.708 -0.0964  0.4787 -0.0714
 2752TIP3    H129747   2.042   1.561  10.629  0.4884 -1.9978 -0.6075
 2752TIP3    H229748   2.186   1.565  10.676  0.1011  1.0923  0.5574
 2753TIP3   OH229749   2.692   6.615  14.871 -0.2388  0.0548  0.3743
 2753TIP3    H129750   2.607   6.612  14.825  0.0660  0.8006 -0.2580
 2753TIP3    H229751   2.756   6.597  14.803  0.1429 -0.1496  0.7843
 2754TIP3   OH229752   6.653   5.004  15.212 -0.6153 -0.1023 -0.2541
 2754TIP3    H129753   6.634   5.084  15.162 -0.6336  0.0113 -0.0672
 2754TIP3    H229754   6.654   5.033  15.304  1.2918  0.0680 -0.2874
 2755TIP3   OH229755   1.296   6.482   2.070 -1.0979 -0.4242  0.1582
 2755TIP3    H129756   1.338   6.451   2.150 -0.2494 -1.2888 -0.5939
 2755TIP3    H229757   1.295   6.577   2.079 -0.1476 -0.4568  0.7822
 2756TIP3   OH229758   5.638   0.009  16.853  0.2695  0.0673 -0.0459
 2756TIP3    H129759   5.558  -0.013  16.902 -1.2830  0.2409 -2.3053
 2756TIP3    H229760   5.634  -0.047  16.775  1.0028  1.8377 -1.4469
 2757TIP3   OH229761   1.945   2.666   1.516 -0.2331  0.2173  0.2623
 2757TIP3    H129762   2.009   2.698   1.452 -0.5356 -0.5985 -0.4731
 2757TIP3    H229763   1.895   2.600   1.468 -1.2661  0.4481  0.9876
 2758TIP3   OH229764   5.568   3.465   5.209 -0.7091 -0.1164 -0.0710
 2758TIP3    H129765   5.545   3.518   5.285  0.8690 -1.1866  1.2223
 2758TIP3    H229766   5.639   3.409   5.240  1.5825  0.9747 -2.9536
 2759TIP3   OH229767   0.726   3.075   6.365 -0.6721  0.6928 -0.3871
 2759TIP3    H129768   0.801   3.133   6.352 -2.1030  2.9445  0.8341
 2759TIP3    H229769   0.668   3.123   6.424 -1.8669 -2.1057  0.9165
 2760TIP3   OH229770   1.336   5.941  15.646  0.3701  0.0601 -0.5340
 2760TIP3    H129771   1.386   6.020  15.667  0.3090 -0.1393  0.3802
 2760TIP3    H229772   1.390   5.869  15.678 -0.2653 -0.1834  0.0157
 2761TIP3   OH229773   5.417   0.415  10.285 -0.0295 -0.1721  0.6100
 2761TIP3    H129774   5.498   0.368  10.268 -0.2589  0.0156 -1.1399
 2761TIP3    H229775   5.348   0.357  10.254 -0.3327  1.1201 -1.3407
 2762TIP3   OH229776   2.702   3.786  11.195 -0.2959 -0.0992 -0.6338
 2762TIP3    H129777   2.613   3.771  11.164 -0.6532  0.4834  0.1004
 2762TIP3    H229778   2.718   3.715  11.257  0.7380 -1.7985 -2.6956
 2763TIP3   OH229779   3.346   5.646  11.560  0.4498 -0.3287 -0.2944
 2763TIP3    H129780   3.439   5.649  11.538  0.6415 -0.7409  0.4452
 2763TIP3    H229781   3.314   5.734  11.541  1.4566  0.4616  1.4291
 2764TIP3   OH229782   3.525   5.306  16.875  0.7308 -0.0494 -0.4558
 2764TIP3    H129783   3.555   5.229  16.826 -1.6832 -0.3628 -1.5981
 2764TIP3    H229784   3.470   5.270  16.944  0.4847  0.6060 -0.3112
 2765TIP3   OH229785   3.031   3.047  15.754 -0.3428 -0.1291 -0.4417
 2765TIP3    H129786   3.097   3.037  15.823 -0.0811 -1.3796 -0.8417
 2765TIP3    H229787   2.957   3.090  15.797 -0.1090 -0.7248  0.5707
 2766TIP3   OH229788   5.253   4.178  12.501  0.2597  0.0671 -0.0658
 2766TIP3    H129789   5.270   4.149  12.591  3.0329  1.3979 -0.0683
 2766TIP3    H229790   5.318   4.246  12.485 -2.3275  2.2865 -1.9747
 2767TIP3   OH229791   1.863   3.507  13.052 -0.0410 -0.1341  0.2790
 2767TIP3    H129792   1.941   3.468  13.092  0.7648  2.5920  1.6809
 2767TIP3    H229793   1.795   3.498  13.119  0.6176  2.1666  1.3751
 2768TIP3   OH229794   3.051   2.263   3.751 -0.5151 -0.0362 -0.1427
 2768TIP3    H129795   3.102   2.257   3.671  0.8710 -2.0284  0.8020
 2768TIP3    H229796   2.992   2.188   3.748 -0.7377  0.1034  0.4942
 2769TIP3   OH229797   5.709   4.831  11.601 -0.3820 -0.1534 -0.5103
 2769TIP3    H129798   5.799   4.862  11.586  0.3110 -1.4115  0.7684
 2769TIP3    H229799   5.680   4.799  11.516  1.2799 -1.8817 -0.4874
 2770TIP3   OH229800   0.835   5.774  16.074  0.6528 -0.4360  0.1108
 2770TIP3    H129801   0.829   5.763  16.169  0.7649 -1.5253  0.0089
 2770TIP3    H229802   0.918   5.733  16.051  0.3515 -0.7024 -0.5276
 2771TIP3   OH229803   0.318   0.176   4.270 -0.6794  0.1119  0.0613
 2771TIP3    H129804   0.405   0.215   4.259  0.0715 -1.7559 -1.0485
 2771TIP3    H229805   0.336   0.089   4.305 -2.1988  0.1288  0.9267
 2772TIP3   OH229806   6.598   5.164   0.056  0.4171  0.4194 -0.2567
 2772TIP3    H129807   6.647   5.122   0.127  0.7986  2.1895  0.5889
 2772TIP3    H229808   6.629   5.255   0.057 -1.5159  1.1246 -0.9689
 2773TIP3   OH229809   1.840   4.018   4.235 -0.9320 -0.0979  0.2347
 2773TIP3    H129810   1.883   3.956   4.175 -0.9554  0.1369 -0.0276
 2773TIP3    H229811   1.821   3.966   4.313 -0.0927 -0.1915  0.3899
 2774TIP3   OH229812   0.976   4.535  15.219  0.1774  0.5037  0.6866
 2774TIP3    H129813   1.042   4.509  15.155  0.4917 -1.3765  1.6956
 2774TIP3    H229814   0.922   4.599  15.173 -0.0531 -1.2784 -1.7293
 2775TIP3   OH229815   6.722   1.028   3.624  0.5406 -0.2705  0.3471
 2775TIP3    H129816   6.783   0.981   3.566  0.2730 -2.1022  1.4653
 2775TIP3    H229817   6.643   0.974   3.623  1.0155 -1.1959  3.4798
 2776TIP3   OH229818   6.041   0.472   1.371 -0.4397 -0.0127  0.6313
 2776TIP3    H129819   5.961   0.495   1.323  2.1255 -1.1383 -4.9898
 2776TIP3    H229820   6.055   0.379   1.350  1.6337 -0.2646  2.7468
 2777TIP3   OH229821   2.083   1.172   2.824  0.3439  0.4990 -0.0579
 2777TIP3    H129822   2.108   1.183   2.733  0.2312  1.0055 -0.0346
 2777TIP3    H229823   2.096   1.259   2.863 -0.8379  0.6238  0.0966
 2778TIP3   OH229824   5.890   5.625   3.339 -0.0798  0.2032  0.2764
 2778TIP3    H129825   5.839   5.560   3.291  0.3268 -0.2550  0.4577
 2778TIP3    H229826   5.912   5.691   3.273  0.1356 -0.2214 -0.0835
 2779TIP3   OH229827   3.569   6.699  16.496 -0.0429  0.3924  0.0194
 2779TIP3    H129828   3.627   6.728  16.427 -1.3130  0.5087 -1.0293
 2779TIP3    H229829   3.542   6.779  16.541  0.5791  0.3378  0.5088
 2780TIP3   OH229830   3.893   3.341  16.625  0.0162 -0.4730  0.2624
 2780TIP3    H129831   3.943   3.298  16.695 -0.4817  0.1286  0.9984
 2780TIP3    H229832   3.925   3.431  16.624 -0.1131 -0.4274 -0.1684
 2781TIP3   OH229833   4.202   1.755  13.001  0.0114  0.4728  0.0423
 2781TIP3    H129834   4.216   1.661  13.011  1.2323  0.5923 -0.3901
 2781TIP3    H229835   4.254   1.779  12.925  0.2295  1.6115  0.5321
 2782TIP3   OH229836   2.247   6.591   1.208 -0.2240 -0.8801  0.0326
 2782TIP3    H129837   2.266   6.665   1.265 -0.8135  0.1714 -1.0754
 2782TIP3    H229838   2.332   6.551   1.192  0.2174  0.0271  0.0478
 2783TIP3   OH229839   6.846   0.265  11.473 -0.4555  0.1891 -0.2355
 2783TIP3    H129840   6.837   0.360  11.482  1.8770  0.4950 -0.4723
 2783TIP3    H229841   6.884   0.236  11.556  0.2639 -0.2755 -0.7070
 2784TIP3   OH229842   4.739   4.526   4.696  0.3456  0.1818 -0.1556
 2784TIP3    H129843   4.729   4.620   4.704  0.3949  0.0720  1.8281
 2784TIP3    H229844   4.788   4.513   4.615 -0.5466  1.7689 -0.9909
 2785TIP3   OH229845   1.929   2.324   5.521  0.0749  0.3121  0.0106
 2785TIP3    H129846   2.018   2.348   5.497  0.0908  0.1824 -0.0613
 2785TIP3    H229847   1.934   2.304   5.614 -0.0990  1.3495  0.2463
 2786TIP3   OH229848   0.819   1.099   5.744 -0.0546  0.2061  0.5809
 2786TIP3    H129849   0.732   1.090   5.705  0.5550  0.3338 -0.8538
 2786TIP3    H229850   0.872   1.032   5.702  0.5623  0.1477  1.4242
 2787TIP3   OH229851   0.882   4.108  11.378 -0.4566 -0.0477  0.0620
 2787TIP3    H129852   0.834   4.134  11.300 -0.9482 -0.8413  0.0958
 2787TIP3    H229853   0.846   4.023  11.402  0.0716 -0.0668  0.8351
 2788TIP3   OH229854   5.832   3.032   2.069 -0.2816 -0.0952 -0.2521
 2788TIP3    H129855   5.748   3.078   2.068 -0.3563 -0.2099  0.4618
 2788TIP3    H229856   5.818   2.956   2.013 -1.8693 -2.2009  2.7575
 2789TIP3   OH229857   3.126   5.271  14.016 -0.5167  0.9394 -0.0773
 2789TIP3    H129858   3.066   5.315  13.955 -0.5457 -0.2476 -0.9312
 2789TIP3    H229859   3.213   5.294  13.983 -0.5224  0.9284 -0.1001
 2790TIP3   OH229860   4.336   2.366  13.006 -0.0039  0.8852 -0.2488
 2790TIP3    H129861   4.384   2.391  13.085  1.5443  1.5240 -1.3396
 2790TIP3    H229862   4.355   2.435  12.943 -2.3224  1.1080 -0.7968
 2791TIP3   OH229863   0.999   0.926  12.794 -0.2673 -0.3694 -0.2340
 2791TIP3    H129864   0.945   0.874  12.735 -0.0370 -0.3222 -0.4898
 2791TIP3    H229865   0.978   0.894  12.881 -0.7167 -0.3403 -0.3316
 2792TIP3   OH229866   4.374   3.205   1.817 -0.8393  0.2893 -0.3600
 2792TIP3    H129867   4.416   3.154   1.747  0.2618  0.6970 -0.0196
 2792TIP3    H229868   4.366   3.293   1.781  1.8071  1.1020  0.7274
 2793TIP3   OH229869   6.399   0.915  16.835  0.1749 -0.1417  0.2469
 2793TIP3    H129870   6.438   0.900  16.921 -0.8895 -0.6197  0.6555
 2793TIP3    H229871   6.371   0.828  16.806  1.2799 -0.1248 -0.9719
 2794TIP3   OH229872   2.432   3.989   3.502  0.0283  0.1880  0.1983
 2794TIP3    H129873   2.412   4.012   3.411  0.3116  1.3194  0.4177
 2794TIP3    H229874   2.373   4.043   3.554  0.6900  0.4122  0.7230
 2795TIP3   OH229875   1.976   4.365   3.594  0.7124  0.3354 -0.3398
 2795TIP3    H129876   1.953   4.314   3.671 -1.6430 -1.6378 -2.1711
 2795TIP3    H229877   1.973   4.456   3.622 -0.3998 -0.3117  1.7943
 2796TIP3   OH229878   5.361   1.700   1.047  0.8155 -0.1619 -0.3217
 2796TIP3    H129879   5.406   1.677   0.965  0.8138  0.8730 -0.6193
 2796TIP3    H229880   5.303   1.626   1.064  1.3108 -0.6923 -0.8983
 2797TIP3   OH229881   2.179   3.827  15.184 -0.3407  0.2388 -0.2032
 2797TIP3    H129882   2.144   3.788  15.265 -2.4995  1.6002 -0.4010
 2797TIP3    H229883   2.101   3.855  15.136  0.9656  0.7740 -2.0981
 2798TIP3   OH229884   4.661   2.361   0.508  0.3635 -0.5224  0.7211
 2798TIP3    H129885   4.704   2.303   0.444  1.1293  1.8502 -1.0474
 2798TIP3    H229886   4.589   2.401   0.460  0.1293  0.3285  1.7545
 2799TIP3   OH229887   1.742   6.666  10.489  0.7085 -0.1467  0.5115
 2799TIP3    H129888   1.746   6.574  10.516 -0.1154  0.2895  2.3026
 2799TIP3    H229889   1.696   6.710  10.561  2.0569  1.8691  0.2421
 2800TIP3   OH229890   1.722   2.839  13.257 -0.1467 -0.3761 -0.5200
 2800TIP3    H129891   1.640   2.790  13.258 -0.6658  0.4745  0.6635
 2800TIP3    H229892   1.781   2.789  13.313 -1.1334  1.0237  1.9039
 2801TIP3   OH229893   2.428   6.467  11.765 -0.1609 -0.6543 -0.2879
 2801TIP3    H129894   2.387   6.383  11.785 -3.3658  0.7919 -0.1756
 2801TIP3    H229895   2.437   6.468  11.670 -1.7850 -0.4781 -0.4639
 2802TIP3   OH229896   4.641   0.632  12.459 -0.1443 -0.1419  0.2433
 2802TIP3    H129897   4.593   0.549  12.463 -1.3963  0.3554 -2.0468
 2802TIP3    H229898   4.589   0.692  12.513 -1.3299 -0.0089 -0.9663
 2803TIP3   OH229899   1.238   1.643  14.020 -0.0720 -0.1862  0.5890
 2803TIP3    H129900   1.208   1.600  14.100  1.1391  0.1104  1.2144
 2803TIP3    H229901   1.333   1.643  14.026  0.0554 -0.4950 -1.0371
 2804TIP3   OH229902   5.382   5.549  11.860  0.0136 -0.5136  0.1501
 2804TIP3    H129903   5.396   5.601  11.939  1.8476  0.7584 -0.9424
 2804TIP3    H229904   5.438   5.589  11.794  0.4947 -3.0727 -1.1374
 2805TIP3   OH229905   3.020   0.533  16.826  0.2192  0.1250 -0.0688
 2805TIP3    H129906   3.000   0.486  16.906 -0.3074 -0.8686 -0.7681
 2805TIP3    H229907   3.100   0.491  16.793 -1.1581 -1.4592 -1.5615
 2806TIP3   OH229908   6.412   2.507  11.333  0.1444 -0.3655  0.0293
 2806TIP3    H129909   6.327   2.552  11.329 -0.2606 -1.1779 -0.8077
 2806TIP3    H229910   6.413   2.468  11.420  0.2932  0.8312  0.5897
 2807TIP3   OH229911   2.283   0.398  14.128  0.5401 -0.3404  0.1108
 2807TIP3    H129912   2.345   0.335  14.163 -0.9754 -2.3139 -0.6011
 2807TIP3    H229913   2.279   0.380  14.034 -0.4330  0.3474 -0.0058
 2808TIP3   OH229914   6.012   5.458  15.709 -0.0279 -0.3697 -0.1067
 2808TIP3    H129915   6.016   5.411  15.792  0.1114  1.0675  0.7300
 2808TIP3    H229916   5.938   5.418  15.663 -0.5409 -0.7446  0.9999
 2809TIP3   OH229917   6.213   0.319  14.407 -0.4508  0.3495  0.0264
 2809TIP3    H129918   6.269   0.283  14.338 -0.6735  0.5773 -0.2752
 2809TIP3    H229919   6.267   0.314  14.486 -0.3165 -0.2253 -0.0961
 2810TIP3   OH229920   1.270   2.482  14.451 -0.1901 -0.4225  0.6113
 2810TIP3    H129921   1.275   2.578  14.443 -0.4580 -0.4057  0.6624
 2810TIP3    H229922   1.339   2.460  14.514 -0.5998 -0.1928  1.1490
 2811TIP3   OH229923   2.434   2.198  16.248  0.1031 -0.4973 -0.3737
 2811TIP3    H129924   2.366   2.221  16.184  1.1131  0.8010 -1.0332
 2811TIP3    H229925   2.412   2.109  16.276 -0.4400 -1.0792 -2.4722
 2812TIP3   OH229926   3.518   1.822  14.138 -0.0582  0.3519 -0.3597
 2812TIP3    H129927   3.513   1.742  14.189 -2.6619 -0.0687 -1.1287
 2812TIP3    H229928   3.611   1.831  14.116  0.6050 -1.2907  1.4619
 2813TIP3   OH229929   0.395   4.106   2.486  0.1291 -0.0325 -0.9550
 2813TIP3    H129930   0.355   4.020   2.499  1.7613 -0.8126 -0.8286
 2813TIP3    H229931   0.321   4.164   2.469 -1.0641 -1.3345 -0.4404
 2814TIP3   OH229932   3.684   0.445   2.530 -0.1026  0.8032 -0.0740
 2814TIP3    H129933   3.589   0.455   2.539 -0.2900  0.9087 -1.7905
 2814TIP3    H229934   3.714   0.414   2.615 -2.0276 -1.8414 -0.2360
 2815TIP3   OH229935   5.055   3.096  14.308 -0.1323  0.4802  0.8770
 2815TIP3    H129936   5.113   3.121  14.380  0.1458  2.2344  0.1025
 2815TIP3    H229937   4.995   3.032  14.347  1.3238 -0.2135  2.1011
 2816TIP3   OH229938   0.912   2.783   1.652  0.2150 -0.2741  0.4799
 2816TIP3    H129939   0.871   2.823   1.575 -0.8552 -0.6264  0.8599
 2816TIP3    H229940   0.953   2.704   1.618 -0.1907 -0.3896  0.2543
 2817TIP3   OH229941   1.303   6.594   0.620 -0.2214  0.8652 -0.4660
 2817TIP3    H129942   1.378   6.639   0.580 -0.4977  1.8266  0.0531
 2817TIP3    H229943   1.342   6.535   0.684  0.1743 -0.0194 -1.4916
 2818TIP3   OH229944   5.620   0.873  10.924  0.4243  0.3592 -0.1857
 2818TIP3    H129945   5.585   0.960  10.905 -0.2013  0.2969  0.6180
 2818TIP3    H229946   5.631   0.832  10.838  0.2061  1.0313 -0.5423
 2819TIP3   OH229947   3.863   5.525  14.424  0.1568 -0.1728 -0.4012
 2819TIP3    H129948   3.942   5.495  14.469  0.1348 -2.1681 -1.5801
 2819TIP3    H229949   3.884   5.516  14.331 -0.6883  1.4315 -0.7727
 2820TIP3   OH229950   2.849   1.533   5.202  0.2229  0.3872 -0.6506
 2820TIP3    H129951   2.927   1.482   5.179  0.2328  1.2337 -2.6863
 2820TIP3    H229952   2.798   1.537   5.121 -1.5070  0.6277  0.4025
 2821TIP3   OH229953   1.678   1.641   5.152 -0.1850 -0.2111  0.0474
 2821TIP3    H129954   1.602   1.596   5.117 -0.2609 -0.3981  0.4556
 2821TIP3    H229955   1.721   1.678   5.075  0.4593 -1.8528 -0.4282
 2822TIP3   OH229956   1.929   2.260   6.064 -0.0681 -0.6683  0.4584
 2822TIP3    H129957   1.842   2.287   6.095 -0.2672  0.3519 -0.9108
 2822TIP3    H229958   1.990   2.317   6.110 -0.2135 -0.5536  0.5118
 2823TIP3   OH229959   1.540   3.959   2.936 -0.2454  0.7665  0.3042
 2823TIP3    H129960   1.561   3.981   3.026  0.5287 -0.8457  0.5494
 2823TIP3    H229961   1.623   3.965   2.889 -1.0685  4.3679 -0.9932
 2824TIP3   OH229962   0.355   2.138   1.500  0.7936  0.4255 -0.1003
 2824TIP3    H129963   0.381   2.222   1.539  0.5779  1.2965 -1.7001
 2824TIP3    H229964   0.435   2.086   1.500  1.0897  0.8668  0.3596
 2825TIP3   OH229965   1.741   5.432   1.999 -0.0482 -0.6292 -0.0294
 2825TIP3    H129966   1.786   5.397   1.922 -1.9838 -1.4578 -0.8290
 2825TIP3    H229967   1.723   5.355   2.053 -0.8532 -0.3580  0.0967
 2826TIP3   OH229968   1.116   6.840   1.459 -0.3383  0.9870 -0.5582
 2826TIP3    H129969   1.129   6.884   1.375 -0.0152  0.0384 -1.0285
 2826TIP3    H229970   1.022   6.844   1.474 -1.0064 -2.0799 -2.8743
 2827TIP3   OH229971   2.926   5.874   3.360  0.6519  0.0816  0.8773
 2827TIP3    H129972   2.880   5.946   3.403 -0.5680 -0.9110  1.2890
 2827TIP3    H229973   2.927   5.804   3.425  2.8173  0.0735  0.9023
 2828TIP3   OH229974   6.037   2.187   5.832 -0.2801 -0.1172  0.5670
 2828TIP3    H129975   6.067   2.231   5.753 -0.8340 -2.3791 -1.0151
 2828TIP3    H229976   6.112   2.190   5.891  0.5359  0.6838 -0.4648
 2829TIP3   OH229977   1.008   5.580   2.080 -0.0445  0.2544  0.2164
 2829TIP3    H129978   0.926   5.571   2.031  0.2327 -1.7392  0.0265
 2829TIP3    H229979   1.001   5.664   2.124 -1.8143  0.5152 -0.4841
 2830TIP3   OH229980   6.021   5.745  15.903  0.0501  0.4095  0.6885
 2830TIP3    H129981   5.950   5.797  15.865  0.3048  0.9126  0.8922
 2830TIP3    H229982   5.981   5.659  15.920 -0.0936  0.2007 -0.6160
 2831TIP3   OH229983   0.585   1.112  16.586 -0.5189  0.1371  0.3460
 2831TIP3    H129984   0.537   1.175  16.532 -0.6074  0.0438  0.3150
 2831TIP3    H229985   0.677   1.137  16.578 -0.5410  0.1778  0.2243
 2832TIP3   OH229986   3.538   4.133   2.907 -0.0176 -0.0778 -0.1573
 2832TIP3    H129987   3.563   4.117   2.816  0.2683  0.0311 -0.1012
 2832TIP3    H229988   3.617   4.114   2.957 -0.1599 -0.0926  0.0644
 2833TIP3   OH229989   3.616   0.400  15.251  0.3353  0.2787  0.2779
 2833TIP3    H129990   3.654   0.336  15.310  2.5799  2.2642  1.1279
 2833TIP3    H229991   3.688   0.428  15.195 -0.8159  1.3186 -0.7671
 2834TIP3   OH229992   3.142   1.543  12.579 -0.4834 -0.6549 -0.3708
 2834TIP3    H129993   3.078   1.486  12.623 -1.3724  0.6934  0.1438
 2834TIP3    H229994   3.226   1.521  12.620 -0.9516 -1.0005  0.4181
 2835TIP3   OH229995   1.890   3.004  12.108  0.5280 -1.1238 -0.4061
 2835TIP3    H129996   1.873   2.911  12.096 -1.4234 -0.9561  0.6396
 2835TIP3    H229997   1.885   3.018  12.202 -0.2241  0.1829 -0.6116
 2836TIP3   OH229998   1.695   6.388  12.658  0.2284  0.1472  0.2926
 2836TIP3    H129999   1.622   6.344  12.614  1.1329 -0.7019 -0.3903
 2836TIP3    H230000   1.757   6.318  12.678  0.3686  0.7011  1.8652
 2837TIP3   OH230001   4.393   3.766   5.680  0.0591  0.0821  0.0525
 2837TIP3    H130002   4.411   3.824   5.754 -0.7139 -0.5497  0.7698
 2837TIP3    H230003   4.414   3.817   5.602 -0.6177  1.3270  0.6572
 2838TIP3   OH230004   0.251   6.272  16.057 -0.2061  0.0393 -0.2153
 2838TIP3    H130005   0.198   6.235  15.986  0.9470  1.4170 -1.8877
 2838TIP3    H230006   0.318   6.324  16.012 -0.2467  2.1095  1.9120
 2839TIP3   OH230007   1.340   6.384  12.851 -0.5347  0.4828 -0.2252
 2839TIP3    H130008   1.407   6.354  12.912 -0.6034 -1.0790 -0.8775
 2839TIP3    H230009   1.378   6.366  12.764 -1.7685 -0.4028 -0.6070
 2840TIP3   OH230010   2.239   0.692  16.057 -0.4670 -0.2242  0.1180
 2840TIP3    H130011   2.181   0.636  16.108  3.0587 -1.1233  3.6281
 2840TIP3    H230012   2.262   0.640  15.980  1.0988 -2.9829  2.2626
 2841TIP3   OH230013   2.060   1.385   4.135  0.3551  0.0911  0.2581
 2841TIP3    H130014   2.071   1.297   4.172 -0.8541 -0.5815 -0.8996
 2841TIP3    H230015   1.978   1.417   4.174 -0.4984 -0.3001 -1.1724
 2842TIP3   OH230016   1.357   0.245   4.248  0.0236 -0.1184  0.3095
 2842TIP3    H130017   1.411   0.323   4.235  0.9801 -1.0312 -1.6691
 2842TIP3    H230018   1.380   0.213   4.335  1.0747  0.7267  0.3558
 2843TIP3   OH230019   3.361   2.004   4.675 -0.2091  0.4425 -0.4846
 2843TIP3    H130020   3.359   2.062   4.751 -0.3150 -0.2752  0.0720
 2843TIP3    H230021   3.410   2.053   4.609 -1.0532  1.5272 -0.3422
 2844TIP3   OH230022   3.268   6.489  12.085 -0.1214 -0.5798  0.9040
 2844TIP3    H130023   3.302   6.502  12.174  2.3318  1.9131 -0.2481
 2844TIP3    H230024   3.174   6.475  12.097  0.0051  0.4431  3.8312
 2845TIP3   OH230025   4.949   0.403   0.215  0.4118  0.7650  0.1862
 2845TIP3    H130026   5.018   0.404   0.282  0.2644  0.2869  0.3504
 2845TIP3    H230027   4.977   0.335   0.154 -1.1536 -1.2910  1.6115
 2846TIP3   OH230028   2.163   0.795   5.187 -0.0505  0.1470 -0.0836
 2846TIP3    H130029   2.136   0.865   5.246 -0.0733  1.8782 -2.0389
 2846TIP3    H230030   2.102   0.723   5.204 -2.1871  1.8336 -0.3467
 2847TIP3   OH230031   3.067   5.792  12.893  0.6130  0.4214  0.4859
 2847TIP3    H130032   3.024   5.719  12.850  1.8924 -0.3189  0.4344
 2847TIP3    H230033   3.007   5.866  12.879  1.0263  0.2794 -2.7022
 2848TIP3   OH230034   4.841   1.743  11.063  0.5002 -0.2251  0.7036
 2848TIP3    H130035   4.905   1.785  11.120  0.2459  0.6309  0.3712
 2848TIP3    H230036   4.826   1.806  10.993 -1.0019 -0.2355  0.9807
 2849TIP3   OH230037   2.006   1.583  13.864  0.5662 -0.0993  0.1091
 2849TIP3    H130038   2.085   1.622  13.900  0.7453 -0.9056  0.5884
 2849TIP3    H230039   1.936   1.644  13.889  1.0257  0.6630 -0.3939
 2850TIP3   OH230040   6.494   2.283   2.183  0.9115 -0.3698  0.3182
 2850TIP3    H130041   6.577   2.324   2.204 -0.3288  1.5515  1.8547
 2850TIP3    H230042   6.442   2.290   2.263 -0.3532 -2.6152 -0.1831
 2851TIP3   OH230043   6.242   3.513   5.753  0.0398 -0.1124  0.5917
 2851TIP3    H130044   6.154   3.475   5.757 -0.2173  0.5374  1.2607
 2851TIP3    H230045   6.294   3.458   5.812  0.5879 -1.7173 -1.2690
 2852TIP3   OH230046   5.137   1.019   1.754 -0.0377  0.3643 -0.2244
 2852TIP3    H130047   5.176   1.093   1.800 -1.0572  2.4224 -2.4356
 2852TIP3    H230048   5.197   0.946   1.771  0.1542  1.1707  3.3803
 2853TIP3   OH230049   0.601   1.813  12.144 -0.3523  0.1502  0.0517
 2853TIP3    H130050   0.603   1.826  12.049 -0.8895  1.8248  0.2309
 2853TIP3    H230051   0.521   1.763  12.160 -0.5630  0.3574 -0.3417
 2854TIP3   OH230052   3.585   3.417  14.658 -0.0795  0.7103 -0.3422
 2854TIP3    H130053   3.570   3.323  14.650  2.3359  0.3036 -0.8934
 2854TIP3    H230054   3.519   3.447  14.721  0.3714 -1.7046  1.4169
 2855TIP3   OH230055   1.869   2.322  16.264 -0.2678  0.7463 -0.0541
 2855TIP3    H130056   1.873   2.417  16.268  0.3541  0.7042  0.6318
 2855TIP3    H230057   1.806   2.303  16.195  0.2238  1.6504 -0.7718
 2856TIP3   OH230058   0.531   3.492   3.933 -0.4171 -0.5526 -0.6268
 2856TIP3    H130059   0.524   3.401   3.961 -2.1576 -0.3604 -0.2868
 2856TIP3    H230060   0.446   3.511   3.893 -0.3650  1.1182 -0.0175
 2857TIP3   OH230061   6.680   1.691  14.506 -0.0264 -0.4371 -0.8097
 2857TIP3    H130062   6.666   1.766  14.448 -0.9697  0.1816  0.1891
 2857TIP3    H230063   6.738   1.724  14.574 -1.5804 -0.1451  0.4320
 2858TIP3   OH230064   5.665   1.936  13.296  0.0510 -0.1916  0.5481
 2858TIP3    H130065   5.708   1.977  13.221  1.6359  1.0230  2.0244
 2858TIP3    H230066   5.677   1.842  13.283  2.3297  0.0606  0.3559
 2859TIP3   OH230067   0.539   5.378  13.849  0.0993  0.2147 -0.0296
 2859TIP3    H130068   0.550   5.473  13.857 -1.1057  0.3070  0.9301
 2859TIP3    H230069   0.446   5.367  13.827  0.5031 -0.6993 -1.3658
 2860TIP3   OH230070   6.091   1.376   4.088 -0.1100 -0.2548 -0.1240
 2860TIP3    H130071   6.078   1.293   4.043 -0.9918 -0.6664  0.8303
 2860TIP3    H230072   6.182   1.374   4.118  0.1723 -0.4213 -0.9803
 2861TIP3   OH230073   2.304   4.201   2.619  0.0583 -0.1754 -0.2893
 2861TIP3    H130074   2.299   4.116   2.662  1.6656 -0.6195 -0.9170
 2861TIP3    H230075   2.278   4.264   2.687  1.4577 -0.9489  1.0009
 2862TIP3   OH230076   5.078   3.854  10.711  0.4237  0.8717 -0.0619
 2862TIP3    H130077   4.994   3.807  10.715  0.6016  0.6093  0.6621
 2862TIP3    H230078   5.059   3.930  10.656 -0.4990  1.2242  0.7058
 2863TIP3   OH230079   5.863   5.605  13.744 -0.5297  0.7651 -0.0195
 2863TIP3    H130080   5.916   5.553  13.804 -1.8530 -1.2406 -0.4791
 2863TIP3    H230081   5.905   5.594  13.658 -1.0120  0.0885 -0.1831
 2864TIP3   OH230082   2.229   1.398  15.039 -0.1215 -0.3876 -0.4539
 2864TIP3    H130083   2.136   1.407  15.060 -0.2051  1.1724 -1.3552
 2864TIP3    H230084   2.230   1.343  14.961 -0.4736  1.0924 -1.5610
 2865TIP3   OH230085   2.121   0.014  13.865  0.3571 -0.0850 -0.4534
 2865TIP3    H130086   2.072  -0.013  13.788  1.8598 -2.1466 -0.7636
 2865TIP3    H230087   2.056   0.019  13.935 -0.4549 -1.7964 -1.0459
 2866TIP3   OH230088   5.410   1.390  12.513  0.1064 -0.2613  0.1040
 2866TIP3    H130089   5.334   1.387  12.571  0.9121 -0.2783  1.2106
 2866TIP3    H230090   5.398   1.470  12.462 -0.1156  0.3364  1.0610
 2867TIP3   OH230091   3.250   5.552  16.181 -0.3875  0.0821  0.0191
 2867TIP3    H130092   3.228   5.467  16.142 -0.4496  0.1535 -0.1019
 2867TIP3    H230093   3.321   5.532  16.241 -0.7117 -0.1364  0.3382
 2868TIP3   OH230094   4.212   1.147   4.557  0.3034 -0.1432  0.2262
 2868TIP3    H130095   4.169   1.063   4.574 -0.6060  0.6475  2.1671
 2868TIP3    H230096   4.209   1.193   4.641  2.3308  1.1584 -0.3418
 2869TIP3   OH230097   0.387   3.681  12.510  0.0826 -0.3215  0.1534
 2869TIP3    H130098   0.465   3.632  12.484  0.8378  2.0237 -2.4246
 2869TIP3    H230099   0.420   3.757  12.557 -0.9934 -1.3147  2.7280
 2870TIP3   OH230100   6.770   1.816  14.175 -0.7806 -0.4188  0.1064
 2870TIP3    H130101   6.799   1.794  14.086 -1.3947 -0.0741 -0.1852
 2870TIP3    H230102   6.847   1.856  14.216 -0.3523 -1.0049 -0.1119
 2871TIP3   OH230103   6.401   1.906  11.880  0.3286 -0.0127 -0.5110
 2871TIP3    H130104   6.345   1.955  11.940  0.6655 -0.4330  0.1606
 2871TIP3    H230105   6.479   1.961  11.870  0.7650 -0.4430  0.3485
 2872TIP3   OH230106   0.730   5.590   3.391 -0.2159  0.2437 -0.1954
 2872TIP3    H130107   0.745   5.513   3.446 -2.3912  2.0659  3.3853
 2872TIP3    H230108   0.652   5.568   3.340  1.5260 -1.2810 -2.3970
 2873TIP3   OH230109   4.046   0.088   3.437 -0.8846  0.1752  0.4215
 2873TIP3    H130110   4.109   0.118   3.371  2.1749 -1.5138  2.3251
 2873TIP3    H230111   4.093   0.095   3.520 -2.0835 -3.8275  1.6814
 2874TIP3   OH230112   1.246   3.273   2.193 -0.3903 -0.2868  0.0693
 2874TIP3    H130113   1.335   3.269   2.158  0.0109 -2.3170  1.1864
 2874TIP3    H230114   1.256   3.315   2.279 -0.3608 -1.1729  0.5150
 2875TIP3   OH230115   2.458   5.588   4.683 -0.5574 -0.2141 -0.0658
 2875TIP3    H130116   2.464   5.604   4.589  0.5385 -1.0826 -0.1663
 2875TIP3    H230117   2.365   5.596   4.703 -1.1651 -2.3304 -1.6682
 2876TIP3   OH230118   2.352   4.726   4.127  0.1316 -0.3033 -0.6677
 2876TIP3    H130119   2.356   4.672   4.048  0.1589  0.7196 -1.3863
 2876TIP3    H230120   2.431   4.703   4.176  0.7788 -0.0174 -1.5641
 2877TIP3   OH230121   1.434   6.378   4.145 -1.0062 -0.1433 -0.5657
 2877TIP3    H130122   1.441   6.473   4.156  1.5023 -0.3035 -0.1427
 2877TIP3    H230123   1.392   6.367   4.060  0.3897  1.4042 -1.5330
 2878TIP3   OH230124   0.853   1.035  12.252 -0.4754 -0.0791 -0.9557
 2878TIP3    H130125   0.931   1.090  12.259  1.7598 -2.9802 -0.8065
 2878TIP3    H230126   0.827   1.018  12.343  0.4875 -1.2822 -0.8695
 2879TIP3   OH230127   4.158   2.304  11.721 -0.4489 -0.4389 -0.2572
 2879TIP3    H130128   4.154   2.225  11.667 -0.5630 -0.7710  0.2283
 2879TIP3    H230129   4.080   2.354  11.696  0.3033  0.1564 -1.5081
 2880TIP3   OH230130   0.488   4.020  13.844 -0.0138  0.5947  0.1372
 2880TIP3    H130131   0.397   4.041  13.863  0.1486 -0.0819  1.8816
 2880TIP3    H230132   0.499   3.930  13.874  1.3114  0.7870  0.2942
 2881TIP3   OH230133   4.903   0.140  11.278 -0.1617 -0.6453  0.4953
 2881TIP3    H130134   4.964   0.210  11.305 -0.5181 -0.7102  1.5209
 2881TIP3    H230135   4.821   0.162  11.322 -0.7243 -0.8754 -0.4240
 2882TIP3   OH230136   1.775   6.315  14.889 -0.0955  0.2038  0.1545
 2882TIP3    H130137   1.687   6.286  14.868 -0.1849  1.4991 -1.4900
 2882TIP3    H230138   1.765   6.407  14.912  0.8427  0.3960 -0.1763
 2883TIP3   OH230139   0.137   4.410   1.539 -0.1506  0.6170 -0.3150
 2883TIP3    H130140   0.176   4.392   1.625 -0.4291  1.5102  0.0086
 2883TIP3    H230141   0.044   4.394   1.551  0.0058 -0.9681 -0.9406
 2884TIP3   OH230142   1.806   2.384  11.501  0.0861  0.3379 -0.4811
 2884TIP3    H130143   1.755   2.363  11.580  2.0128  0.4038  0.8551
 2884TIP3    H230144   1.763   2.334  11.432 -0.0136 -2.0463  1.1526
 2885TIP3   OH230145   4.478   2.061  15.888  0.0008  0.2196  0.7547
 2885TIP3    H130146   4.418   2.049  15.962  0.4321  0.7104  1.1973
 2885TIP3    H230147   4.561   2.086  15.929  0.7078 -1.1307  0.2035
 2886TIP3   OH230148   3.706   2.107   4.070 -0.1853  0.1509  0.6692
 2886TIP3    H130149   3.745   2.168   4.132 -0.0767 -1.5407  2.3690
 2886TIP3    H230150   3.775   2.043   4.052 -1.1394 -1.0861  1.2354
 2887TIP3   OH230151   3.578   2.425   0.611  0.0494  0.5115  0.6369
 2887TIP3    H130152   3.504   2.434   0.551  1.2727  0.6078 -0.9521
 2887TIP3    H230153   3.653   2.411   0.553  0.9280 -2.1878  2.2566
 2888TIP3   OH230154   5.481   3.238  13.314  0.0574 -0.1686 -0.0443
 2888TIP3    H130155   5.573   3.233  13.340 -0.3871  0.3278  1.7344
 2888TIP3    H230156   5.476   3.314  13.256  0.7558 -0.1565 -0.0934
 2889TIP3   OH230157   3.209   0.397  15.207  0.3014  0.5383  0.2812
 2889TIP3    H130158   3.240   0.480  15.244  2.0358 -0.7725  1.9756
 2889TIP3    H230159   3.183   0.345  15.283 -1.0575 -0.3915 -0.7703
 2890TIP3   OH230160   5.209   6.718  15.715  0.0989  0.9486 -0.0971
 2890TIP3    H130161   5.176   6.715  15.805 -1.7810 -0.3738 -0.7910
 2890TIP3    H230162   5.201   6.810  15.690 -1.7942  0.9029  0.2409
 2891TIP3   OH230163   3.909   6.117  16.048 -0.3376  0.2153 -0.5592
 2891TIP3    H130164   3.847   6.139  15.978 -0.3168  2.7241  0.1149
 2891TIP3    H230165   3.877   6.033  16.083 -1.3806 -0.1983 -2.3625
 2892TIP3   OH230166   2.551   4.046   1.345  0.0728 -0.2608  0.1511
 2892TIP3    H130167   2.456   4.037   1.356 -0.1386  0.8199 -0.6168
 2892TIP3    H230168   2.567   4.024   1.254  0.5229 -0.1351  0.1981
 2893TIP3   OH230169   6.460   6.634   5.020  0.2479 -0.4885  0.7034
 2893TIP3    H130170   6.486   6.581   4.945  1.3081  3.3334 -1.9392
 2893TIP3    H230171   6.532   6.626   5.082  1.3513 -0.5580 -0.5503
 2894TIP3   OH230172   5.509   5.526   1.689 -0.7253 -0.0582  0.0786
 2894TIP3    H130173   5.523   5.434   1.666 -1.1303 -0.6142  1.9199
 2894TIP3    H230174   5.475   5.566   1.608  1.9808 -0.8559 -1.5862
 2895TIP3   OH230175   4.069   3.565   4.085 -0.0997  0.0350 -0.0237
 2895TIP3    H130176   4.073   3.560   4.181 -0.5725  0.0796 -0.0029
 2895TIP3    H230177   4.151   3.609   4.061 -2.0627  4.7641  0.7341
 2896TIP3   OH230178   4.268   4.940   6.390 -0.0991  0.4163  0.0824
 2896TIP3    H130179   4.361   4.962   6.389  0.3492 -1.1018 -2.7857
 2896TIP3    H230180   4.225   5.017   6.353  0.2275  0.4924 -0.1498
 2897TIP3   OH230181   2.750   3.219  14.935 -0.2671  0.9940 -0.5837
 2897TIP3    H130182   2.753   3.195  14.843  1.3190  0.7732 -0.4991
 2897TIP3    H230183   2.760   3.314  14.936 -1.5061  1.1392 -0.6795
 2898TIP3   OH230184   1.208   2.747   0.641  0.0752  0.0917 -0.1840
 2898TIP3    H130185   1.244   2.663   0.670  0.5455  0.4622  0.3365
 2898TIP3    H230186   1.210   2.802   0.719  2.2414  1.4131 -1.0646
 2899TIP3   OH230187   1.303   0.747  16.858 -0.6482  0.6599 -0.4758
 2899TIP3    H130188   1.224   0.801  16.859 -0.1767  1.3537  0.4040
 2899TIP3    H230189   1.338   0.758  16.769 -0.3925  2.0826 -0.2271
 2900TIP3   OH230190   3.609   5.310  12.185 -0.0406  0.1580  0.1818
 2900TIP3    H130191   3.572   5.223  12.195  0.8203 -0.5173 -2.0153
 2900TIP3    H230192   3.557   5.365  12.244 -0.1661 -1.9163  2.1159
 2901TIP3   OH230193   3.243   6.190  14.078 -0.4452  0.1914 -0.1169
 2901TIP3    H130194   3.224   6.241  14.156 -1.4432  0.7395 -0.6996
 2901TIP3    H230195   3.167   6.203  14.021  1.1328  1.4705 -2.0466
 2902TIP3   OH230196   5.180   1.314   4.176  0.2043  0.3338  0.1277
 2902TIP3    H130197   5.262   1.323   4.224 -0.3721 -0.4803  1.3098
 2902TIP3    H230198   5.113   1.346   4.237 -0.6926 -1.9485  0.4333
 2903TIP3   OH230199   6.545   6.806  12.364 -0.8045 -0.0403  0.0429
 2903TIP3    H130200   6.472   6.763  12.408 -0.3510  0.0348  0.8904
 2903TIP3    H230201   6.510   6.833  12.279 -1.7103 -0.1377  0.3795
 2904TIP3   OH230202   1.710   5.613  14.940 -0.1397 -0.2494  0.0098
 2904TIP3    H130203   1.626   5.568  14.949  0.2953 -1.0198  0.3055
 2904TIP3    H230204   1.772   5.559  14.989  0.7012 -0.1686 -0.9294
 2905TIP3   OH230205   5.782   0.455   3.433  0.3925  0.2973 -0.2118
 2905TIP3    H130206   5.848   0.478   3.369 -1.1970 -2.7486 -3.2634
 2905TIP3    H230207   5.700   0.488   3.397 -0.2307  1.2089  1.8721
 2906TIP3   OH230208   4.395   1.537  13.644  0.1290  0.1017  0.1287
 2906TIP3    H130209   4.342   1.459  13.629  0.7588 -0.3987  0.4918
 2906TIP3    H230210   4.388   1.587  13.562 -1.1300  0.1891  0.2676
 2907TIP3   OH230211   1.505   3.252   2.075 -0.3873 -0.2223  0.2335
 2907TIP3    H130212   1.563   3.191   2.120 -0.1610 -0.3986 -0.2953
 2907TIP3    H230213   1.515   3.334   2.123 -1.6933 -0.9143  1.7869
 2908TIP3   OH230214   1.413   6.361  11.858 -0.1398 -0.1310 -0.1531
 2908TIP3    H130215   1.445   6.271  11.868 -1.9458 -0.7671  0.3844
 2908TIP3    H230216   1.479   6.404  11.805  2.1100 -1.0360  1.7384
 2909TIP3   OH230217   3.095   5.105   4.200  0.8539  0.5850  0.0643
 2909TIP3    H130218   3.084   5.123   4.106  0.5633  0.9164  0.1631
 2909TIP3    H230219   3.173   5.156   4.225  2.5386 -1.5201 -0.5638
 2910TIP3   OH230220   6.658   0.447   3.302 -0.2015 -0.4285 -0.7745
 2910TIP3    H130221   6.679   0.396   3.224 -0.7780 -1.7813 -0.0837
 2910TIP3    H230222   6.563   0.444   3.308 -0.1677 -0.2716 -0.0622
 2911TIP3   OH230223   4.468   1.382  10.871  0.3498  0.4455 -0.5722
 2911TIP3    H130224   4.501   1.466  10.903  0.5978  0.3412 -0.5567
 2911TIP3    H230225   4.403   1.406  10.805 -0.6923  0.6760  0.4956
 2912TIP3   OH230226   2.851   0.449  13.558  0.7117  0.1795 -0.3147
 2912TIP3    H130227   2.932   0.488  13.591  1.0084  0.3056 -1.1662
 2912TIP3    H230228   2.811   0.407  13.634  2.1538 -0.8684 -0.1024
 2913TIP3   OH230229   3.126   2.860   4.208  0.6717  0.6112  0.5251
 2913TIP3    H130230   3.103   2.817   4.126  1.2958  0.0627  0.6251
 2913TIP3    H230231   3.110   2.953   4.192  0.5628  0.4826 -0.1399
 2914TIP3   OH230232   4.962   2.868   4.851 -0.3306 -0.2419  0.0466
 2914TIP3    H130233   4.967   2.772   4.850 -1.8449 -0.3827  1.5160
 2914TIP3    H230234   4.988   2.894   4.763 -0.3731 -2.0257 -0.5341
 2915TIP3   OH230235   0.967   2.842  12.902  0.0857  0.8285  0.7372
 2915TIP3    H130236   0.909   2.915  12.923 -2.5461 -0.6479 -0.8796
 2915TIP3    H230237   0.934   2.769  12.955  1.9995  0.4895  1.5433
 2916TIP3   OH230238   1.047   2.491  15.912  0.1897  0.3145  0.7103
 2916TIP3    H130239   1.012   2.550  15.846 -0.4560 -0.2885  0.5051
 2916TIP3    H230240   1.130   2.531  15.938 -1.2004  2.5040  2.1601
 2917TIP3   OH230241   4.996   1.905  10.851  0.0285  0.2474  0.0403
 2917TIP3    H130242   5.010   1.967  10.779 -0.7314 -1.8117 -2.0207
 2917TIP3    H230243   4.903   1.881  10.844  0.3153 -1.1588  0.7017
 2918TIP3   OH230244   0.367   6.120  11.506  0.2455  0.0348 -0.0164
 2918TIP3    H130245   0.390   6.209  11.478  0.8756  0.4817  1.7781
 2918TIP3    H230246   0.327   6.131  11.592 -0.6045 -1.3571 -0.1936
 2919TIP3   OH230247   0.866   1.343   3.428 -0.7663  0.0001 -0.2394
 2919TIP3    H130248   0.859   1.353   3.523 -0.1420  4.4356 -0.4344
 2919TIP3    H230249   0.817   1.417   3.393  0.3422 -0.6075 -3.3499
 2920TIP3   OH230250   5.273   4.656   5.664 -0.0446 -0.4523  0.3056
 2920TIP3    H130251   5.236   4.614   5.742 -1.7830  0.5549  0.0757
 2920TIP3    H230252   5.252   4.749   5.675  0.6063 -0.1438 -0.8697
 2921TIP3   OH230253   0.640   5.106   0.343 -0.3025  0.2663  0.0931
 2921TIP3    H130254   0.646   5.118   0.248 -2.1009  0.2379 -0.0605
 2921TIP3    H230255   0.610   5.191   0.376  0.0249  0.1860  0.6117
 2922TIP3   OH230256   2.465   6.761  10.544 -0.4709  0.9834 -0.1858
 2922TIP3    H130257   2.538   6.750  10.483 -0.1264 -2.4155  0.6429
 2922TIP3    H230258   2.427   6.846  10.521  1.6253  1.3200 -2.8991
 2923TIP3   OH230259   2.929   1.994  16.544  0.5205  0.2739  0.7484
 2923TIP3    H130260   2.940   2.003  16.450  0.0977  1.6083  0.8082
 2923TIP3    H230261   2.929   2.084  16.577  1.2846 -0.1909  2.0934
 2924TIP3   OH230262   3.962   5.755  14.337  0.1603  0.2366 -0.2686
 2924TIP3    H130263   3.921   5.689  14.392  1.1563  0.5852  0.9480
 2924TIP3    H230264   3.989   5.708  14.258  1.3259 -0.9560  0.8035
 2925TIP3   OH230265   6.473   0.739   4.833 -0.2907 -0.4702 -0.4686
 2925TIP3    H130266   6.525   0.802   4.882 -0.7667 -0.7589  0.4386
 2925TIP3    H230267   6.528   0.715   4.759  0.3545  0.1550 -0.2026
 2926TIP3   OH230268   4.588   2.253   3.237 -0.2097  0.0769 -0.6000
 2926TIP3    H130269   4.523   2.323   3.222  0.8235  1.0894 -0.4703
 2926TIP3    H230270   4.658   2.296   3.287  0.2241 -1.1854 -0.1037
 2927TIP3   OH230271   5.028   1.725   0.077  0.4064  0.0314  1.0647
 2927TIP3    H130272   5.029   1.802   0.021  1.0128 -0.1672  0.7963
 2927TIP3    H230273   4.977   1.752   0.154 -0.3923  0.3163  0.4530
 2928TIP3   OH230274   6.260   5.571  11.789  0.1775 -0.3702  0.6032
 2928TIP3    H130275   6.251   5.478  11.772  1.6573 -0.5568  0.7013
 2928TIP3    H230276   6.311   5.576  11.870 -0.9982  0.5240  1.3126
 2929TIP3   OH230277   2.298   5.953   0.696  1.0496  0.1336  0.1102
 2929TIP3    H130278   2.346   5.871   0.689  0.6891 -0.1755  1.1117
 2929TIP3    H230279   2.269   5.971   0.606  3.9637  0.9619 -0.7761
 2930TIP3   OH230280   3.494   4.475  14.286  0.0045 -0.1657 -0.0828
 2930TIP3    H130281   3.534   4.526  14.356  1.1935  0.6908 -1.3313
 2930TIP3    H230282   3.439   4.411  14.331 -1.9478  2.4580  1.5761
 2931TIP3   OH230283   1.726   4.855   6.311  0.5561  0.2420  0.2134
 2931TIP3    H130284   1.752   4.942   6.281 -1.8575  1.7134  2.0045
 2931TIP3    H230285   1.754   4.852   6.403  0.0397 -0.6006  0.3515
 2932TIP3   OH230286   0.660   3.282  11.541 -0.2918  0.0044 -0.7076
 2932TIP3    H130287   0.749   3.283  11.504  0.2293 -0.2670  0.4797
 2932TIP3    H230288   0.604   3.258  11.467  0.7482 -0.8538 -1.2513
 2933TIP3   OH230289   5.596   1.584   0.021  0.2776  0.6064  0.0226
 2933TIP3    H130290   5.515   1.538   0.002  1.3220 -0.9837 -0.8761
 2933TIP3    H230291   5.571   1.676   0.029 -1.8660 -0.0595  1.6926
 2934TIP3   OH230292   0.648   2.314  12.790 -0.0241  0.0468 -0.5706
 2934TIP3    H130293   0.559   2.349  12.785 -0.3475 -0.5643  0.4833
 2934TIP3    H230294   0.705   2.391  12.782 -0.6227  0.4023 -1.5840
 2935TIP3   OH230295   2.359   5.207  16.652 -0.1283  0.2881  0.1569
 2935TIP3    H130296   2.403   5.125  16.628  0.9130  0.3602  1.6612
 2935TIP3    H230297   2.266   5.186  16.651  0.1178 -0.8474  0.3008
 2936TIP3   OH230298   0.681   2.763   2.684  0.4170 -0.6111 -0.1049
 2936TIP3    H130299   0.712   2.691   2.740 -1.0706  0.1878  1.8972
 2936TIP3    H230300   0.596   2.732   2.651  0.5094 -0.4143 -0.5186
 2937TIP3   OH230301   5.592   4.039  16.103 -0.0708  0.1222 -0.7797
 2937TIP3    H130302   5.629   3.952  16.120 -0.9841  0.0462  1.1735
 2937TIP3    H230303   5.658   4.100  16.136 -0.5343  0.0635  0.2990
 2938TIP3   OH230304   6.127   0.786  16.538  0.9627 -0.1516 -0.3973
 2938TIP3    H130305   6.191   0.837  16.587  0.2190  0.5853 -0.1806
 2938TIP3    H230306   6.148   0.695  16.559  2.3108  0.0368 -0.7993
 2939TIP3   OH230307   0.774   5.650  12.525  0.5251  0.3751  0.1205
 2939TIP3    H130308   0.776   5.711  12.451  0.6678 -0.3190 -0.4593
 2939TIP3    H230309   0.703   5.590  12.503  0.7575 -0.0016  0.4145
 2940TIP3   OH230310   5.180   1.797  11.467 -0.5356 -0.1139 -0.4786
 2940TIP3    H130311   5.253   1.823  11.523  1.2979  0.7226 -3.0512
 2940TIP3    H230312   5.149   1.715  11.505 -0.4817  1.1731  2.6057
 2941TIP3   OH230313   3.133   2.046   3.316  0.1421 -0.1385  0.2509
 2941TIP3    H130314   3.040   2.025   3.322  0.1762 -0.4065 -0.1073
 2941TIP3    H230315   3.177   1.975   3.362  0.1563  0.1416  0.6756
 2942TIP3   OH230316   0.492   5.997  13.059 -0.4041 -0.1447  0.3414
 2942TIP3    H130317   0.543   5.999  13.140 -0.2233  0.6002  0.2115
 2942TIP3    H230318   0.547   6.039  12.994 -1.4114  1.2475  0.3436
 2943TIP3   OH230319   5.804   1.232  13.845  0.1556  0.3124  0.7564
 2943TIP3    H130320   5.758   1.312  13.818  0.5808  0.0434 -0.8761
 2943TIP3    H230321   5.861   1.212  13.772  1.1753 -0.6684  1.7823
 2944TIP3   OH230322   6.094   5.305  12.130 -0.1806 -0.3039 -0.5612
 2944TIP3    H130323   6.051   5.296  12.045  0.0342 -2.7753 -0.4695
 2944TIP3    H230324   6.035   5.262  12.192  0.1874  0.4927  0.3798
 2945TIP3   OH230325   0.749   1.335  13.146  0.2575  0.1551 -0.3001
 2945TIP3    H130326   0.744   1.427  13.168 -0.2057 -0.2944  1.6436
 2945TIP3    H230327   0.843   1.316  13.143  0.4727 -0.1479  3.5223
 2946TIP3   OH230328   4.428   6.478  12.925 -0.7218  0.1500  0.2132
 2946TIP3    H130329   4.341   6.511  12.905 -0.9121  0.1780  1.0259
 2946TIP3    H230330   4.437   6.398  12.873 -2.2194 -1.2071  1.8969
 2947TIP3   OH230331   0.521   1.430  12.086  0.7066 -0.3478  0.3373
 2947TIP3    H130332   0.433   1.466  12.082  1.1659  0.8886  0.9625
 2947TIP3    H230333   0.509   1.340  12.117 -0.4028 -0.5439 -0.5902
 2948TIP3   OH230334   6.756   2.922  14.086 -0.3589  0.2576  0.1872
 2948TIP3    H130335   6.685   2.980  14.114  0.7224  2.0270 -0.5387
 2948TIP3    H230336   6.714   2.837  14.074 -2.1354  0.9986  0.7994
 2949TIP3   OH230337   4.797   0.919  11.416 -0.7144 -0.2367 -0.2436
 2949TIP3    H130338   4.878   0.942  11.461 -0.5398  0.4006 -0.8572
 2949TIP3    H230339   4.745   1.000  11.417 -1.5656 -0.7666  0.5806
 2950TIP3   OH230340   6.108   5.723  12.265  0.3512  0.2941 -0.3541
 2950TIP3    H130341   6.112   5.679  12.180  0.9072 -1.2149  0.4049
 2950TIP3    H230342   6.033   5.684  12.310  0.3929  0.6706  0.0576
 2951TIP3   OH230343   1.470   6.629  15.778  0.2919  0.2373 -0.1821
 2951TIP3    H130344   1.404   6.580  15.728 -1.1296 -1.1486  2.7853
 2951TIP3    H230345   1.425   6.655  15.858  3.0821  0.1424  1.5544
 2952TIP3   OH230346   0.589   0.737   2.334 -0.5039 -0.2008  0.1085
 2952TIP3    H130347   0.622   0.743   2.423 -0.9127  0.0809  0.2423
 2952TIP3    H230348   0.547   0.821   2.317  1.7113  0.7249 -1.2289
 2953TIP3   OH230349   2.762   0.482   5.113  0.1059  0.6962 -0.0643
 2953TIP3    H130350   2.845   0.471   5.066  0.6280  0.9427  0.7875
 2953TIP3    H230351   2.787   0.495   5.204 -0.8093  1.9170  0.0441
 2954TIP3   OH230352   2.605   5.092   6.043 -0.6139  0.2927 -0.1864
 2954TIP3    H130353   2.667   5.130   6.105  0.6070 -0.4631 -0.8970
 2954TIP3    H230354   2.656   5.026   5.995 -2.4933 -1.9944  0.7284
 2955TIP3   OH230355   0.046   3.933   6.121 -0.0529  0.3506  0.3079
 2955TIP3    H130356   0.131   3.909   6.156  1.3862  2.2916 -1.5593
 2955TIP3    H230357   0.013   3.999   6.181  0.7643  1.1007 -0.0381
 2956TIP3   OH230358   0.512   1.137  12.270  0.1539  0.6448  0.0123
 2956TIP3    H130359   0.561   1.149  12.352  2.1905 -0.6833 -0.9254
 2956TIP3    H230360   0.455   1.062  12.286  1.1640 -0.1510 -0.0089
 2957TIP3   OH230361   6.045   3.245  12.147  0.6627  0.5282  0.1884
 2957TIP3    H130362   5.961   3.207  12.174  0.1326  0.6864 -1.1450
 2957TIP3    H230363   6.098   3.246  12.227 -0.3022 -0.3716  0.8683
 2958TIP3   OH230364   2.130   4.716  11.293  0.0598  0.0356 -0.4563
 2958TIP3    H130365   2.052   4.660  11.292 -0.9492  1.3853  0.0372
 2958TIP3    H230366   2.195   4.666  11.244 -1.2155 -0.9825 -1.1965
 2959TIP3   OH230367   4.376   5.573   5.443  0.1826 -0.1836 -0.0384
 2959TIP3    H130368   4.430   5.545   5.517  1.6192 -1.1903 -1.3919
 2959TIP3    H230369   4.367   5.494   5.389 -1.6589  0.2764 -0.4575
 2960TIP3   OH230370   2.377   2.703  11.775  0.0591 -0.5382 -0.2239
 2960TIP3    H130371   2.398   2.617  11.813  1.5782 -0.2804 -0.4321
 2960TIP3    H230372   2.408   2.698  11.685 -0.7521 -0.0908 -0.5423
 2961TIP3   OH230373   2.510   1.992  11.994 -0.4532  0.0805 -0.7716
 2961TIP3    H130374   2.582   1.963  12.050  0.8411  1.2800 -1.7471
 2961TIP3    H230375   2.502   1.924  11.927 -0.4128 -0.1859 -0.5080
 2962TIP3   OH230376   1.477   0.037  12.805 -0.7454 -0.0746 -0.6145
 2962TIP3    H130377   1.534  -0.034  12.777  1.0586  0.0772  2.3129
 2962TIP3    H230378   1.531   0.089  12.865 -3.2772  1.4290  0.5101
 2963TIP3   OH230379   2.023   6.052  11.389 -0.1484  0.1544  0.0201
 2963TIP3    H130380   2.115   6.032  11.371 -0.6105 -2.0504 -0.1781
 2963TIP3    H230381   1.987   5.971  11.424 -1.6319  1.4748  1.7933
 2964TIP3   OH230382   4.947   0.188  16.002  0.6339  0.3875 -0.4727
 2964TIP3    H130383   5.035   0.211  16.031  1.2883 -1.9565 -0.3291
 2964TIP3    H230384   4.921   0.258  15.943  1.3158  2.7245  1.7949
 2965TIP3   OH230385   1.272   3.411   0.773  0.2862  0.1826  0.1849
 2965TIP3    H130386   1.352   3.450   0.739  0.1260  1.2055  0.9252
 2965TIP3    H230387   1.294   3.319   0.788  1.7799  0.7508  1.7520
 2966TIP3   OH230388   5.108   2.191  11.927 -0.3887  0.1670  0.3969
 2966TIP3    H130389   5.037   2.190  11.863  0.4194 -2.4215 -0.5771
 2966TIP3    H230390   5.071   2.151  12.005 -0.1996 -0.5719  0.1112
 2967TIP3   OH230391   0.317   1.658  10.703  0.0228  0.3073 -0.0756
 2967TIP3    H130392   0.239   1.709  10.681  0.1410 -0.0642 -1.4386
 2967TIP3    H230393   0.384   1.724  10.723 -0.3762  0.6373  0.1962
 2968TIP3   OH230394   5.963   4.736  15.168 -0.4887 -0.1471 -0.9707
 2968TIP3    H130395   5.906   4.739  15.090  0.8767  1.4130 -1.9666
 2968TIP3    H230396   6.041   4.690  15.138  0.1290  0.6383 -0.5907
 2969TIP3   OH230397   6.007   5.417   1.210 -0.6140  0.2585  0.0652
 2969TIP3    H130398   6.032   5.465   1.289 -1.4689  0.0511  0.4689
 2969TIP3    H230399   6.064   5.453   1.142 -0.2430  0.8234  0.6538
 2970TIP3   OH230400   6.280   3.564  15.382 -0.4787  0.3979 -0.3793
 2970TIP3    H130401   6.331   3.569  15.301 -0.5384  1.1155 -0.3814
 2970TIP3    H230402   6.344   3.566  15.452 -0.3980 -0.7437 -0.4112
 2971TIP3   OH230403   4.425   4.186  16.366  0.1893 -0.5375  0.1520
 2971TIP3    H130404   4.339   4.212  16.333  0.3270  0.2772  0.4071
 2971TIP3    H230405   4.407   4.153  16.454  0.1381 -0.3200  0.2244
 2972TIP3   OH230406   2.047   1.984   5.772 -0.2790 -0.5442  0.2062
 2972TIP3    H130407   2.018   1.916   5.711 -1.6388  1.3763 -1.4071
 2972TIP3    H230408   2.142   1.973   5.778 -0.3119 -1.7278 -1.0600
 2973TIP3   OH230409   6.081   5.191   5.907  0.0230 -0.1645 -0.1120
 2973TIP3    H130410   6.016   5.240   5.958 -2.4051 -0.3881 -2.7573
 2973TIP3    H230411   6.071   5.100   5.936 -1.4647 -0.3191 -1.0212
 2974TIP3   OH230412   6.154   5.147  10.282 -0.1876 -0.2048  0.2182
 2974TIP3    H130413   6.191   5.215  10.226 -1.3115 -0.7313 -1.2248
 2974TIP3    H230414   6.218   5.136  10.352  0.1035  2.2218  0.4277
 2975TIP3   OH230415   6.109   3.004   0.157  0.2749 -0.1812 -0.0805
 2975TIP3    H130416   6.135   2.945   0.229 -0.0005 -0.2693 -0.0529
 2975TIP3    H230417   6.121   2.951   0.078 -0.2415 -0.3700 -0.0351
 2976TIP3   OH230418   4.550   6.621   5.456  0.4632  0.6666 -0.1984
 2976TIP3    H130419   4.624   6.605   5.397  1.8005 -0.3570  1.6454
 2976TIP3    H230420   4.577   6.696   5.510 -0.9469  1.9122 -1.1450
 2977TIP3   OH230421   5.088   3.246  16.769 -0.2514  0.1463 -0.3759
 2977TIP3    H130422   5.086   3.172  16.708 -1.5958  0.5975 -0.8994
 2977TIP3    H230423   5.155   3.304  16.733  1.6720 -1.2946  0.6701
 2978TIP3   OH230424   0.225   1.733   1.682 -0.3305 -0.3326  0.0763
 2978TIP3    H130425   0.198   1.825   1.679 -0.4407 -0.3883 -0.8380
 2978TIP3    H230426   0.311   1.735   1.724 -1.1490 -0.0139  1.8137
 2979TIP3   OH230427   1.999   6.351  11.155 -0.3118 -0.1523  0.3932
 2979TIP3    H130428   1.926   6.300  11.191 -1.4574  1.9635  1.2147
 2979TIP3    H230429   1.958   6.430  11.120  1.4925  0.6604  0.0038
 2980TIP3   OH230430   4.348   2.100   2.842  0.4453 -0.1579  0.0552
 2980TIP3    H130431   4.307   2.173   2.889  0.2942 -1.2240  1.6297
 2980TIP3    H230432   4.406   2.143   2.778 -0.2725  1.3347  0.3561
 2981TIP3   OH230433   1.531   0.164   1.791 -0.1939 -0.0839  0.0043
 2981TIP3    H130434   1.515   0.153   1.698 -0.3976  1.7557 -0.2052
 2981TIP3    H230435   1.626   0.152   1.801 -0.4932 -3.1931  0.0676
 2982TIP3   OH230436   5.934   5.633   2.353 -0.0363 -0.3516  0.2164
 2982TIP3    H130437   5.960   5.545   2.381  1.7387  0.1194  0.1748
 2982TIP3    H230438   5.858   5.619   2.297  0.2090 -1.8671  0.2158
 2983TIP3   OH230439   6.056   1.141  12.616  0.4564  0.2444  0.6867
 2983TIP3    H130440   6.142   1.180  12.601  0.6995  0.2238  1.9556
 2983TIP3    H230441   6.017   1.194  12.686 -0.3809 -0.0269  0.4379
 2984TIP3   OH230442   0.124   0.571  13.504  0.5507 -0.0275  0.1885
 2984TIP3    H130443   0.069   0.649  13.518 -1.6856 -1.3655 -0.6864
 2984TIP3    H230444   0.076   0.500  13.548  2.0693 -1.1025  0.1810
 2985TIP3   OH230445   2.298   1.159  13.655  0.3601  0.0434  0.3824
 2985TIP3    H130446   2.359   1.111  13.599  0.8690 -1.0851  1.8182
 2985TIP3    H230447   2.346   1.238  13.681  0.4925  0.0774  0.0376
 2986TIP3   OH230448   0.434   6.309  15.638  0.1281  0.8404  0.1804
 2986TIP3    H130449   0.481   6.293  15.719 -0.3498  0.4906  0.3920
 2986TIP3    H230450   0.501   6.308  15.570  0.4997  0.9315  0.5443
 2987TIP3   OH230451   2.014   6.366   0.641 -0.2786  0.1470  0.2660
 2987TIP3    H130452   2.025   6.279   0.604  0.7352  0.9166 -1.3798
 2987TIP3    H230453   2.056   6.362   0.727  1.2332 -0.5803 -0.4720
 2988TIP3   OH230454   0.326   5.519  15.405  0.1589  0.5279  0.5693
 2988TIP3    H130455   0.367   5.556  15.326 -1.6033  0.2160 -0.5542
 2988TIP3    H230456   0.269   5.589  15.437  0.5896  0.5227  1.3853
 2989TIP3   OH230457   6.736   0.666  13.975 -0.3550 -0.5310 -0.3454
 2989TIP3    H130458   6.825   0.648  13.946 -0.7253 -1.6978 -0.8140
 2989TIP3    H230459   6.745   0.688  14.068  0.5461  0.6208 -0.6868
 2990TIP3   OH230460   4.878   6.807  14.407 -0.0463 -0.8832 -0.2152
 2990TIP3    H130461   4.822   6.735  14.378  0.8981 -1.6293 -0.2279
 2990TIP3    H230462   4.923   6.774  14.485  0.3325 -0.2731 -0.1630
 2991TIP3   OH230463   3.072   3.431  12.898 -0.2042  0.0713  0.0912
 2991TIP3    H130464   3.091   3.511  12.848  0.0797 -0.5246 -0.7690
 2991TIP3    H230465   2.976   3.424  12.895 -0.3846  1.2243  1.5394
 2992TIP3   OH230466   1.235   1.309  14.832 -0.7360 -0.3168 -0.4626
 2992TIP3    H130467   1.193   1.307  14.917  0.9378  0.4047  0.4282
 2992TIP3    H230468   1.255   1.402  14.817 -0.4671 -0.5083 -1.3642
 2993TIP3   OH230469   1.721   5.603  14.651 -0.0384  0.0060  0.2712
 2993TIP3    H130470   1.815   5.599  14.637 -0.1914  0.3137 -0.9498
 2993TIP3    H230471   1.709   5.584  14.744  1.2937  1.0628  0.6767
 2994TIP3   OH230472   1.017   0.895  16.381 -0.4123 -0.3409  0.3730
 2994TIP3    H130473   0.978   0.889  16.295 -0.7679  2.4520  0.2452
 2994TIP3    H230474   1.112   0.895  16.365 -0.4162 -2.0032  0.2247
 2995TIP3   OH230475   4.807   1.083  13.295  0.0108 -0.0098 -0.0355
 2995TIP3    H130476   4.802   1.096  13.389  1.5939 -0.3403  0.1236
 2995TIP3    H230477   4.857   1.002  13.284  0.0040  0.1152 -1.1633
 2996TIP3   OH230478   0.136   0.196  11.169  0.2593 -0.0663 -0.5977
 2996TIP3    H130479   0.129   0.101  11.161 -1.3764  0.0340 -0.6276
 2996TIP3    H230480   0.191   0.210  11.246 -0.4765 -1.0458  0.1291
 2997TIP3   OH230481   5.282   3.729   5.628  0.2251  0.3217  0.1026
 2997TIP3    H130482   5.244   3.811   5.596  1.1616  0.5524 -0.4494
 2997TIP3    H230483   5.262   3.728   5.721  0.0934  1.1158  0.0896
 2998TIP3   OH230484   2.428   3.067   2.686  0.2484  0.1027  0.1367
 2998TIP3    H130485   2.391   3.099   2.604 -0.0756  1.5941  0.8202
 2998TIP3    H230486   2.353   3.066   2.746  0.9578  1.5588  1.0963
 2999TIP3   OH230487   3.757   4.448   3.852 -0.1169  0.0259 -0.3911
 2999TIP3    H130488   3.813   4.397   3.793 -0.3944 -0.1300 -0.5245
 2999TIP3    H230489   3.724   4.520   3.799  1.8136  1.4897  0.3120
 3000TIP3   OH230490   6.559   0.780  15.638 -0.8841 -0.4709 -0.2120
 3000TIP3    H130491   6.530   0.780  15.729  1.5465  1.0645  0.6564
 3000TIP3    H230492   6.494   0.833  15.592 -1.1210  0.3676  1.0441
 3001TIP3   OH230493   2.743   2.799   5.200 -0.2042  0.1403 -0.2038
 3001TIP3    H130494   2.721   2.749   5.278 -0.4253  0.4651 -0.0586
 3001TIP3    H230495   2.731   2.738   5.128 -1.0116  0.1423 -0.0764
 3002TIP3   OH230496   5.791   6.482   1.729 -0.4397 -0.3734 -0.7977
 3002TIP3    H130497   5.784   6.387   1.734 -3.1888 -0.2311  0.0012
 3002TIP3    H230498   5.703   6.513   1.752  1.2796  2.4945  3.0252
 3003TIP3   OH230499   6.015   0.097  14.011 -0.3944  0.3415  0.7908
 3003TIP3    H130500   6.002   0.100  14.106 -0.6638  1.1289  0.7422
 3003TIP3    H230501   5.957   0.028  13.981  0.2448 -0.4212  1.2766
 3004TIP3   OH230502   2.418   2.256   0.844  0.2587  0.1888 -0.5432
 3004TIP3    H130503   2.410   2.251   0.749  1.3006  0.4235 -0.6562
 3004TIP3    H230504   2.329   2.241   0.877 -0.0808 -0.0434 -1.5436
 3005TIP3   OH230505   3.750   3.741   3.883 -0.4860 -0.5709  0.2856
 3005TIP3    H130506   3.696   3.667   3.854 -0.4279 -0.5563  0.1391
 3005TIP3    H230507   3.822   3.745   3.819  0.5770 -1.5879  1.3674
 3006TIP3   OH230508   6.003   2.725   0.851  0.4180 -0.4421  0.6337
 3006TIP3    H130509   5.913   2.693   0.841  0.3907 -0.0682 -0.4079
 3006TIP3    H230510   6.057   2.654   0.816  0.4791 -0.3002  0.4404
 3007TIP3   OH230511   3.463   2.175   6.345  0.3051  0.4730 -0.1959
 3007TIP3    H130512   3.547   2.128   6.345  1.0481  1.7475 -0.7258
 3007TIP3    H230513   3.451   2.203   6.436  0.6165  0.5586 -0.1808
 3008TIP3   OH230514   1.143   3.083  10.307  0.5076  0.3689  0.8382
 3008TIP3    H130515   1.089   3.045  10.376  0.6318 -2.2152 -0.3885
 3008TIP3    H230516   1.127   3.028  10.231 -0.1634  3.5209 -1.4868
 3009TIP3   OH230517   0.040   3.997   3.482 -0.2190 -0.4997  0.3570
 3009TIP3    H130518   0.120   4.041   3.511 -0.6014  1.3120 -1.2181
 3009TIP3    H230519  -0.028   4.032   3.539 -0.0806 -1.3254  1.0582
 3010TIP3   OH230520   5.210   5.988   2.290 -0.2280 -0.1471 -0.0017
 3010TIP3    H130521   5.263   5.909   2.281  0.0301  0.2547 -2.4720
 3010TIP3    H230522   5.141   5.964   2.353  0.6628 -1.8523  0.3635
 3011TIP3   OH230523   3.161   5.878  12.559  0.5735  0.9511  0.0515
 3011TIP3    H130524   3.094   5.814  12.581  0.2831  1.3061  0.2061
 3011TIP3    H230525   3.163   5.878  12.463 -1.0806  2.3910 -0.0286
 3012TIP3   OH230526   0.222   5.853  14.009 -0.2252  0.6792 -0.0554
 3012TIP3    H130527   0.135   5.886  13.990  0.4048  1.8927 -0.9979
 3012TIP3    H230528   0.230   5.773  13.957 -0.7925  0.5191  0.1009
 3013TIP3   OH230529   1.423   1.336  15.160 -0.1482 -0.3965  0.4990
 3013TIP3    H130530   1.347   1.316  15.215 -0.6355 -1.6871 -0.5768
 3013TIP3    H230531   1.458   1.250  15.136 -0.2762  0.0803 -1.6085
 3014TIP3   OH230532   0.427   2.678   2.788  0.2741  0.5942 -0.2137
 3014TIP3    H130533   0.501   2.621   2.807  0.4388  0.3133 -1.6484
 3014TIP3    H230534   0.355   2.619   2.767 -0.8058  0.7990  2.4270
 3015TIP3   OH230535   5.404   6.411   2.202  0.2582  0.0889  0.3280
 3015TIP3    H130536   5.463   6.466   2.254  0.3978  0.2153  0.0436
 3015TIP3    H230537   5.335   6.472   2.173 -0.1028 -0.0949  0.7987
 3016TIP3   OH230538   1.006   5.436   4.352  0.0313  0.3743  0.2243
 3016TIP3    H130539   1.026   5.477   4.267 -0.7113  1.3874  0.5178
 3016TIP3    H230540   1.012   5.342   4.335 -0.0449  0.5595 -0.9410
 3017TIP3   OH230541   5.838   5.043  11.289  0.3232  0.4499 -0.4393
 3017TIP3    H130542   5.796   4.964  11.254  0.0143  1.1852 -1.8145
 3017TIP3    H230543   5.877   5.015  11.371 -1.7927 -0.5604  0.2965
 3018TIP3   OH230544   6.718   4.797  15.892 -0.8234 -0.2494  0.0784
 3018TIP3    H130545   6.718   4.766  15.801  2.6838  0.4279 -0.2859
 3018TIP3    H230546   6.683   4.886  15.887 -2.4103 -0.8535 -0.2498
 3019TIP3   OH230547   3.712   1.422   3.272  0.0832 -0.2190 -0.0544
 3019TIP3    H130548   3.805   1.411   3.294 -0.3316 -0.8771  1.4404
 3019TIP3    H230549   3.701   1.517   3.263  0.5983 -0.0271  1.1692
 3020TIP3   OH230550   4.471   3.190   0.604  0.1739  0.5761 -0.1011
 3020TIP3    H130551   4.548   3.134   0.600  2.0894  3.0975 -1.7219
 3020TIP3    H230552   4.505   3.279   0.595 -2.6961  2.0759  2.0207
 3021TIP3   OH230553   2.291   3.195   1.644  0.1972  0.4333 -0.3128
 3021TIP3    H130554   2.321   3.109   1.615 -1.4283 -0.3126  0.1096
 3021TIP3    H230555   2.324   3.203   1.733  0.3186  0.2322 -0.3397
 3022TIP3   OH230556   3.349   6.676   4.109  0.5764 -0.3877 -0.2492
 3022TIP3    H130557   3.275   6.677   4.168  0.8175 -2.5331  0.1823
 3022TIP3    H230558   3.314   6.707   4.026 -0.4196  0.1137  0.3460
 3023TIP3   OH230559   6.377   1.398  14.122 -0.3667  0.1781 -0.5032
 3023TIP3    H130560   6.331   1.476  14.089 -0.4291  0.3445 -0.0362
 3023TIP3    H230561   6.439   1.376  14.053 -0.0240  0.9244 -0.4468
 3024TIP3   OH230562   3.927   2.541   2.148 -0.3367 -0.7391 -0.1853
 3024TIP3    H130563   3.956   2.533   2.057  0.8924 -0.6258  0.1704
 3024TIP3    H230564   4.003   2.511   2.199 -1.1517 -1.1761  0.7889
 3025TIP3   OH230565   4.729   2.304  11.091 -0.0136 -0.5646 -0.6691
 3025TIP3    H130566   4.791   2.347  11.150  1.0091 -1.3375 -1.1552
 3025TIP3    H230567   4.770   2.309  11.005 -1.3864  0.3305 -1.2963
 3026TIP3   OH230568   0.048   4.534  15.546  0.5795 -0.5935 -0.1269
 3026TIP3    H130569   0.017   4.625  15.550 -0.3474 -0.7928 -1.8397
 3026TIP3    H230570  -0.007   4.488  15.610 -0.0206 -0.2223 -0.3553
 3027TIP3   OH230571   4.502   3.540   1.827  0.1038  0.2344  0.0094
 3027TIP3    H130572   4.588   3.568   1.859  0.2852 -0.0999 -0.1769
 3027TIP3    H230573   4.470   3.613   1.775 -0.8561  1.4196  2.1370
 3028TIP3   OH230574   4.394   1.797  14.917  0.0722 -0.6225  0.0689
 3028TIP3    H130575   4.452   1.801  14.840  1.0128 -1.2566  0.7122
 3028TIP3    H230576   4.312   1.762  14.883 -0.2261  1.0320 -1.0133
 3029TIP3   OH230577   3.187   3.121  14.645  0.1469 -0.2160  0.0500
 3029TIP3    H130578   3.126   3.047  14.651 -1.7386  1.2774  0.1094
 3029TIP3    H230579   3.187   3.160  14.732  0.4131  0.4122 -0.2233
 3030TIP3   OH230580   1.769   4.399  14.045 -0.5269 -0.3119  0.2611
 3030TIP3    H130581   1.704   4.395  13.974 -0.2752 -2.3690  0.0887
 3030TIP3    H230582   1.825   4.322  14.031  1.4172  0.8952  0.9395
 3031TIP3   OH230583   0.619   0.921   0.016  0.0957  0.2728  0.0113
 3031TIP3    H130584   0.611   0.863  -0.060  1.2141  0.5039 -0.3111
 3031TIP3    H230585   0.532   0.921   0.056 -0.0445 -1.2770 -0.2239
 3032TIP3   OH230586   4.037   4.984  14.581 -0.0884  0.0939  0.5561
 3032TIP3    H130587   3.952   5.028  14.578 -0.7683 -1.0904  1.2133
 3032TIP3    H230588   4.045   4.956  14.673  0.2883 -1.1347  0.1663
 3033TIP3   OH230589   5.158   3.481  11.245 -0.3530  0.4937 -0.2889
 3033TIP3    H130590   5.221   3.545  11.276  1.5521 -1.5177  0.2572
 3033TIP3    H230591   5.205   3.430  11.179 -2.3934  0.7801 -2.0877
 3034TIP3   OH230592   2.135   6.800   5.048  0.5750 -0.1673 -0.0863
 3034TIP3    H130593   2.166   6.753   4.971 -1.5998 -1.3612 -0.3209
 3034TIP3    H230594   2.169   6.889   5.038  2.4250 -0.9352 -1.0909
 3035TIP3   OH230595   6.616   2.151  13.139 -0.3602 -0.3499 -0.0272
 3035TIP3    H130596   6.538   2.105  13.109 -2.0466  1.4604  1.3202
 3035TIP3    H230597   6.650   2.194  13.060 -1.0832 -0.6569 -0.5134
 3036TIP3   OH230598   5.009   4.879   4.846  0.3531  0.0944  0.6364
 3036TIP3    H130599   4.987   4.795   4.885  0.9095  0.7149  2.3620
 3036TIP3    H230600   5.060   4.925   4.913 -0.1780  1.9302 -0.1466
 3037TIP3   OH230601   2.861   1.801   2.324 -0.1488  0.1576  0.1694
 3037TIP3    H130602   2.769   1.774   2.322 -0.0270 -0.7284  2.7246
 3037TIP3    H230603   2.859   1.896   2.313 -1.4807  0.2539  1.0539
 3038TIP3   OH230604   5.230   6.164   2.036 -0.0975 -0.3878 -0.0678
 3038TIP3    H130605   5.195   6.234   1.980 -0.8525 -1.1030 -0.5268
 3038TIP3    H230606   5.182   6.086   2.007  0.3265 -0.9811  0.8194
 3039TIP3   OH230607   6.489   2.790  11.421 -0.2213 -0.6552  0.0662
 3039TIP3    H130608   6.422   2.799  11.490 -0.9425 -0.4359 -0.6445
 3039TIP3    H230609   6.449   2.731  11.357 -0.4417  0.7810 -1.1861
 3040TIP3   OH230610   3.245   0.311  15.857 -0.2161 -0.3297  0.0765
 3040TIP3    H130611   3.205   0.231  15.891  1.3652 -0.9211  0.6680
 3040TIP3    H230612   3.336   0.286  15.840  0.4810  1.5111  0.9020
 3041TIP3   OH230613   1.257   5.258  11.527 -0.3805  0.0635  0.3916
 3041TIP3    H130614   1.291   5.270  11.438 -0.7993 -0.7395  0.1176
 3041TIP3    H230615   1.169   5.295  11.524 -1.3279 -2.0691 -0.2089
 3042TIP3   OH230616   5.371   4.537  14.798 -0.4221 -0.3391  0.4251
 3042TIP3    H130617   5.288   4.523  14.844 -0.8190 -0.5519 -0.3511
 3042TIP3    H230618   5.363   4.625  14.761  0.2132  0.1509  1.3965
 3043TIP3   OH230619   3.559   0.116  16.259 -0.1593 -0.7813 -0.1301
 3043TIP3    H130620   3.600   0.131  16.345  0.4271  0.1887 -0.5676
 3043TIP3    H230621   3.492   0.184  16.253  1.3475  0.6642 -1.3969
 3044TIP3   OH230622   2.509   5.277  16.065 -0.6279 -0.2794  0.1416
 3044TIP3    H130623   2.452   5.344  16.101  1.2716  1.4976  0.0500
 3044TIP3    H230624   2.459   5.240  15.992 -2.7593 -0.8721  1.8084
 3045TIP3   OH230625   1.740   4.178  16.583  0.1617 -0.1810 -0.5863
 3045TIP3    H130626   1.680   4.143  16.649  0.0778 -1.0092 -1.0847
 3045TIP3    H230627   1.696   4.257  16.550 -0.7295 -0.8332 -1.0163
 3046TIP3   OH230628   6.430   6.662  12.035  0.4477 -0.5463  0.3530
 3046TIP3    H130629   6.494   6.591  12.039 -0.2917 -1.1670  2.2281
 3046TIP3    H230630   6.482   6.742  12.045  0.9504 -1.0422  1.9107
 3047TIP3   OH230631   3.830   2.281  10.484  0.2612  0.6118 -0.6754
 3047TIP3    H130632   3.879   2.340  10.541 -0.7254 -0.1480  1.0740
 3047TIP3    H230633   3.740   2.285  10.517  0.3541 -2.7013  0.3740
 3048TIP3   OH230634   5.652   4.781  15.840 -0.2445 -0.3850 -0.0990
 3048TIP3    H130635   5.665   4.861  15.790  1.0942 -0.4338  0.1352
 3048TIP3    H230636   5.635   4.810  15.930  1.9794 -0.3399  0.3664
 3049TIP3   OH230637   4.708   3.858  14.409  0.6522 -0.4829 -0.3946
 3049TIP3    H130638   4.687   3.866  14.502 -1.1328 -0.1896 -0.7982
 3049TIP3    H230639   4.779   3.921  14.396 -1.3225  1.9828  0.1177
 3050TIP3   OH230640   4.152   1.912   1.531  0.3997 -0.0934 -0.1756
 3050TIP3    H130641   4.126   1.915   1.439  0.5706  0.6890 -0.2036
 3050TIP3    H230642   4.221   1.979   1.538 -0.0483  0.2861  0.6540
 3051TIP3   OH230643   0.449   4.859  15.644 -0.3528  1.3575 -0.0991
 3051TIP3    H130644   0.496   4.843  15.726  1.6803  3.1547 -0.8139
 3051TIP3    H230645   0.368   4.901  15.671  0.7084  2.7970  1.0315
 3052TIP3   OH230646   3.321   4.865  13.108  0.1434 -0.5897  0.3390
 3052TIP3    H130647   3.272   4.786  13.087  1.7441 -1.5128 -0.0169
 3052TIP3    H230648   3.259   4.919  13.158 -1.0365 -1.9605  0.4029
 3053TIP3   OH230649   4.994   0.598   5.532 -0.8481 -0.2909  0.2278
 3053TIP3    H130650   5.017   0.667   5.594 -2.2706  1.8869 -1.5230
 3053TIP3    H230651   5.069   0.538   5.535  0.3960  1.2284  1.9286
 3054TIP3   OH230652   5.512   5.064   4.754  0.4008  0.5834 -0.0110
 3054TIP3    H130653   5.599   5.079   4.716  1.4605 -2.3454  1.0019
 3054TIP3    H230654   5.530   5.023   4.839 -1.9903  1.5553  1.0411
 3055TIP3   OH230655   6.283   1.188   2.262 -0.0139  0.1847  0.1751
 3055TIP3    H130656   6.366   1.186   2.311  0.1663 -2.5608 -0.0865
 3055TIP3    H230657   6.215   1.183   2.329 -0.0355  2.2635  0.3797
 3056TIP3   OH230658   2.127   3.669   2.648  0.2029  0.0099 -0.2608
 3056TIP3    H130659   2.223   3.669   2.643  0.2599 -2.7117 -0.8428
 3056TIP3    H230660   2.100   3.732   2.581  1.5986  0.4560 -0.4375
 3057TIP3   OH230661   5.519   1.462   2.683 -0.1193  0.3249 -0.0246
 3057TIP3    H130662   5.462   1.410   2.740 -0.5341  1.9409  1.1136
 3057TIP3    H230663   5.493   1.553   2.700 -0.3887  0.8917 -2.9585
 3058TIP3   OH230664   6.570   2.283  11.200  0.3030  0.2184  0.1293
 3058TIP3    H130665   6.548   2.204  11.151  1.1000 -0.4978  0.8917
 3058TIP3    H230666   6.485   2.315  11.232 -0.0979  0.0634 -0.7374
 3059TIP3   OH230667   5.497   1.782   6.319 -0.1128  0.2406  0.1882
 3059TIP3    H130668   5.469   1.690   6.317 -2.1625  0.8227 -1.3667
 3059TIP3    H230669   5.590   1.779   6.296 -1.0664 -1.2663 -4.7270
 3060TIP3   OH230670   0.303   0.311  13.244  0.5122  0.0322  0.2996
 3060TIP3    H130671   0.336   0.274  13.162  0.5269 -1.8914  1.1286
 3060TIP3    H230672   0.295   0.405  13.226  1.1563 -0.2412 -1.6756
 3061TIP3   OH230673   0.648   5.549  16.646  0.6202  0.4603  0.2965
 3061TIP3    H130674   0.675   5.618  16.706  1.5583 -1.7680  2.5958
 3061TIP3    H230675   0.728   5.529  16.596  0.0077  1.8604 -1.3453
 3062TIP3   OH230676   5.379   3.455   2.395  0.1452  0.0881 -0.0266
 3062TIP3    H130677   5.355   3.369   2.359 -0.7715  0.1272  0.4454
 3062TIP3    H230678   5.295   3.502   2.401  0.3880  0.3991  1.3095
 3063TIP3   OH230679   4.322   2.870  14.927 -0.7933 -0.7721  0.4301
 3063TIP3    H130680   4.407   2.906  14.902 -0.6129 -0.8826  0.8700
 3063TIP3    H230681   4.263   2.895  14.856 -0.5569 -0.0550  0.4821
 3064TIP3   OH230682   2.676   3.595   4.258  0.0349 -0.2796  0.3582
 3064TIP3    H130683   2.693   3.508   4.222  0.1174  0.2234 -0.8487
 3064TIP3    H230684   2.721   3.595   4.342  1.1658 -0.9462 -0.2315
 3065TIP3   OH230685   5.947   1.200  16.429 -0.6011 -0.4416  0.2354
 3065TIP3    H130686   6.006   1.176  16.500 -0.3495  0.2678  0.2764
 3065TIP3    H230687   6.005   1.219  16.355 -0.8049 -0.2072  0.1348
 3066TIP3   OH230688   5.558   0.643   6.511 -0.3760 -0.2386 -0.0161
 3066TIP3    H130689   5.515   0.726   6.492 -0.3089  0.0250  0.9380
 3066TIP3    H230690   5.494   0.594   6.563 -0.8452 -1.2415 -1.4512
 3067TIP3   OH230691   0.721   6.338  11.445 -0.8775 -0.0064  0.3608
 3067TIP3    H130692   0.800   6.383  11.474 -1.8369 -0.3238  4.0171
 3067TIP3    H230693   0.671   6.405  11.398  0.0291  1.2079  1.0707
 3068TIP3   OH230694   3.470   3.821  13.200 -0.4325  0.6198 -0.5950
 3068TIP3    H130695   3.517   3.743  13.172 -2.7844 -1.3099  0.5281
 3068TIP3    H230696   3.455   3.809  13.294 -2.1497  1.6828 -0.6848
 3069TIP3   OH230697   2.912   1.393   1.197 -0.6019 -0.2864  0.4678
 3069TIP3    H130698   2.853   1.404   1.271 -0.5453 -0.9487  0.6175
 3069TIP3    H230699   2.983   1.338   1.230 -0.6063 -0.6440 -0.0937
 3070TIP3   OH230700   6.626   2.591  12.211  0.4986 -0.0441  0.0731
 3070TIP3    H130701   6.688   2.641  12.158 -0.5728 -1.0909 -2.3502
 3070TIP3    H230702   6.603   2.649  12.283  1.9331  1.5519 -0.7022
 3071TIP3   OH230703   5.299   3.074  12.634  0.3064 -0.1079 -0.1246
 3071TIP3    H130704   5.358   3.053  12.706  1.4884  2.4163 -0.2499
 3071TIP3    H230705   5.305   2.998  12.575 -0.7155 -2.2381  2.3367
 3072TIP3   OH230706   1.606   5.394   3.981 -0.4405  0.1980  0.3494
 3072TIP3    H130707   1.535   5.333   3.999 -0.7669 -0.1250 -1.8083
 3072TIP3    H230708   1.606   5.453   4.057 -1.3896 -1.2543  1.5439
 3073TIP3   OH230709   0.324   3.712  11.500 -0.8391  0.0821 -0.3487
 3073TIP3    H130710   0.238   3.680  11.529 -0.1807 -0.4257  1.1428
 3073TIP3    H230711   0.371   3.731  11.582  0.1697  1.1912 -1.1498
 3074TIP3   OH230712   3.954   0.189  14.843  0.5080 -0.0632 -0.3773
 3074TIP3    H130713   4.012   0.243  14.895  1.6573 -1.8396  0.2774
 3074TIP3    H230714   4.012   0.129  14.796 -0.7209 -1.1314 -0.5989
 3075TIP3   OH230715   0.296   4.569   6.736  0.2046 -0.9813  0.1544
 3075TIP3    H130716   0.289   4.635   6.804 -1.9529  0.3645 -1.2608
 3075TIP3    H230717   0.389   4.546   6.735  1.3803  3.0237 -0.1728
 3076TIP3   OH230718   1.814   1.935   5.100 -0.1712  0.0743  0.3768
 3076TIP3    H130719   1.897   1.893   5.120 -0.7866 -0.4824  1.9288
 3076TIP3    H230720   1.806   2.004   5.165 -1.2150 -0.2979  0.6627
 3077TIP3   OH230721   2.388   5.662   1.996  0.4786  0.2419  0.2918
 3077TIP3    H130722   2.387   5.752   1.963  0.3487 -0.0871 -0.6383
 3077TIP3    H230723   2.431   5.612   1.927 -0.6490 -0.6362  0.2017
 3078TIP3   OH230724   2.657   3.693   3.428  0.1716 -0.6854 -0.5426
 3078TIP3    H130725   2.708   3.612   3.427  0.0717 -0.7445 -1.1850
 3078TIP3    H230726   2.721   3.761   3.407  0.0612 -0.7213 -1.0158
 3079TIP3   OH230727   1.362   5.752  11.398  0.0533  0.0820  0.0632
 3079TIP3    H130728   1.286   5.728  11.451 -0.3704  0.2771 -0.4540
 3079TIP3    H230729   1.408   5.669  11.385 -0.3521 -0.1276 -0.0585
 3080TIP3   OH230730   3.884   4.150   2.497 -0.6126  0.2701  0.0235
 3080TIP3    H130731   3.932   4.195   2.428  0.1279 -1.8620 -0.9519
 3080TIP3    H230732   3.803   4.122   2.455 -0.7926  0.1693  0.4299
 3081TIP3   OH230733   5.657   3.181  17.074  0.6423 -0.4485  0.4522
 3081TIP3    H130734   5.656   3.104  17.017 -0.8591 -1.2174  1.4510
 3081TIP3    H230735   5.731   3.166  17.133  0.4542 -1.0625  0.5429
 3082TIP3   OH230736   2.262   3.146   5.972 -0.4937  0.3202 -0.4782
 3082TIP3    H130737   2.321   3.132   6.046 -0.7535  0.5673 -0.2212
 3082TIP3    H230738   2.179   3.170   6.012 -0.4402  1.2100 -0.8602
 3083TIP3   OH230739   3.255   5.547  13.351  0.5644 -0.0478 -0.1925
 3083TIP3    H130740   3.301   5.611  13.405 -0.4860  0.3427  0.2757
 3083TIP3    H230741   3.213   5.600  13.283  0.3032 -0.3166 -0.2435
 3084TIP3   OH230742   6.436   6.789  13.228  0.2170 -0.5858 -0.3078
 3084TIP3    H130743   6.429   6.872  13.182 -0.3603  1.7550  3.5532
 3084TIP3    H230744   6.348   6.751  13.223 -0.0551  0.0549 -0.4214
 3085TIP3   OH230745   3.890   1.038  10.838 -0.0990 -0.6715  0.1806
 3085TIP3    H130746   3.951   1.107  10.866  1.0276 -1.4847 -0.1631
 3085TIP3    H230747   3.839   1.077  10.768 -0.0188  0.0533  0.5167
 3086TIP3   OH230748   1.561   0.604   0.852 -0.3005 -0.5294 -0.4045
 3086TIP3    H130749   1.649   0.602   0.888 -0.2315 -1.0333 -0.5959
 3086TIP3    H230750   1.566   0.550   0.773 -0.8721 -0.8912 -0.2018
 3087TIP3   OH230751   3.532   4.602   0.575  0.3621  0.0034 -0.1965
 3087TIP3    H130752   3.460   4.650   0.534  0.4350 -0.5507 -1.0054
 3087TIP3    H230753   3.525   4.514   0.539  0.2179 -0.6148  1.2654
 3088TIP3   OH230754   5.012   1.374   2.833 -0.4433  0.5553 -0.3388
 3088TIP3    H130755   5.104   1.355   2.812 -1.0647 -0.9246 -2.0193
 3088TIP3    H230756   5.011   1.467   2.855  1.4316  0.6272 -0.3947
 3089TIP3   OH230757   5.596   3.684  15.827 -0.0622 -0.4507 -0.5761
 3089TIP3    H130758   5.690   3.692  15.812  0.1368  0.4305  0.9147
 3089TIP3    H230759   5.561   3.772  15.812 -0.7228 -0.8619 -1.5183
 3090TIP3   OH230760   2.240   0.094   1.634  0.2463 -0.3291 -0.0117
 3090TIP3    H130761   2.271   0.026   1.694  0.5109  0.0842  0.3245
 3090TIP3    H230762   2.204   0.045   1.560 -1.0132 -0.8797  0.9252
 3091TIP3   OH230763   4.412   5.944  16.870  0.8078 -0.4877  0.1040
 3091TIP3    H130764   4.323   5.926  16.898 -0.2446 -0.2869 -2.7398
 3091TIP3    H230765   4.451   5.993  16.942 -1.2774 -0.8065  1.5372
 3092TIP3   OH230766   1.846   1.432   5.262  0.3603 -0.0387  0.5561
 3092TIP3    H130767   1.783   1.502   5.248  0.9477  0.7482  1.6544
 3092TIP3    H230768   1.793   1.353   5.268 -0.4845  0.5390  0.9673
 3093TIP3   OH230769   1.639   0.950  14.447 -0.1722 -0.4939 -0.4197
 3093TIP3    H130770   1.654   0.875  14.389 -2.8793 -1.4079 -0.0566
 3093TIP3    H230771   1.550   0.978  14.428 -1.7208 -1.6089  4.0415
 3094TIP3   OH230772   6.501   4.673  13.125 -0.1816 -0.4301  0.5198
 3094TIP3    H130773   6.420   4.635  13.159 -1.5909  1.9165 -0.0006
 3094TIP3    H230774   6.543   4.713  13.201 -0.6880  0.3047  0.4234
 3095TIP3   OH230775   5.785   5.305  15.217 -0.0268  0.8244 -0.1858
 3095TIP3    H130776   5.773   5.243  15.145  3.5066 -0.6768  0.3325
 3095TIP3    H230777   5.703   5.299  15.267 -0.6673 -1.8182 -1.3787
 3096TIP3   OH230778   5.685   0.028  15.149 -0.6099  0.2935 -0.4169
 3096TIP3    H130779   5.683   0.085  15.072 -1.7251  2.6230  1.2341
 3096TIP3    H230780   5.593   0.006  15.164 -0.4051 -0.0805  0.3011
 3097TIP3   OH230781   3.870   3.749   4.108 -0.0417 -0.0799 -0.0540
 3097TIP3    H130782   3.836   3.750   4.018  2.4975  1.9180 -1.1315
 3097TIP3    H230783   3.940   3.683   4.106  0.0895  0.0385  0.4291
 3098TIP3   OH230784   4.540   6.492  16.620 -0.8457  0.5537 -0.5253
 3098TIP3    H130785   4.491   6.418  16.655 -0.2278 -0.2807 -1.3752
 3098TIP3    H230786   4.529   6.561  16.685 -3.4728  0.5356 -0.8746
 3099TIP3   OH230787   5.418   2.929   2.698 -0.5590 -0.3448  0.0950
 3099TIP3    H130788   5.480   3.002   2.706  1.3433 -1.7672 -0.7530
 3099TIP3    H230789   5.354   2.944   2.767  1.4290  0.6108  1.8509
 3100TIP3   OH230790   1.223   3.332   3.539 -0.2212 -0.8282 -0.1753
 3100TIP3    H130791   1.250   3.275   3.611  0.8332  0.2050  0.2787
 3100TIP3    H230792   1.184   3.273   3.475  0.8389 -2.0619  0.2702
 3101TIP3   OH230793   5.187   4.146   2.573  0.2571 -0.7465  0.2953
 3101TIP3    H130794   5.277   4.130   2.601  0.2440 -2.5477 -0.5495
 3101TIP3    H230795   5.185   4.239   2.552  1.1678 -0.0680  2.8284
 3102TIP3   OH230796   4.383   4.521  11.162 -0.3042  0.0025  0.3526
 3102TIP3    H130797   4.386   4.553  11.071 -1.8260  0.5413  0.4592
 3102TIP3    H230798   4.474   4.515  11.188  0.1707 -0.2080 -1.2398
 3103TIP3   OH230799   6.344   1.838  16.209 -0.1950 -0.1005  0.5482
 3103TIP3    H130800   6.397   1.839  16.289  0.2458 -1.8564  0.3131
 3103TIP3    H230801   6.316   1.929  16.198  2.6409  0.8922  0.7569
 3104TIP3   OH230802   1.842   3.938  16.157  0.0689  0.9954 -0.3195
 3104TIP3    H130803   1.751   3.924  16.131  0.4229  0.1105 -1.1509
 3104TIP3    H230804   1.836   3.979  16.243 -1.1191  0.0192  0.1050
 3105TIP3   OH230805   1.469   2.447   1.162  0.7345  0.2125  0.1401
 3105TIP3    H130806   1.399   2.383   1.152  0.7608  0.1938  0.0698
 3105TIP3    H230807   1.452   2.513   1.095  0.3557  0.6113  0.6189
 3106TIP3   OH230808   1.118   1.204   3.570  0.4427 -0.6569  0.3217
 3106TIP3    H130809   1.103   1.175   3.660  0.5422 -0.6899  0.3274
 3106TIP3    H230810   1.117   1.299   3.576  0.0465 -0.6579  0.2912
 3107TIP3   OH230811   1.427   0.252   0.504  0.3479  0.1460  0.2887
 3107TIP3    H130812   1.439   0.259   0.409  1.3380  0.2656  0.4135
 3107TIP3    H230813   1.332   0.252   0.516  0.2046 -0.4109 -0.7389
 3108TIP3   OH230814   6.452   3.180  12.338  0.2576 -0.2535  0.5675
 3108TIP3    H130815   6.493   3.165  12.253  1.1939  0.8417  0.7986
 3108TIP3    H230816   6.389   3.250  12.322  1.5491  1.0726  1.0520
 3109TIP3   OH230817   5.208   1.988  14.004 -0.3718 -0.1358  0.9268
 3109TIP3    H130818   5.171   2.069  13.969  2.0756  0.8807  0.4829
 3109TIP3    H230819   5.186   1.990  14.097 -2.2129 -0.0974  0.5206
 3110TIP3   OH230820   0.232   0.190   2.720 -0.2060  0.1188  0.0291
 3110TIP3    H130821   0.210   0.279   2.692 -0.1963  0.6607  1.6158
 3110TIP3    H230822   0.149   0.151   2.745 -0.2648 -0.4907 -1.0597
 3111TIP3   OH230823   1.103   0.614  14.329  0.3459 -0.4339  0.2699
 3111TIP3    H130824   1.112   0.593  14.422  1.1442 -2.3200 -0.1920
 3111TIP3    H230825   1.145   0.542  14.284 -1.2382 -0.2564 -1.6169
 3112TIP3   OH230826   2.827   2.636   2.189 -0.3946 -0.4978 -0.5808
 3112TIP3    H130827   2.902   2.587   2.222  0.4035  1.5045  0.7470
 3112TIP3    H230828   2.835   2.631   2.094  2.3181  0.8425 -0.5196
 3113TIP3   OH230829   5.868   0.606  10.821  0.2143 -0.3762  0.2710
 3113TIP3    H130830   5.791   0.653  10.787  0.2510 -1.8748 -2.1412
 3113TIP3    H230831   5.831   0.533  10.871  0.1667  1.1613  2.6714
 3114TIP3   OH230832   0.647   1.419   4.271  0.3045 -0.3806  0.2705
 3114TIP3    H130833   0.727   1.387   4.312 -0.5869 -0.0932  2.3679
 3114TIP3    H230834   0.675   1.454   4.186  2.0475 -2.1172  0.0611
 3115TIP3   OH230835   0.743   4.096  12.675 -0.2828  1.0876  0.0094
 3115TIP3    H130836   0.825   4.049  12.688 -0.5674  0.0798 -1.5198
 3115TIP3    H230837   0.719   4.127  12.762  1.1879  0.5352  0.6518
 3116TIP3   OH230838   5.049   2.130  11.236  0.4213  0.6599  0.3304
 3116TIP3    H130839   5.100   2.052  11.213  0.4273  0.8076 -0.1678
 3116TIP3    H230840   4.958   2.103  11.229  0.3756  1.1785 -1.6636
 3117TIP3   OH230841   4.854   3.784   3.515 -0.1336  0.2156 -0.3174
 3117TIP3    H130842   4.899   3.844   3.574 -1.6817  0.9685  0.1612
 3117TIP3    H230843   4.835   3.837   3.438 -1.4934  0.3800  0.1015
 3118TIP3   OH230844   3.355   6.605   1.172  0.0087  0.0650 -0.3194
 3118TIP3    H130845   3.317   6.692   1.159 -0.5958  0.0966  1.4218
 3118TIP3    H230846   3.388   6.581   1.086 -0.0581  1.8947 -0.9144
 3119TIP3   OH230847   5.784   1.261   2.326  0.0174 -0.3634  0.4409
 3119TIP3    H130848   5.697   1.301   2.335  0.4932  0.4823  1.3668
 3119TIP3    H230849   5.778   1.211   2.244 -0.8142  1.0619 -0.4127
 3120TIP3   OH230850   6.055   0.209  12.968  1.6665 -0.4498  0.1299
 3120TIP3    H130851   6.107   0.198  12.889 -0.8609 -0.6010 -1.6454
 3120TIP3    H230852   6.010   0.293  12.957 -1.0808 -1.8384 -0.1727
 3121TIP3   OH230853   3.832   5.242  13.844 -0.2310  0.0966  0.3766
 3121TIP3    H130854   3.840   5.167  13.785 -0.2396  0.2766  0.1487
 3121TIP3    H230855   3.919   5.250  13.883  0.4605  1.3941 -1.3116
 3122TIP3   OH230856   1.683   0.149  12.996  0.9820 -0.4709 -0.0436
 3122TIP3    H130857   1.671   0.167  13.090  3.6751  0.1177  0.2762
 3122TIP3    H230858   1.661   0.232  12.954 -1.8982 -1.1955 -0.2162
 3123TIP3   OH230859   4.417   0.516  13.862  0.1616  0.6137  0.5204
 3123TIP3    H130860   4.328   0.493  13.887 -0.3128 -0.5261 -1.8977
 3123TIP3    H230861   4.419   0.505  13.767  3.2917 -0.8770  0.6249
 3124TIP3   OH230862   1.033   3.951   1.181  0.0154 -0.4724 -0.1534
 3124TIP3    H130863   1.015   3.858   1.165  0.7081 -0.5791 -0.3758
 3124TIP3    H230864   1.011   3.994   1.098  3.2383 -0.9737 -1.4262
 3125TIP3   OH230865   5.305   0.802  14.123 -0.2309  0.1248 -0.3744
 3125TIP3    H130866   5.251   0.747  14.180 -1.2154  1.3016 -0.1493
 3125TIP3    H230867   5.379   0.829  14.178 -0.7751  0.6271  0.1177
 3126TIP3   OH230868   2.207   2.276  12.766 -0.3798  0.1494 -0.0851
 3126TIP3    H130869   2.282   2.296  12.821 -1.2697  0.3968  1.0639
 3126TIP3    H230870   2.141   2.243  12.826 -1.2254  0.0158 -1.0652
 3127TIP3   OH230871   5.996   3.214   5.131 -0.2159  0.0475 -0.0035
 3127TIP3    H130872   5.956   3.178   5.210 -0.5801  1.1411  0.3337
 3127TIP3    H230873   5.923   3.257   5.085  0.1917  0.3173 -0.4071
 3128TIP3   OH230874   5.094   5.177  16.550 -0.1658  0.0413  0.5243
 3128TIP3    H130875   5.035   5.247  16.579  0.5314  0.5226  0.8108
 3128TIP3    H230876   5.180   5.204  16.582  0.1264 -0.9126  0.5638
 3129TIP3   OH230877   2.975   6.675  13.163 -0.2958  0.0871 -0.2747
 3129TIP3    H130878   3.048   6.614  13.150 -1.0325 -0.9336  0.2217
 3129TIP3    H230879   2.944   6.655  13.252 -2.1207 -0.5587 -1.0228
 3130TIP3   OH230880   2.489   0.113  11.830  0.4266  0.3531  0.0533
 3130TIP3    H130881   2.544   0.158  11.894  1.0425 -0.1685 -0.0991
 3130TIP3    H230882   2.533   0.126  11.746  0.1071  0.2658 -0.1332
 3131TIP3   OH230883   5.856   3.773   4.080 -0.0300  0.0638  0.4485
 3131TIP3    H130884   5.800   3.762   4.157 -1.4335 -2.3288 -0.7632
 3131TIP3    H230885   5.836   3.861   4.049 -0.0759  0.7529  2.3015
 3132TIP3   OH230886   5.748   5.200  13.969 -0.1662  0.1156  0.0849
 3132TIP3    H130887   5.794   5.267  14.019  0.0159 -0.3571  0.5644
 3132TIP3    H230888   5.696   5.153  14.034 -2.3269  1.4097 -0.6060
 3133TIP3   OH230889   5.995   0.708   4.528  0.7271 -0.2393  0.5093
 3133TIP3    H130890   6.018   0.636   4.470 -0.0132  0.2974 -0.4730
 3133TIP3    H230891   6.039   0.687   4.611  1.1149 -1.4363  0.0199
 3134TIP3   OH230892   6.829   3.869   2.339 -0.0063 -0.0245 -0.3973
 3134TIP3    H130893   6.810   3.782   2.306 -2.5980  0.4952 -0.4988
 3134TIP3    H230894   6.803   3.867   2.431  0.4267  0.4847 -0.2571
 3135TIP3   OH230895   1.428   6.316   1.528  0.4733  0.1306 -0.2654
 3135TIP3    H130896   1.366   6.273   1.471  1.6146 -0.8750 -0.7971
 3135TIP3    H230897   1.374   6.364   1.591 -0.8050  0.5368 -1.6147
 3136TIP3   OH230898   2.423   6.556   4.693 -0.1212  0.3529  0.2202
 3136TIP3    H130899   2.471   6.478   4.721  0.2491  0.5770  0.2260
 3136TIP3    H230900   2.349   6.523   4.642  0.5190  0.0222 -0.5174
 3137TIP3   OH230901   5.093   5.851   3.935 -0.3801  0.1685  0.3544
 3137TIP3    H130902   5.049   5.872   3.853  1.2585 -0.0467 -0.6142
 3137TIP3    H230903   5.114   5.936   3.974  0.5169  0.2806 -0.3775
 3138TIP3   OH230904   2.762   5.784  16.292  0.2456 -0.0985  0.7302
 3138TIP3    H130905   2.696   5.721  16.320  0.8968 -0.8327  0.6432
 3138TIP3    H230906   2.803   5.745  16.215  1.6524 -0.2610  1.5274
 3139TIP3   OH230907   3.476   1.502  10.588 -0.2803  0.2240  0.0187
 3139TIP3    H130908   3.559   1.532  10.624  1.5214 -1.4731 -2.4454
 3139TIP3    H230909   3.452   1.569  10.524  0.7174 -0.6384 -1.2998
 3140TIP3   OH230910   1.130   1.779  15.711 -0.2868 -0.5813  0.3522
 3140TIP3    H130911   1.095   1.752  15.626  0.8644  1.2664 -0.7768
 3140TIP3    H230912   1.076   1.853  15.737  1.6765  1.3214 -0.6793
 3141TIP3   OH230913   4.222   6.370  16.300 -0.4543 -1.0036  0.1994
 3141TIP3    H130914   4.314   6.396  16.291 -0.7367 -0.0066  0.0102
 3141TIP3    H230915   4.196   6.342  16.213 -0.1116 -2.0906  0.4317
 3142TIP3   OH230916   0.376   6.778   4.463  0.0641 -0.3061 -0.6160
 3142TIP3    H130917   0.336   6.747   4.545 -1.7429 -0.7995 -1.6322
 3142TIP3    H230918   0.459   6.731   4.458 -0.2075 -0.9547  0.4829
 3143TIP3   OH230919   1.123   3.952   4.844 -0.0541 -0.8629  0.1771
 3143TIP3    H130920   1.179   3.930   4.770  0.1132  0.9458 -0.2747
 3143TIP3    H230921   1.035   3.955   4.808 -0.3363 -2.6022  0.6504
 3144TIP3   OH230922   5.273   1.032  16.156  0.5032 -0.6548 -0.2694
 3144TIP3    H130923   5.301   0.964  16.217 -1.2019 -0.3524  0.9134
 3144TIP3    H230924   5.292   1.114  16.201  0.5491 -0.3914 -0.7657
 3145TIP3   OH230925   3.880   5.474   4.071  0.1509 -0.0934 -0.1039
 3145TIP3    H130926   3.967   5.433   4.070  0.2885  0.1722 -1.7594
 3145TIP3    H230927   3.845   5.458   3.983 -2.0471 -1.3562  0.9300
 3146TIP3   OH230928   6.796   2.451   4.411  0.5247 -0.9549  0.0172
 3146TIP3    H130929   6.863   2.385   4.430  0.3093 -0.5041  2.6030
 3146TIP3    H230930   6.739   2.450   4.488 -0.0702  1.5639 -0.3222
 3147TIP3   OH230931   4.624   1.446  13.511  0.3863 -0.3569 -0.1485
 3147TIP3    H130932   4.541   1.479  13.476  1.5399  2.2731 -0.6476
 3147TIP3    H230933   4.639   1.365  13.463 -0.8052  0.3063 -1.7408
 3148TIP3   OH230934   5.699   4.593   4.902 -0.3350  0.0116  0.1884
 3148TIP3    H130935   5.646   4.581   4.823  0.9232  0.5001 -0.7680
 3148TIP3    H230936   5.705   4.506   4.940 -0.4152 -0.3672 -0.6348
 3149TIP3   OH230937   2.375   0.104   0.111 -0.0253  0.6079 -0.3928
 3149TIP3    H130938   2.305   0.135   0.169 -0.6501  0.1286 -0.8799
 3149TIP3    H230939   2.336   0.102   0.024  0.7049  0.6661 -0.7341
 3150TIP3   OH230940   4.411   3.216   2.575 -0.1499 -0.2088 -0.6423
 3150TIP3    H130941   4.383   3.151   2.511 -0.0814 -1.6222  0.6991
 3150TIP3    H230942   4.333   3.269   2.591 -0.7690 -1.1827 -0.3526
 3151TIP3   OH230943   6.085   6.083  14.296  0.8740  0.6000 -0.3302
 3151TIP3    H130944   6.021   6.126  14.353 -0.7690 -0.8006 -1.0476
 3151TIP3    H230945   6.108   6.002  14.343  1.4409  0.6475 -0.5137
 3152TIP3   OH230946   3.414   5.870  12.309  0.2099 -0.1171 -0.4068
 3152TIP3    H130947   3.320   5.853  12.309  0.3479 -1.0978  1.0617
 3152TIP3    H230948   3.423   5.961  12.281 -1.2549  0.3509  0.5906
 3153TIP3   OH230949   5.010   1.099   2.043  0.1044  0.1507  0.1027
 3153TIP3    H130950   5.068   1.143   2.105  0.0427  2.1073 -1.1267
 3153TIP3    H230951   4.963   1.035   2.095  0.7856  1.0224  1.8670
 3154TIP3   OH230952   5.092   4.254  13.564 -0.2648  0.1772  0.2528
 3154TIP3    H130953   5.125   4.310  13.494 -1.8464 -0.6831 -1.2408
 3154TIP3    H230954   5.139   4.171  13.552 -1.1507 -0.2464 -0.3368
 3155TIP3   OH230955   6.297   4.169   2.701 -0.0246  0.0203 -0.0174
 3155TIP3    H130956   6.324   4.080   2.680  1.6403  0.1267  1.4333
 3155TIP3    H230957   6.202   4.164   2.710 -0.2853 -0.9937 -2.5853
 3156TIP3   OH230958   2.500   0.691  14.648 -0.2717  0.3420  0.2873
 3156TIP3    H130959   2.486   0.597  14.635 -0.3520  0.5273 -1.0958
 3156TIP3    H230960   2.591   0.697  14.677 -0.4701 -0.2035  1.0719
 3157TIP3   OH230961   4.565   2.396   3.836  0.0054  0.6229 -0.4692
 3157TIP3    H130962   4.580   2.316   3.886 -1.7395  0.9059  0.6001
 3157TIP3    H230963   4.548   2.365   3.747 -1.8862 -0.3379  0.1783
 3158TIP3   OH230964   2.397   5.702   0.742 -0.5081  0.1141 -0.0317
 3158TIP3    H130965   2.488   5.708   0.774 -0.8548  1.5063  0.7880
 3158TIP3    H230966   2.401   5.641   0.669  1.1057  0.1998 -0.0476
 3159TIP3   OH230967   2.012   1.518   0.784 -0.6236  0.3286  0.1355
 3159TIP3    H130968   1.970   1.590   0.738 -2.6823 -0.3348  0.8863
 3159TIP3    H230969   2.011   1.543   0.876 -1.0442 -0.4858  0.3648
 3160TIP3   OH230970   2.318   4.591   1.741  0.1311  0.4462 -0.0926
 3160TIP3    H130971   2.310   4.547   1.826 -2.2458  0.6074 -0.1707
 3160TIP3    H230972   2.372   4.668   1.758  0.2698  0.0967  1.1171
 3161TIP3   OH230973   6.503   0.638  15.121  0.4953  0.5424  0.4970
 3161TIP3    H130974   6.453   0.673  15.195  0.5235  2.5391 -0.3668
 3161TIP3    H230975   6.594   0.636  15.153  0.0720 -2.6889  1.9193
 3162TIP3   OH230976   0.089   3.097  16.563  0.3883  0.1141  0.4086
 3162TIP3    H130977   0.143   3.056  16.496  1.4751  0.3313  1.1302
 3162TIP3    H230978   0.151   3.128  16.628 -0.6777 -0.6659  1.8549
 3163TIP3   OH230979   4.954   3.983  16.899  0.3692  0.0072 -0.5090
 3163TIP3    H130980   4.895   4.045  16.857 -2.1737 -0.3841  2.1853
 3163TIP3    H230981   4.997   4.033  16.968 -0.7786 -0.8237  0.8817
 3164TIP3   OH230982   0.834   3.920   4.945  0.5244  0.1949  0.0386
 3164TIP3    H130983   0.807   3.828   4.944 -0.3326  0.4477 -0.2099
 3164TIP3    H230984   0.782   3.962   4.876  1.0464  0.8333  0.0169
 3165TIP3   OH230985   3.953   1.944   5.008  0.0091  0.0959 -0.0768
 3165TIP3    H130986   3.914   1.886   5.073 -0.8969  1.4273  0.6094
 3165TIP3    H230987   4.045   1.952   5.034  0.6457 -2.4054 -1.2287
 3166TIP3   OH230988   4.283   5.357   0.335 -0.1071 -0.3164 -0.1732
 3166TIP3    H130989   4.309   5.341   0.426 -0.2995  0.0710 -0.0494
 3166TIP3    H230990   4.195   5.395   0.341  0.5363  1.2853 -0.4214
 3167TIP3   OH230991   1.103   5.916  16.921  0.0905  0.3732 -0.3257
 3167TIP3    H130992   1.151   5.959  16.992  1.1595  0.6370 -1.1787
 3167TIP3    H230993   1.021   5.888  16.961  1.4684 -1.2926  1.5452
 3168TIP3   OH230994   4.686   5.950   0.232 -0.0971 -0.1665  0.0950
 3168TIP3    H130995   4.608   5.991   0.269  0.0010  0.9807 -0.8899
 3168TIP3    H230996   4.704   5.876   0.289 -1.7496 -0.2972  0.4896
 3169TIP3   OH230997   3.370   0.799  15.928 -0.2071  0.2749  0.7765
 3169TIP3    H130998   3.382   0.744  15.851  0.7470 -0.2244  1.2732
 3169TIP3    H230999   3.361   0.738  16.001 -0.2781  0.7575  1.1795
 3170TIP3   OH231000   3.289   0.407   2.852  0.3058 -0.2037 -0.0644
 3170TIP3    H131001   3.195   0.392   2.842  0.2499  0.3554 -0.4083
 3170TIP3    H231002   3.296   0.468   2.925  0.2203  1.6578 -1.5134
 3171TIP3   OH231003   1.591   2.598  11.802  0.1990  0.7315  0.3496
 3171TIP3    H131004   1.666   2.654  11.780 -0.9330  1.6495 -1.4219
 3171TIP3    H231005   1.607   2.517  11.754 -2.0028  2.5375 -3.9323
 3172TIP3   OH231006   4.277   4.183   2.630 -0.2046  0.0892 -0.2120
 3172TIP3    H131007   4.219   4.171   2.706  1.7336 -1.9981  1.0454
 3172TIP3    H231008   4.244   4.120   2.566 -0.0605 -0.2228  0.0208
 3173TIP3   OH231009   5.348   5.321  14.885 -0.4761  0.0560 -0.7293
 3173TIP3    H131010   5.347   5.274  14.969 -0.6890 -1.5562 -1.6077
 3173TIP3    H231011   5.440   5.342  14.871 -0.3230 -0.4223 -0.4796
 3174TIP3   OH231012   3.827   6.233  16.972 -0.1991 -0.0056 -0.7685
 3174TIP3    H131013   3.787   6.181  17.042 -2.0717 -0.7087 -2.2713
 3174TIP3    H231014   3.833   6.173  16.898  1.0705  0.9228 -1.4609
 3175TIP3   OH231015   3.292   5.233   4.321  0.0266 -0.4456 -0.1347
 3175TIP3    H131016   3.375   5.200   4.288 -0.3016 -0.9782 -0.4359
 3175TIP3    H231017   3.305   5.241   4.416 -0.6076 -3.7101  0.3434
 3176TIP3   OH231018   1.563   0.267   0.980  0.0711  0.1720  0.1256
 3176TIP3    H131019   1.492   0.253   1.043 -0.8511 -0.7453 -1.0829
 3176TIP3    H231020   1.603   0.349   1.008 -0.5183 -0.0418  1.7112
 3177TIP3   OH231021   5.537   2.481   5.497  0.2332 -0.1797  0.1183
 3177TIP3    H131022   5.592   2.553   5.529 -0.1276 -0.8291  2.4038
 3177TIP3    H231023   5.590   2.439   5.430  1.4157  0.8345  0.3681
 3178TIP3   OH231024   3.731   1.814   4.299  0.2415 -0.2889  0.6237
 3178TIP3    H131025   3.824   1.832   4.313  0.1537  0.6322  0.1223
 3178TIP3    H231026   3.728   1.770   4.214  0.0748  1.4290 -0.3067
 3179TIP3   OH231027   2.108   0.931   5.857 -0.3924  0.5015 -0.4170
 3179TIP3    H131028   2.015   0.945   5.839 -0.4413  0.2013 -0.3954
 3179TIP3    H231029   2.110   0.854   5.914  0.0951 -2.2167 -3.7916
 3180TIP3   OH231030   3.716   3.889   3.164  0.2990  0.1868 -0.1000
 3180TIP3    H131031   3.737   3.979   3.189  0.1144 -0.0452  0.9596
 3180TIP3    H231032   3.785   3.864   3.102  0.5109  0.9566 -0.1820
 3181TIP3   OH231033   4.740   5.134   2.408 -0.0884 -0.8903  0.4404
 3181TIP3    H131034   4.810   5.177   2.359 -1.5922 -0.3035 -1.3041
 3181TIP3    H231035   4.719   5.194   2.479 -0.8761  0.4260 -0.8557
 3182TIP3   OH231036   1.426   5.708   0.134 -0.4305  0.0428  0.5220
 3182TIP3    H131037   1.505   5.759   0.115 -0.8512  0.6889  0.4775
 3182TIP3    H231038   1.425   5.701   0.229 -2.0730  2.9699  0.8420
 3183TIP3   OH231039   1.169   4.826   1.272  0.2501 -0.6979  0.0051
 3183TIP3    H131040   1.230   4.767   1.318  3.5354  1.6124 -1.0078
 3183TIP3    H231041   1.118   4.866   1.343  1.5973 -0.9820  1.2011
 3184TIP3   OH231042   4.383   2.223   7.038 -0.3944 -0.1962 -0.3131
 3184TIP3    H131043   4.453   2.209   6.974  0.4512  1.8277  0.0860
 3184TIP3    H231044   4.331   2.295   7.001 -2.1254 -1.4442 -0.4375
 3185TIP3   OH231045   1.694   5.506  15.702 -0.0258  0.5083  0.0597
 3185TIP3    H131046   1.743   5.557  15.638  1.0940  1.6419  1.7413
 3185TIP3    H231047   1.760   5.456  15.749 -0.8885 -0.7720 -0.0399
 3186TIP3   OH231048   6.795   6.465   2.490  0.1633  0.0382 -0.0398
 3186TIP3    H131049   6.835   6.459   2.403 -0.6687 -2.3001 -0.3521
 3186TIP3    H231050   6.768   6.556   2.498  0.7182  0.4285 -2.0243
 3187TIP3   OH231051   5.002   0.186  14.334 -0.5032  0.7230 -0.4840
 3187TIP3    H131052   4.944   0.128  14.383  0.0185  1.5988  1.2852
 3187TIP3    H231053   4.949   0.264  14.316 -0.5353  0.6225 -0.8140
 3188TIP3   OH231054   6.375   6.000  14.356 -0.5248 -0.7844  0.4210
 3188TIP3    H131055   6.332   5.941  14.417  0.0270 -1.3416  0.2904
 3188TIP3    H231056   6.382   5.949  14.275 -1.1681 -0.0855 -0.0790
 3189TIP3   OH231057   6.613   2.493   2.936 -0.0968 -0.4167  0.1056
 3189TIP3    H131058   6.662   2.561   2.889 -0.9964 -0.1270 -0.4375
 3189TIP3    H231059   6.679   2.448   2.988  0.6667  0.2875 -0.2238
 3190TIP3   OH231060   4.835   0.236   1.988  0.1408 -0.5194 -0.1016
 3190TIP3    H131061   4.860   0.274   2.072 -0.3368 -1.6905  0.5829
 3190TIP3    H231062   4.744   0.207   2.000 -0.6049  1.0098 -1.6260
 3191TIP3   OH231063   3.127   2.940  13.880 -0.1205 -0.2342 -0.5001
 3191TIP3    H131064   3.212   2.914  13.845 -0.6508 -0.8470 -1.3627
 3191TIP3    H231065   3.063   2.903  13.820 -1.0490 -0.8144  0.7922
 3192TIP3   OH231066   4.586   5.246  15.481 -0.4336  0.3645 -0.6935
 3192TIP3    H131067   4.533   5.323  15.501 -0.3203  0.7202 -1.6967
 3192TIP3    H231068   4.529   5.172  15.502 -0.9221  0.7300 -0.7001
 3193TIP3   OH231069   5.453   3.542  15.488  0.3284  0.0567  0.1881
 3193TIP3    H131070   5.524   3.477  15.485 -0.2641 -0.6642  1.1698
 3193TIP3    H231071   5.428   3.554  15.396  1.3247 -0.1177 -0.1173
 3194TIP3   OH231072   4.914   5.996  13.055 -0.0536 -0.1938 -0.2552
 3194TIP3    H131073   4.970   6.051  13.001  0.5478 -0.3840  0.1615
 3194TIP3    H231074   4.964   5.914  13.064  0.6468  0.4251  1.9734
 3195TIP3   OH231075   2.280   6.434   5.728  0.1031  0.4488 -0.0507
 3195TIP3    H131076   2.335   6.356   5.741 -1.1445 -0.1155  2.1603
 3195TIP3    H231077   2.207   6.403   5.675  0.6230  0.6210 -0.8884
 3196TIP3   OH231078   2.542   0.259  13.730  0.1116  0.5613 -0.1369
 3196TIP3    H131079   2.564   0.195  13.797 -0.4998 -0.8783 -1.2668
 3196TIP3    H231080   2.593   0.233  13.654 -0.7433  0.9365 -0.8572
 3197TIP3   OH231081   5.884   4.540   0.552 -0.3043 -0.7261 -0.1224
 3197TIP3    H131082   5.937   4.485   0.494  0.9217  0.8979 -0.6324
 3197TIP3    H231083   5.877   4.623   0.506  0.5450  0.5721  1.9235
 3198TIP3   OH231084   0.584   6.648  15.052  0.0572 -1.2143 -0.1065
 3198TIP3    H131085   0.543   6.575  15.098 -0.9141 -0.7263 -0.1616
 3198TIP3    H231086   0.674   6.620  15.038  0.7021 -1.0174  2.9359
 3199TIP3   OH231087   6.382   2.588   4.815  0.1644 -0.0835 -0.4199
 3199TIP3    H131088   6.448   2.646   4.777  0.5788 -0.4849 -0.3183
 3199TIP3    H231089   6.340   2.547   4.739 -1.1104  1.3782 -0.5690
 3200TIP3   OH231090   5.101   2.363   5.164 -0.0888  0.1789 -0.1434
 3200TIP3    H131091   5.014   2.401   5.157 -1.0409 -1.7962  0.4098
 3200TIP3    H231092   5.128   2.381   5.255  0.3819  1.3352 -0.4929
 3201TIP3   OH231093   6.562   5.763   1.166 -0.0121 -0.0128 -0.4368
 3201TIP3    H131094   6.633   5.825   1.184  0.2537 -0.2687 -0.6050
 3201TIP3    H231095   6.600   5.698   1.108 -0.4425 -0.0383 -0.6996
 3202TIP3   OH231096   4.741   3.778  11.489  0.4396  0.2414 -0.2459
 3202TIP3    H131097   4.824   3.731  11.482  0.8623  1.1264 -1.5220
 3202TIP3    H231098   4.674   3.713  11.469  0.8626 -0.3368  0.2051
 3203TIP3   OH231099   2.635   2.338  16.088 -0.5774  0.5233 -0.2537
 3203TIP3    H131100   2.566   2.319  16.151  0.8297 -0.7254  1.0059
 3203TIP3    H231101   2.627   2.269  16.022 -0.7451  0.5684 -0.2793
 3204TIP3   OH231102   4.235   1.584   5.131 -0.7024  0.0177  0.1033
 3204TIP3    H131103   4.287   1.641   5.074 -1.9325 -0.9693 -2.1040
 3204TIP3    H231104   4.194   1.645   5.193 -0.5152  1.3392 -1.0053
 3205TIP3   OH231105   2.362   2.408  11.560  0.0617  0.3162 -0.4154
 3205TIP3    H131106   2.349   2.373  11.472  2.4997  1.3932 -1.2869
 3205TIP3    H231107   2.288   2.468  11.572 -0.3901  0.0550 -1.6677
 3206TIP3   OH231108   0.773   2.862  13.861 -0.1443 -0.2730  0.1462
 3206TIP3    H131109   0.699   2.839  13.805  0.3102 -1.1081 -0.1117
 3206TIP3    H231110   0.780   2.790  13.923  0.3887 -0.1391  0.2454
 3207TIP3   OH231111   5.749   1.870  17.107 -1.0263  0.2689 -0.2396
 3207TIP3    H131112   5.711   1.834  17.026 -1.7371  0.8073 -0.1499
 3207TIP3    H231113   5.836   1.829  17.112 -1.0923 -0.0103 -1.1129
 3208TIP3   OH231114   4.861   3.357   0.017 -0.3107 -0.4161 -0.2199
 3208TIP3    H131115   4.946   3.390  -0.012 -0.9625  1.6426  0.0274
 3208TIP3    H231116   4.858   3.377   0.111 -0.5156 -1.8154  0.1031
 3209TIP3   OH231117   0.511   0.945   2.714  0.5902  0.5939 -0.1305
 3209TIP3    H131118   0.480   1.035   2.702 -1.3481 -0.2008 -1.5139
 3209TIP3    H231119   0.525   0.938   2.809  2.5306  2.8392 -0.1445
 3210TIP3   OH231120   6.040   4.095  12.207  0.1754  0.0371  0.2581
 3210TIP3    H131121   6.101   4.047  12.151  0.7023 -0.2577  1.0515
 3210TIP3    H231122   5.984   4.027  12.245  0.3456  0.1396  0.6996
 3211TIP3   OH231123   0.981   1.542  12.943  0.2243 -0.0268  0.2752
 3211TIP3    H131124   0.906   1.571  12.891  0.2279 -1.0237 -0.3222
 3211TIP3    H231125   1.012   1.621  12.988 -0.3987  0.6500 -0.4620
 3212TIP3   OH231126   3.179   5.615   4.452  0.1633  0.3396 -0.0306
 3212TIP3    H131127   3.174   5.711   4.454 -1.5267  0.2742  0.0050
 3212TIP3    H231128   3.189   5.589   4.543  2.0528  0.5131 -0.1563
 3213TIP3   OH231129   3.445   1.941  15.604 -0.2980 -0.3263  0.3374
 3213TIP3    H131130   3.410   1.951  15.515 -0.2622 -1.0637  0.2387
 3213TIP3    H231131   3.425   1.851  15.627  0.4441 -0.3812  0.7648
 3214TIP3   OH231132   5.998   1.745  16.644 -0.1003  0.1147  0.3537
 3214TIP3    H131133   6.016   1.739  16.738 -0.8197  0.3775  0.5126
 3214TIP3    H231134   6.024   1.659  16.609 -3.3215 -1.4657  1.4148
 3215TIP3   OH231135   5.972   5.807  12.754  0.0257 -0.2449  0.2417
 3215TIP3    H131136   5.969   5.884  12.811 -1.0215 -1.0804  1.3577
 3215TIP3    H231137   6.049   5.822  12.699 -0.7407  2.0973 -0.3127
 3216TIP3   OH231138   0.249   2.851   3.741  0.3344 -0.2893  0.0881
 3216TIP3    H131139   0.206   2.936   3.739 -0.4359 -0.6801 -0.0303
 3216TIP3    H231140   0.234   2.818   3.829  0.5055 -0.3730  0.0875
 3217TIP3   OH231141   2.968   3.852   1.143 -0.4908 -0.0108  0.1597
 3217TIP3    H131142   2.941   3.775   1.193  1.8806 -0.6001  0.6358
 3217TIP3    H231143   2.936   3.927   1.194  1.3020 -0.6067  2.2857
 3218TIP3   OH231144   5.925   0.807   1.751 -0.0865  0.6801 -0.1505
 3218TIP3    H131145   5.863   0.881   1.749 -0.7297  0.1535 -0.0422
 3218TIP3    H231146   5.908   0.760   1.670 -0.2316  0.2148  0.1453
 3219TIP3   OH231147   3.454   2.434  16.683  0.4350  0.2916 -0.4663
 3219TIP3    H131148   3.448   2.486  16.603  1.0357  0.2618 -0.5325
 3219TIP3    H231149   3.508   2.486  16.742 -1.3288  1.0866  0.5511
 3220TIP3   OH231150   1.248   4.916   2.634 -0.0341  0.1980  0.1700
 3220TIP3    H131151   1.199   4.845   2.675 -1.3315 -0.6327 -2.6204
 3220TIP3    H231152   1.182   4.984   2.618  0.8467  1.3300  1.1761
 3221TIP3   OH231153   5.781   0.014  13.038 -0.0730 -0.2096 -0.4132
 3221TIP3    H131154   5.856   0.029  12.981  0.7993  0.8101  0.9265
 3221TIP3    H231155   5.759   0.101  13.071 -0.0450 -0.8472  1.3852
 3222TIP3   OH231156   0.810   6.489   5.615  0.1696  0.1481 -0.0784
 3222TIP3    H131157   0.767   6.471   5.699  0.1795 -1.3772 -0.3790
 3222TIP3    H231158   0.892   6.532   5.639 -0.0001  0.0674  0.6819
 3223TIP3   OH231159   4.350   3.078   2.944  0.4438  0.1135  0.2005
 3223TIP3    H131160   4.352   3.006   3.007  0.9404 -0.5986 -0.6091
 3223TIP3    H231161   4.415   3.054   2.878 -0.3164  0.6646 -0.7736
 3224TIP3   OH231162   1.823   0.280   1.990 -0.0122  0.0801 -0.3842
 3224TIP3    H131163   1.859   0.273   1.901 -0.9763  0.2322 -0.7965
 3224TIP3    H231164   1.785   0.194   2.007  0.8114 -0.1818  0.1763
 3225TIP3   OH231165   3.016   0.833  10.158  0.4700 -0.0912  0.4478
 3225TIP3    H131166   3.075   0.892  10.112  0.2627  0.3517  0.7439
 3225TIP3    H231167   2.934   0.838  10.110  0.7260 -0.8810 -0.0999
 3226TIP3   OH231168   4.298   0.050  15.022 -0.1409  0.1757 -0.4703
 3226TIP3    H131169   4.359   0.122  15.006 -0.7593  0.4565 -1.6924
 3226TIP3    H231170   4.262   0.068  15.109  2.1380 -0.4839  0.6770
 3227TIP3   OH231171   4.427   6.293  12.747 -0.0004  0.8539  0.5334
 3227TIP3    H131172   4.501   6.232  12.744 -0.6090  0.1198  0.2898
 3227TIP3    H231173   4.459   6.371  12.701  0.4495  0.3490 -0.0317
 3228TIP3   OH231174   2.895   4.576   3.040 -0.2136  0.1531 -0.2683
 3228TIP3    H131175   2.938   4.550   2.959  3.5015  0.0554  1.5255
 3228TIP3    H231176   2.887   4.494   3.090  0.0378  0.5889  0.5036
 3229TIP3   OH231177   2.728   1.004  14.666 -0.1013 -0.1908 -0.4019
 3229TIP3    H131178   2.708   1.039  14.579  0.6467 -1.3270 -1.0618
 3229TIP3    H231179   2.823   1.017  14.676  0.4269 -2.8846 -1.1383
 3230TIP3   OH231180   6.665   3.357   4.643 -0.5384  0.3809 -0.2752
 3230TIP3    H131181   6.627   3.319   4.723 -0.4468  0.4542 -0.1963
 3230TIP3    H231182   6.625   3.307   4.572 -1.2200  0.8364 -0.2168
 3231TIP3   OH231183   2.878   2.477   3.819 -0.4950 -0.4527 -0.4175
 3231TIP3    H131184   2.933   2.399   3.809 -0.3479 -0.4879  0.5189
 3231TIP3    H231185   2.914   2.540   3.757  1.2962 -0.1112  0.8724
 3232TIP3   OH231186   1.815   3.647  14.065  0.7212 -0.1278 -0.3715
 3232TIP3    H131187   1.766   3.565  14.066  0.3499  0.0919 -0.3046
 3232TIP3    H231188   1.893   3.629  14.117  0.8906 -0.5861 -0.7746
 3233TIP3   OH231189   0.649   0.687  11.452  0.0502  0.2486  0.1024
 3233TIP3    H131190   0.728   0.655  11.495  1.0176  2.3780  0.0519
 3233TIP3    H231191   0.665   0.672  11.359  1.2876  2.3482 -0.0763
 3234TIP3   OH231192   0.743   1.043   4.239 -0.1301 -0.2543 -0.2250
 3234TIP3    H131193   0.764   0.980   4.170  1.4154  0.1518 -0.1612
 3234TIP3    H231194   0.731   0.990   4.318 -0.7727 -0.6222 -0.5609
 3235TIP3   OH231195   6.334   0.845  10.146 -0.0509 -0.2500 -0.4612
 3235TIP3    H131196   6.357   0.932  10.178 -0.1851 -1.0925  2.2572
 3235TIP3    H231197   6.240   0.848  10.131 -0.1774 -0.0969  0.3240
 3236TIP3   OH231198   0.147   3.691   5.209 -0.0527  0.0523  0.0410
 3236TIP3    H131199   0.064   3.720   5.172 -0.4221  0.0058  0.8117
 3236TIP3    H231200   0.155   3.600   5.181 -0.9926 -0.4024  1.1785
 3237TIP3   OH231201   2.766   0.206  15.355 -0.9021  0.9981 -1.0830
 3237TIP3    H131202   2.778   0.295  15.388 -1.8062  0.8665 -0.3462
 3237TIP3    H231203   2.681   0.208  15.311 -1.4583  0.2295 -0.0741
 3238TIP3   OH231204   6.507   4.291  12.340  0.2888  0.2267 -0.0826
 3238TIP3    H131205   6.498   4.266  12.432  2.4418 -1.1759 -0.1822
 3238TIP3    H231206   6.476   4.215  12.292 -2.1610  1.4772 -0.6055
 3239TIP3   OH231207   2.182   4.218   1.448  0.1553 -0.5645 -0.2803
 3239TIP3    H131208   2.182   4.266   1.365  1.1025 -0.9897 -0.5300
 3239TIP3    H231209   2.231   4.273   1.508 -1.3700  0.2259  0.3125
 3240TIP3   OH231210   2.281   3.978  14.251 -0.4197  0.6582  0.2518
 3240TIP3    H131211   2.192   4.000  14.225 -0.5566  1.5601  1.3923
 3240TIP3    H231212   2.336   4.040  14.202 -0.3958 -0.0231 -0.5943
 3241TIP3   OH231213   6.118   1.956  16.502 -0.3594 -0.1130 -0.0796
 3241TIP3    H131214   6.034   2.001  16.496 -0.9579 -1.3650 -1.7446
 3241TIP3    H231215   6.098   1.874  16.548  0.4934  0.6768  1.8448
 3242TIP3   OH231216   4.213   4.865  15.542  0.1554  0.2101  0.5443
 3242TIP3    H131217   4.199   4.902  15.629 -1.8152  2.2168 -0.5181
 3242TIP3    H231218   4.138   4.808  15.528  1.7761 -2.1945  1.0736
 3243TIP3   OH231219   0.058   3.566   2.478  0.2596  0.4228  0.4545
 3243TIP3    H131220  -0.034   3.541   2.476  0.2825  0.2660  1.1735
 3243TIP3    H231221   0.083   3.559   2.570  1.2817 -0.5786  0.1238
 3244TIP3   OH231222   5.462   2.196   4.615  0.2051  0.3593 -0.0265
 3244TIP3    H131223   5.509   2.136   4.672  0.5925  1.8225  1.2865
 3244TIP3    H231224   5.512   2.198   4.534  1.1693  0.2187  0.5573
 3245TIP3   OH231225   0.719   1.482  16.659  0.3909 -0.3878 -0.1966
 3245TIP3    H131226   0.632   1.521  16.655  0.4175 -0.3204 -0.1144
 3245TIP3    H231227   0.750   1.499  16.748  1.6187  2.0399 -0.9935
 3246TIP3   OH231228   4.559   2.684  15.121  0.0725  0.8159  0.0658
 3246TIP3    H131229   4.467   2.657  15.113  0.1030  1.0099 -1.1023
 3246TIP3    H231230   4.572   2.697  15.215 -0.8111 -0.2095  0.3500
 3247TIP3   OH231231   1.388   5.053   2.915  0.2499  0.5831 -0.4658
 3247TIP3    H131232   1.302   5.020   2.941  0.1148  0.3435 -1.1962
 3247TIP3    H231233   1.424   5.090   2.995 -0.8665  1.4139 -0.3172
 3248TIP3   OH231234   1.996   1.543   5.620  0.4485  0.5233  0.4770
 3248TIP3    H131235   1.958   1.627   5.597  1.2971  0.0451 -3.3282
 3248TIP3    H231236   1.925   1.495   5.663 -1.2990  1.7999 -0.8817
 3249TIP3   OH231237   2.829   6.741   0.616 -0.2485  0.2458  0.0632
 3249TIP3    H131238   2.818   6.746   0.522 -2.8725  1.8140  0.3690
 3249TIP3    H231239   2.795   6.655   0.640  0.0244  0.0188 -0.3606
 3250TIP3   OH231240   2.408   3.305   4.340  0.3816  0.3786 -0.0456
 3250TIP3    H131241   2.342   3.236   4.330 -0.1019  0.8676 -0.3178
 3250TIP3    H231242   2.361   3.386   4.317  0.7692  0.8712  0.8409
 3251TIP3   OH231243   0.652   0.249   0.216 -0.6528 -0.1974 -0.4175
 3251TIP3    H131244   0.704   0.173   0.190 -0.8242  0.0378 -1.4825
 3251TIP3    H231245   0.629   0.292   0.134 -2.2193 -0.0903  0.0391
 3252TIP3   OH231246   0.115   1.174   3.352 -0.3651 -0.1390  0.0506
 3252TIP3    H131247   0.099   1.092   3.398  0.8752 -0.3262  0.2023
 3252TIP3    H231248   0.087   1.157   3.262 -0.3079 -0.6696  0.1281
 3253TIP3   OH231249   0.964   0.667  14.863  0.9596 -0.0230  1.0051
 3253TIP3    H131250   1.018   0.680  14.941  0.7866  0.6847  1.0108
 3253TIP3    H231251   0.902   0.598  14.888  1.4053 -0.3518  1.2259
 3254TIP3   OH231252   6.582   2.825   3.282 -1.0953 -0.0657 -0.7126
 3254TIP3    H131253   6.529   2.774   3.220 -1.8349 -2.0101  1.3931
 3254TIP3    H231254   6.520   2.886   3.322 -1.1759 -0.5041 -0.1582
 3255TIP3   OH231255   2.594   1.063  15.729 -0.0542 -0.1070 -0.2986
 3255TIP3    H131256   2.611   1.021  15.814  0.8076  0.1986 -0.3113
 3255TIP3    H231257   2.581   1.155  15.749 -0.6087 -0.1510 -0.4258
 3256TIP3   OH231258   6.353   0.451  16.521 -0.0134  0.3188  0.0268
 3256TIP3    H131259   6.433   0.439  16.573  1.5212 -0.9620 -2.4348
 3256TIP3    H231260   6.308   0.366  16.527 -2.0183  1.3955  2.4395
 3257TIP3   OH231261   1.815   2.800   3.114 -0.4469  0.1784  0.1004
 3257TIP3    H131262   1.906   2.824   3.099 -0.4793  0.2873  0.0808
 3257TIP3    H231263   1.818   2.707   3.138 -0.3569  0.1132 -0.1701
 3258TIP3   OH231264   1.498   0.736   5.881  0.3826  0.6963  0.3338
 3258TIP3    H131265   1.564   0.667   5.878  1.3266  1.5833  0.1692
 3258TIP3    H231266   1.478   0.746   5.974  0.6826  0.6125  0.4087
 3259TIP3   OH231267   1.781   3.928   0.502 -0.0742  0.4458 -0.6569
 3259TIP3    H131268   1.695   3.917   0.542  0.1601  1.4144  0.1445
 3259TIP3    H231269   1.830   3.850   0.529 -0.6533 -0.0819 -1.0656
 3260TIP3   OH231270   2.786   5.940   1.002  0.1140  0.2639 -0.2983
 3260TIP3    H131271   2.865   5.886   1.001  0.9398  1.4088  0.4249
 3260TIP3    H231272   2.777   5.972   0.912  0.9067  0.7078 -0.2284
 3261TIP3   OH231273   3.642   2.881  12.762 -0.0325  0.3838 -0.2565
 3261TIP3    H131274   3.630   2.965  12.717 -1.8816  0.0818 -0.4132
 3261TIP3    H231275   3.678   2.823  12.695 -0.3187  0.6325 -0.6341
 3262TIP3   OH231276   5.251   5.326   4.901 -0.2035 -0.0966 -0.2763
 3262TIP3    H131277   5.257   5.415   4.868 -0.0269  0.2570  0.6620
 3262TIP3    H231278   5.269   5.271   4.825  2.1433  0.7163 -0.4001
 3263TIP3   OH231279   6.616   0.276  11.656  0.1325  0.5433 -0.8654
 3263TIP3    H131280   6.551   0.207  11.653  1.1108 -0.4787  0.3554
 3263TIP3    H231281   6.663   0.268  11.573  0.4050 -0.4635 -0.6321
 3264TIP3   OH231282   1.215   6.584  12.354  0.0896  0.4239  0.1937
 3264TIP3    H131283   1.151   6.513  12.362 -0.7083  1.1869  0.7795
 3264TIP3    H231284   1.279   6.551  12.291  1.0686 -1.7968  2.1605
 3265TIP3   OH231285   4.064   0.312   1.369 -0.2303  0.8350 -0.3360
 3265TIP3    H131286   4.062   0.377   1.300  0.3647  2.0835  0.7800
 3265TIP3    H231287   4.146   0.329   1.416 -0.5602 -0.0453  0.6011
 3266TIP3   OH231288   2.827   1.208  12.892 -0.0941  0.0236  0.3828
 3266TIP3    H131289   2.876   1.131  12.922 -0.9337 -1.3285 -1.4865
 3266TIP3    H231290   2.736   1.180  12.891 -0.2583  0.4836 -1.8303
 3267TIP3   OH231291   3.721   2.823   1.510  0.6922  0.0476  0.3408
 3267TIP3    H131292   3.791   2.856   1.566 -0.6975 -1.0548  2.8526
 3267TIP3    H231293   3.728   2.728   1.516  0.7615 -0.1491 -1.8148
 3268TIP3   OH231294   2.846   2.684  16.660  0.0274 -0.7473 -0.3304
 3268TIP3    H131295   2.938   2.673  16.687 -0.1185 -0.8945  0.1125
 3268TIP3    H231296   2.839   2.633  16.579 -0.2950 -2.9199  0.9766
 3269TIP3   OH231297   0.270   4.206  12.178  0.1587 -0.0106 -0.3844
 3269TIP3    H131298   0.184   4.204  12.221  0.1728 -1.0137 -0.3719
 3269TIP3    H231299   0.270   4.128  12.121  0.8293  0.3142 -0.8457
 3270TIP3   OH231300   2.794   4.528  15.894 -0.2331 -0.3436 -0.0446
 3270TIP3    H131301   2.699   4.530  15.881 -0.4446  1.0333  1.4155
 3270TIP3    H231302   2.817   4.436  15.884 -1.5194 -0.5380 -1.6235
 3271TIP3   OH231303   2.120   6.410  16.064  0.1785  0.1503  0.7300
 3271TIP3    H131304   2.025   6.398  16.060  0.3947 -2.0894  0.8226
 3271TIP3    H231305   2.138   6.420  16.158  0.2436 -2.4873  1.0913
 3272TIP3   OH231306   6.793   3.721   3.558  0.1278 -0.7520 -0.4338
 3272TIP3    H131307   6.883   3.740   3.531  0.6998 -2.6632  0.0343
 3272TIP3    H231308   6.758   3.666   3.488 -0.9067  0.4388 -0.8987
 3273TIP3   OH231309   6.794   3.360   3.499 -0.3609  0.1903 -0.9588
 3273TIP3    H131310   6.871   3.339   3.446  0.8979  2.1488 -0.0562
 3273TIP3    H231311   6.738   3.411   3.440 -0.2064  0.1081 -1.1800
 3274TIP3   OH231312   3.141   0.738   3.141  0.0071  0.0713 -0.1696
 3274TIP3    H131313   3.101   0.686   3.211 -0.3265  0.8569  0.2353
 3274TIP3    H231314   3.088   0.817   3.136 -1.1177 -0.7269 -2.5732
 3275TIP3   OH231315   3.642   0.238  13.216  0.0398 -0.1340 -0.0638
 3275TIP3    H131316   3.583   0.241  13.291 -0.8870  1.8299 -0.7950
 3275TIP3    H231317   3.605   0.170  13.159 -0.3910 -0.2657  0.3677
 3276TIP3   OH231318   2.646   1.812  12.543  0.1016  0.1038  0.0653
 3276TIP3    H131319   2.655   1.901  12.508  1.9099 -0.4190 -0.9328
 3276TIP3    H231320   2.705   1.759  12.490  1.6118 -1.1091  2.7632
 3277TIP3   OH231321   6.113   2.687  14.336 -0.0937 -0.1888  0.3581
 3277TIP3    H131322   6.159   2.653  14.259  0.4262  0.4080  0.3927
 3277TIP3    H231323   6.026   2.647  14.332  1.1559 -3.3361  1.6246
 3278TIP3   OH231324   0.319   1.057   0.967 -0.5252 -0.5522  0.5560
 3278TIP3    H131325   0.246   0.998   0.985  1.1458 -2.8314  0.4150
 3278TIP3    H231326   0.355   1.077   1.053 -1.8800  1.4746  0.7192
 3279TIP3   OH231327   2.452   5.660  12.085  0.0498  0.0313 -0.0374
 3279TIP3    H131328   2.357   5.649  12.091 -0.2146  1.9867 -0.0407
 3279TIP3    H231329   2.476   5.615  12.005 -0.7323 -1.2013  0.3854
 3280TIP3   OH231330   2.735   5.291  11.470 -0.5137  0.2778 -0.6592
 3280TIP3    H131331   2.694   5.290  11.383 -0.3617  0.7129 -0.7370
 3280TIP3    H231332   2.769   5.202  11.481  0.8221  0.6092 -1.7049
 3281TIP3   OH231333   2.105   5.338  13.180 -0.3949  0.3543  0.3981
 3281TIP3    H131334   2.154   5.354  13.261 -0.1705  0.5731  0.2220
 3281TIP3    H231335   2.059   5.255  13.195  0.0680  0.1225  0.5497
 3282TIP3   OH231336   4.084   2.789  11.208 -0.8639  0.5808 -1.1570
 3282TIP3    H131337   4.054   2.757  11.293  1.6230 -0.0994 -0.4696
 3282TIP3    H231338   4.086   2.711  11.153  0.2583  0.4829 -0.9895
 3283TIP3   OH231339   4.630   0.525   2.287  0.1157 -1.0277 -0.3331
 3283TIP3    H131340   4.549   0.517   2.337 -0.8926  0.8664 -1.5400
 3283TIP3    H231341   4.690   0.571   2.346 -0.1972 -1.0746  0.0241
 3284TIP3   OH231342   2.471   6.194   4.113  0.3968 -0.3427 -0.5128
 3284TIP3    H131343   2.495   6.115   4.064 -0.8797 -1.1185  0.0696
 3284TIP3    H231344   2.469   6.166   4.205 -1.0642  0.0691 -0.3875
 3285TIP3   OH231345   3.995   6.047  15.093  0.1672 -0.1782 -0.0034
 3285TIP3    H131346   3.970   6.031  15.003 -0.5941 -2.2323  0.5290
 3285TIP3    H231347   4.079   6.092  15.087 -1.6467  3.3769 -1.7733
 3286TIP3   OH231348   3.051   2.269  15.530 -0.2168  0.0187  0.1905
 3286TIP3    H131349   3.098   2.351  15.514 -0.8610  0.8667  2.3518
 3286TIP3    H231350   3.002   2.254  15.449  1.6289  0.5213 -1.1027
 3287TIP3   OH231351   1.388   2.545   1.552  0.4875  0.3140  0.3036
 3287TIP3    H131352   1.324   2.475   1.540  1.3492 -0.4578  0.0095
 3287TIP3    H231353   1.363   2.587   1.634 -0.5746  0.2468  0.0288
 3288TIP3   OH231354   3.662   5.944   3.712  0.2223  0.1303  0.2491
 3288TIP3    H131355   3.712   6.026   3.713  0.2063  0.1630 -0.6068
 3288TIP3    H231356   3.578   5.966   3.753 -0.1974  0.8309 -0.9534
 3289TIP3   OH231357   0.553   1.887   2.255 -0.1268 -0.0364  0.5213
 3289TIP3    H131358   0.523   1.858   2.341  0.5027 -2.2171  0.0547
 3289TIP3    H231359   0.513   1.826   2.193  0.3961  0.7642 -0.6418
 3290TIP3   OH231360   6.059   5.750   3.546 -0.2532  0.1914  0.3607
 3290TIP3    H131361   6.093   5.661   3.556 -0.7760 -0.4189 -2.5108
 3290TIP3    H231362   5.965   5.739   3.532 -0.3735  1.2210  0.2950
 3291TIP3   OH231363   3.261   3.516  13.672 -0.1159  0.2571 -0.0967
 3291TIP3    H131364   3.295   3.522  13.583 -0.1285 -2.7760 -0.4008
 3291TIP3    H231365   3.171   3.487  13.661 -0.0317 -0.4164  0.8909
 3292TIP3   OH231366   4.195   4.016  13.965  0.1776 -0.1312 -0.3107
 3292TIP3    H131367   4.287   4.040  13.959  0.4329 -1.0585 -0.3380
 3292TIP3    H231368   4.152   4.093  14.001  0.4701  1.4150 -2.9906
 3293TIP3   OH231369   3.796   2.950  14.246  0.3017 -0.2775 -0.1960
 3293TIP3    H131370   3.883   2.937  14.206 -0.3466  0.9238 -2.1535
 3293TIP3    H231371   3.755   2.863  14.242  1.3531 -0.8435  0.6818
 3294TIP3   OH231372   4.344   0.693   0.353  0.0104  0.2585  0.1109
 3294TIP3    H131373   4.295   0.764   0.395 -0.6580 -0.5909  0.8081
 3294TIP3    H231374   4.339   0.621   0.415  1.8491  0.0165  0.0311
 3295TIP3   OH231375   2.718   5.895  13.988 -0.6268 -0.3946  0.5615
 3295TIP3    H131376   2.792   5.944  14.026  0.1473  0.6390 -2.0294
 3295TIP3    H231377   2.641   5.943  14.017 -0.1472 -0.2116  1.5843
 3296TIP3   OH231378   3.611   2.594   2.862  0.1675  0.3028 -0.5731
 3296TIP3    H131379   3.518   2.579   2.842 -0.1701  2.3025 -0.6283
 3296TIP3    H231380   3.610   2.633   2.950  0.9551  0.4322 -0.6179
 3297TIP3   OH231381   0.323   5.680   5.670 -0.0800  0.2719 -0.5874
 3297TIP3    H131382   0.258   5.733   5.715  0.2948  0.5784 -0.4041
 3297TIP3    H231383   0.390   5.663   5.735 -0.7663 -1.4628 -0.2830
 3298TIP3   OH231384   5.421   5.060  12.613  0.7764 -0.1086 -0.0894
 3298TIP3    H131385   5.451   5.113  12.539 -0.8878  0.6388 -0.2725
 3298TIP3    H231386   5.477   5.087  12.686  0.3434  1.4901 -0.3212
 3299TIP3   OH231387   6.007   3.074  11.125  0.0728  0.4974 -0.5238
 3299TIP3    H131388   6.038   2.990  11.092  1.0116  0.3668  0.5869
 3299TIP3    H231389   5.914   3.061  11.143 -0.5247  0.6340 -3.1505
 3300TIP3   OH231390   1.597   2.300   2.992  0.0685 -0.2154 -0.1891
 3300TIP3    H131391   1.601   2.395   2.982 -1.0979 -0.1803 -0.4298
 3300TIP3    H231392   1.688   2.271   2.985  0.3504  0.8061 -0.9059
 3301TIP3   OH231393   0.407   6.565   2.828 -0.0878  0.4032 -0.6824
 3301TIP3    H131394   0.411   6.520   2.744  0.1152 -0.2123 -0.3488
 3301TIP3    H231395   0.464   6.513   2.886 -0.3300  0.7427 -0.1326
 3302TIP3   OH231396   6.327   0.038   1.013  0.4257  0.3149  0.4802
 3302TIP3    H131397   6.340   0.055   1.106 -1.3087  0.8553  0.6661
 3302TIP3    H231398   6.340  -0.056   1.003  2.0315  0.4657  0.9844
 3303TIP3   OH231399   5.356   2.421  15.893 -1.0772  0.4362  0.2594
 3303TIP3    H131400   5.357   2.468  15.809  1.1700  0.7914  0.4012
 3303TIP3    H231401   5.412   2.345  15.878  1.1808  1.6335  1.9338
 3304TIP3   OH231402   2.449   3.693   2.585 -0.4429  0.1000 -0.0725
 3304TIP3    H131403   2.427   3.675   2.494  0.1399 -0.0233 -0.1981
 3304TIP3    H231404   2.493   3.778   2.583 -0.7926  0.2843  0.1478
 3305TIP3   OH231405   0.378   1.857  16.121 -0.1125 -0.1467  0.1983
 3305TIP3    H131406   0.284   1.851  16.104 -0.4812 -0.0453  2.0320
 3305TIP3    H231407   0.387   1.836  16.214  1.4051  2.1250  0.6253
 3306TIP3   OH231408   4.599   1.782  16.706 -0.6788 -0.7170 -0.3719
 3306TIP3    H131409   4.681   1.830  16.689 -0.3883 -0.7886  0.7671
 3306TIP3    H231410   4.532   1.833  16.660 -0.3846  0.8617  0.8657
 3307TIP3   OH231411   6.492   4.682  13.660  0.1410  0.1151  0.2889
 3307TIP3    H131412   6.573   4.716  13.699  0.1225  0.8931 -0.3121
 3307TIP3    H231413   6.494   4.588  13.678  0.9587  0.1971  0.6712
 3308TIP3   OH231414   1.528   6.026  14.991  0.2527 -0.2114  0.4002
 3308TIP3    H131415   1.460   5.959  14.978 -2.2164  1.8647  1.6967
 3308TIP3    H231416   1.590   6.011  14.920 -1.2740 -2.5759 -0.5561
 3309TIP3   OH231417   3.209   0.805   4.006 -0.5909  0.2211  0.0976
 3309TIP3    H131418   3.231   0.722   4.048 -2.1370 -0.1014  0.3191
 3309TIP3    H231419   3.176   0.780   3.919 -1.8906  0.5028  0.4837
 3310TIP3   OH231420   6.766   3.759   1.431  0.3629  0.5984  0.7538
 3310TIP3    H131421   6.855   3.775   1.399  0.7643 -1.8753  0.4294
 3310TIP3    H231422   6.771   3.776   1.525  1.4035 -0.2681  0.8777
 3311TIP3   OH231423   1.761   4.230  14.887 -0.0854  0.3050  0.5202
 3311TIP3    H131424   1.838   4.175  14.871  0.3671  1.1551 -0.3523
 3311TIP3    H231425   1.690   4.185  14.841  0.0184 -0.1581  0.8068
 3312TIP3   OH231426   4.802   5.487   6.058 -0.0907  0.2480 -0.2175
 3312TIP3    H131427   4.853   5.548   6.004 -0.1768 -0.7562 -1.4606
 3312TIP3    H231428   4.768   5.423   5.996  1.1497 -1.8931  1.1950
 3313TIP3   OH231429   3.259   3.713  16.137 -0.3396  0.3029 -0.1768
 3313TIP3    H131430   3.300   3.724  16.051  1.3803  0.7886  0.6624
 3313TIP3    H231431   3.291   3.629  16.169 -0.4420  0.4198  0.2485
 3314TIP3   OH231432   1.256   0.460  13.024  0.0538 -0.1550 -0.3803
 3314TIP3    H131433   1.258   0.408  12.944 -2.1203 -1.1749  0.1661
 3314TIP3    H231434   1.183   0.424  13.074  0.2816  1.5880  1.2983
 3315TIP3   OH231435   0.886   3.259  16.681  0.9001 -0.2274 -0.4364
 3315TIP3    H131436   0.923   3.199  16.616 -0.7465 -0.0199 -1.6314
 3315TIP3    H231437   0.955   3.324  16.695  1.1547 -0.0123 -2.3632
 3316TIP3   OH231438   0.798   1.239   2.803  0.3983 -0.0674 -0.3950
 3316TIP3    H131439   0.893   1.251   2.810  0.0127  4.3499  0.2056
 3316TIP3    H231440   0.765   1.259   2.891 -1.2477  3.0601 -1.5760
 3317TIP3   OH231441   6.672   1.340  12.394  0.0821 -0.5673 -0.3090
 3317TIP3    H131442   6.700   1.311  12.481 -1.4505 -0.6100  0.2079
 3317TIP3    H231443   6.630   1.424  12.409  1.6120  0.4230 -1.3371
 3318TIP3   OH231444   0.393   2.350  12.193  0.2583 -0.0615  0.0277
 3318TIP3    H131445   0.312   2.392  12.166 -0.8152 -1.3200  1.1944
 3318TIP3    H231446   0.456   2.423  12.200 -0.6229  0.8719 -1.2693
 3319TIP3   OH231447   2.790   1.621  15.947  0.1308  0.5594 -0.3580
 3319TIP3    H131448   2.717   1.681  15.930 -0.2227  1.2217  2.8647
 3319TIP3    H231449   2.864   1.678  15.966  0.7579 -0.0913 -0.8201
 3320TIP3   OH231450   0.348   2.721  12.188 -0.0192  0.0328 -0.4260
 3320TIP3    H131451   0.359   2.754  12.277 -0.5759 -2.0179  0.4644
 3320TIP3    H231452   0.311   2.794  12.139  1.1333  1.4875  0.7778
 3321TIP3   OH231453   5.690   0.088   2.691 -0.1258 -0.0761  0.1639
 3321TIP3    H131454   5.721  -0.002   2.702 -0.3188 -0.2479 -0.5778
 3321TIP3    H231455   5.618   0.097   2.754 -1.3506 -1.0701 -1.0118
 3322TIP3   OH231456   3.547   0.306  12.823  0.7987  0.3118  0.1011
 3322TIP3    H131457   3.542   0.217  12.858  0.0385  0.4345  0.3221
 3322TIP3    H231458   3.478   0.353  12.868 -0.4287  0.4125 -1.7643
 3323TIP3   OH231459   0.657   2.609  17.011 -0.0580 -0.2030  0.2895
 3323TIP3    H131460   0.661   2.521  17.048 -0.4469  0.4498  1.9642
 3323TIP3    H231461   0.650   2.595  16.916 -2.3699 -2.0281  0.6445
 3324TIP3   OH231462   6.295   1.893   0.218 -0.9162  0.1740  0.3760
 3324TIP3    H131463   6.317   1.900   0.311 -1.0271 -0.1864  0.4324
 3324TIP3    H231464   6.227   1.958   0.204 -1.9978 -0.8110  0.9010
 3325TIP3   OH231465   0.471   0.113   0.865 -0.4844 -0.2525  0.0193
 3325TIP3    H131466   0.406   0.108   0.794 -0.3539  0.3162 -0.1413
 3325TIP3    H231467   0.524   0.189   0.843 -1.0208  0.4948  1.2218
 3326TIP3   OH231468   1.095   2.210   2.397 -0.1541 -0.0436  0.2384
 3326TIP3    H131469   1.091   2.115   2.407 -4.0754  0.0597  1.4374
 3326TIP3    H231470   1.044   2.228   2.318 -3.5544  1.1263  2.4925
 3327TIP3   OH231471   3.007   0.521   5.009  0.3812 -0.6993  0.7916
 3327TIP3    H131472   3.032   0.602   4.963 -2.8732 -0.7511 -1.3787
 3327TIP3    H231473   3.052   0.452   4.961  1.2031 -0.3890  1.0925
 3328TIP3   OH231474   0.569   4.140  12.470 -0.0217  0.2381  0.2780
 3328TIP3    H131475   0.566   4.234  12.456  0.4761  0.0177 -1.5477
 3328TIP3    H231476   0.638   4.127  12.535 -2.1235  1.3092  2.8788
 3329TIP3   OH231477   1.120   0.122   3.327 -0.3927 -0.2434 -0.3727
 3329TIP3    H131478   1.150   0.086   3.243 -0.5250 -0.0369 -0.5094
 3329TIP3    H231479   1.025   0.106   3.327 -0.3711 -0.3712 -0.1992
 3330TIP3   OH231480   4.457   3.043  15.862  0.1683  0.4633  0.1196
 3330TIP3    H131481   4.540   3.058  15.906  0.2453 -0.2544  0.2331
 3330TIP3    H231482   4.435   3.127  15.822  1.6863  0.2864 -1.1915
 3331TIP3   OH231483   3.740   4.949   4.949 -0.1252  0.2862  0.8430
 3331TIP3    H131484   3.762   5.002   4.873 -0.4418 -1.2054 -0.3431
 3331TIP3    H231485   3.723   5.013   5.019  1.3791  1.6500  0.0275
 3332TIP3   OH231486   0.657   6.692  15.779  0.1509  0.2350  0.3261
 3332TIP3    H131487   0.647   6.597  15.781  0.6541  0.1832  1.8518
 3332TIP3    H231488   0.680   6.712  15.689  0.4861 -1.1489  0.0848
 3333TIP3   OH231489   2.495   5.907  12.774 -0.2368  0.1813 -0.4493
 3333TIP3    H131490   2.588   5.909  12.797  0.3448  1.2296 -2.6545
 3333TIP3    H231491   2.466   5.820  12.800  1.6280 -0.5566 -0.6738
 3334TIP3   OH231492   4.311   0.279   0.626  0.3858  0.5762  0.5473
 3334TIP3    H131493   4.308   0.230   0.708  1.1484 -0.3069  0.0746
 3334TIP3    H231494   4.315   0.211   0.558 -0.1741  1.2903 -0.2222
 3335TIP3   OH231495   2.544   2.556   4.120 -0.1855 -0.2460 -0.0763
 3335TIP3    H131496   2.601   2.601   4.182 -0.1520 -0.5189  0.0882
 3335TIP3    H231497   2.518   2.625   4.058 -1.3783  0.3554  1.0498
 3336TIP3   OH231498   3.290   6.197   2.144 -0.4052  0.0334  0.0815
 3336TIP3    H131499   3.271   6.291   2.146 -0.6364 -0.0197  0.4908
 3336TIP3    H231500   3.309   6.174   2.235  1.2382 -0.0015 -0.2471
 3337TIP3   OH231501   2.435   0.971  11.943 -0.1796  0.1774  0.7855
 3337TIP3    H131502   2.521   1.012  11.949 -0.0890  0.4085 -1.1888
 3337TIP3    H231503   2.441   0.892  11.996  1.5686 -0.2864 -0.0321
 3338TIP3   OH231504   3.179   0.137  16.759  0.2127 -0.4029  0.0651
 3338TIP3    H131505   3.259   0.129  16.708  0.7442 -0.5325  0.8962
 3338TIP3    H231506   3.185   0.223  16.801  0.1358 -0.6023  0.4921
 3339TIP3   OH231507   3.462   0.581   5.794 -0.0125 -0.8248  0.0728
 3339TIP3    H131508   3.534   0.565   5.733  1.0502  0.5097  0.9163
 3339TIP3    H231509   3.467   0.674   5.813  0.7609 -1.4196  3.4456
 3340TIP3   OH231510   5.108   4.462  16.492  0.3083 -0.0987  0.0671
 3340TIP3    H131511   5.096   4.546  16.536  1.5132 -0.8864  2.0849
 3340TIP3    H231512   5.062   4.399  16.547 -1.6275 -0.6704 -2.0722
 3341TIP3   OH231513   1.141   3.348  16.765  0.2582 -0.2233 -0.6669
 3341TIP3    H131514   1.130   3.443  16.764  0.8419 -0.1272  0.7715
 3341TIP3    H231515   1.233   3.334  16.741  0.9910 -0.2347  1.8655
 3342TIP3   OH231516   6.565   6.382   3.228 -0.1889 -0.1574  0.2044
 3342TIP3    H131517   6.583   6.428   3.146 -0.9356 -1.8559 -0.9756
 3342TIP3    H231518   6.594   6.443   3.296  2.9126  0.2905 -1.3204
 3343TIP3   OH231519   5.530   5.436   4.647 -0.2656  0.4362 -0.1583
 3343TIP3    H131520   5.461   5.449   4.582 -0.8390 -0.0122  0.3492
 3343TIP3    H231521   5.611   5.450   4.599 -0.7057  1.0078 -0.7598
 3344TIP3   OH231522   3.614   0.943  16.436 -0.0657  0.4456  0.3976
 3344TIP3    H131523   3.624   1.036  16.457 -1.7913  0.6532  0.4893
 3344TIP3    H231524   3.585   0.942  16.345  1.3645 -0.1080 -0.0750
 3345TIP3   OH231525   5.809   1.817   4.519  0.3435  0.0303  0.1285
 3345TIP3    H131526   5.790   1.727   4.493 -1.7887  1.0896 -2.6477
 3345TIP3    H231527   5.903   1.826   4.510  0.3522 -1.3512 -1.9984
 3346TIP3   OH231528   2.946   0.621  12.806 -0.0608  0.0769 -0.6163
 3346TIP3    H131529   2.901   0.568  12.871 -0.1520 -0.3837 -1.0519
 3346TIP3    H231530   3.035   0.587  12.805  0.4401  1.2683  0.5541
 3347TIP3   OH231531   1.925   0.268  15.222  0.3247  0.2428  0.2793
 3347TIP3    H131532   1.951   0.324  15.149  1.5547  0.4472  0.8318
 3347TIP3    H231533   1.856   0.316  15.266 -0.1934  0.2709 -0.5506
 3348TIP3   OH231534   3.439   1.361   2.188  0.0032  0.2549 -0.5541
 3348TIP3    H131535   3.455   1.292   2.252 -2.1666  1.6755  1.6949
 3348TIP3    H231536   3.489   1.436   2.220  3.4401 -0.4040 -3.6854
 3349TIP3   OH231537   0.017   1.808  10.386  0.0106 -0.2492  0.3223
 3349TIP3    H131538   0.037   1.869  10.458 -0.4418  0.0139  0.2302
 3349TIP3    H231539  -0.078   1.814  10.376 -0.2120 -1.9291  1.1667
 3350TIP3   OH231540   2.810   1.382  15.606 -0.0348  0.0163 -0.4204
 3350TIP3    H131541   2.842   1.364  15.694  0.3318 -0.0696 -0.5661
 3350TIP3    H231542   2.768   1.468  15.612 -1.1529 -0.5599  0.1194
 3351TIP3   OH231543   4.603   5.210   3.396 -0.3694  0.1942 -0.1841
 3351TIP3    H131544   4.509   5.202   3.413 -0.2225  1.5949  1.5018
 3351TIP3    H231545   4.622   5.303   3.410  0.9700  0.2832 -2.2426
 3352TIP3   OH231546   5.941   1.042  14.845  0.2345  0.2509 -0.2061
 3352TIP3    H131547   5.864   1.003  14.804  0.0188  1.4188 -0.9564
 3352TIP3    H231548   6.007   0.973  14.843 -1.1174 -1.2129  1.5742
 3353TIP3   OH231549   2.046   3.786   3.372 -0.0194  0.5752 -0.0336
 3353TIP3    H131550   2.065   3.874   3.407  0.1175  0.3985  0.3428
 3353TIP3    H231551   2.029   3.801   3.279 -1.9859  1.2664  0.3915
 3354TIP3   OH231552   0.292   6.806   1.010 -0.5442  0.0245 -0.1026
 3354TIP3    H131553   0.385   6.815   1.034  0.4929 -3.7456 -1.9689
 3354TIP3    H231554   0.274   6.883   0.956  0.8245  1.8562  1.8708
 3355TIP3   OH231555   6.026   1.048  17.038  0.2088  0.1736  0.1093
 3355TIP3    H131556   6.019   1.095  16.954 -2.9408 -0.8273 -0.3266
 3355TIP3    H231557   6.046   0.958  17.014  1.4637  0.2833  0.6417
 3356TIP3   OH231558   6.094   3.342   4.066  0.1177 -0.6366 -0.3406
 3356TIP3    H131559   6.146   3.339   4.146  0.3560  0.3964 -0.4342
 3356TIP3    H231560   6.083   3.436   4.048  1.5264 -0.8028 -2.4584
 3357TIP3   OH231561   4.444   4.620   2.396 -0.2656  0.0828 -0.6960
 3357TIP3    H131562   4.389   4.543   2.413 -1.6154  1.5699  2.7645
 3357TIP3    H231563   4.521   4.585   2.352 -1.9868 -2.7858 -1.7607
 3358TIP3   OH231564   6.130   6.194  13.279 -0.4863 -0.5634  0.2737
 3358TIP3    H131565   6.067   6.222  13.345 -0.9231  1.0746 -0.7816
 3358TIP3    H231566   6.121   6.099  13.276 -1.4668 -0.5383  1.5539
 3359TIP3   OH231567   5.417   0.867  11.664 -0.3110 -0.1231  0.3717
 3359TIP3    H131568   5.436   0.831  11.750  2.6988 -0.4085 -0.2716
 3359TIP3    H231569   5.493   0.922  11.644 -1.0784  0.2209 -1.9323
 3360TIP3   OH231570   1.700   4.113   1.703 -0.5169  0.0156 -0.0711
 3360TIP3    H131571   1.641   4.172   1.655 -0.8258 -0.9954 -0.9968
 3360TIP3    H231572   1.677   4.026   1.670  0.6127 -0.5216  0.5218
 3361TIP3   OH231573   2.763   3.165   3.130  0.3980 -0.1249 -0.2463
 3361TIP3    H131574   2.740   3.219   3.054 -0.3542 -1.9513 -1.3921
 3361TIP3    H231575   2.854   3.140   3.114  0.7306  0.7024  0.2596
 3362TIP3   OH231576   0.490   3.665   3.607  0.5741 -0.1661  0.1380
 3362TIP3    H131577   0.485   3.726   3.680 -2.2196  0.2572 -0.2703
 3362TIP3    H231578   0.460   3.581   3.643  2.1541 -0.7643  0.1471
 3363TIP3   OH231579   5.133   6.005  16.792  0.0756  0.7736  0.2255
 3363TIP3    H131580   5.107   6.043  16.876 -0.7196  1.1396 -0.1672
 3363TIP3    H231581   5.050   5.986  16.748  0.4453 -1.1734  0.2758
 3364TIP3   OH231582   1.786   0.509   3.350  0.0628  0.1849  0.0847
 3364TIP3    H131583   1.846   0.528   3.422  0.5776  1.7452 -0.7224
 3364TIP3    H231584   1.834   0.447   3.295 -0.4922 -1.3385  1.2402
 3365TIP3   OH231585   6.728   5.210  11.627 -0.2182 -0.1627  0.0232
 3365TIP3    H131586   6.718   5.153  11.551 -1.2471 -2.4211  1.7321
 3365TIP3    H231587   6.811   5.256  11.612 -0.4654 -0.4179 -2.4768
 3366TIP3   OH231588   1.296   3.130   3.706 -0.2177  0.6586 -0.2298
 3366TIP3    H131589   1.314   3.038   3.686 -0.0199  0.7137 -0.3058
 3366TIP3    H231590   1.355   3.150   3.779  0.1699  0.8931 -0.6019
 3367TIP3   OH231591   1.481   2.809   1.039 -0.0780 -0.3835 -0.3366
 3367TIP3    H131592   1.446   2.786   1.126 -0.7814 -2.0785 -1.0218
 3367TIP3    H231593   1.480   2.727   0.991  0.4700  0.5006 -1.9145
 3368TIP3   OH231594   6.228   6.577   3.805  0.5113  0.0538  0.6610
 3368TIP3    H131595   6.299   6.637   3.829 -0.3569  0.1670  3.3757
 3368TIP3    H231596   6.231   6.509   3.873 -2.0897  0.2219  1.0466
 3369TIP3   OH231597   1.822   1.664  14.971 -0.6279 -0.1437 -0.4259
 3369TIP3    H131598   1.904   1.641  14.929 -0.2707  0.6280 -0.1649
 3369TIP3    H231599   1.795   1.584  15.016 -0.0560 -0.4164 -0.5558
 3370TIP3   OH231600   0.369   3.892  13.531  0.2169  0.2185 -0.3401
 3370TIP3    H131601   0.303   3.852  13.589 -0.0034  1.6995  0.4668
 3370TIP3    H231602   0.453   3.862  13.567  0.2001  2.6451  2.0771
 3371TIP3   OH231603   2.950   5.854  12.061 -0.3275 -0.2781  0.5481
 3371TIP3    H131604   2.916   5.774  12.100 -0.4546  0.3389  1.7665
 3371TIP3    H231605   2.924   5.849  11.969 -0.5615 -1.4972  0.6611
 3372TIP3   OH231606   3.780   4.519  15.560 -0.0551 -0.5749  0.2160
 3372TIP3    H131607   3.830   4.517  15.642 -0.4966  1.4418  0.5740
 3372TIP3    H231608   3.698   4.473  15.581  0.6340 -1.8093  0.3017
 3373TIP3   OH231609   3.163   5.879   4.421 -0.7165  0.5758 -0.3165
 3373TIP3    H131610   3.140   5.962   4.380  0.7987  0.7481 -0.9105
 3373TIP3    H231611   3.231   5.902   4.485 -0.3302 -0.1914 -0.4396
 3374TIP3   OH231612   2.331   4.886  12.856  0.2826 -0.4994 -0.3471
 3374TIP3    H131613   2.403   4.933  12.899  0.0580  0.2812 -0.8233
 3374TIP3    H231614   2.266   4.873  12.926 -0.5841  1.7669 -0.6530
 3375TIP3   OH231615   4.571   1.508   0.987  0.3464 -0.0716 -0.1286
 3375TIP3    H131616   4.666   1.511   0.992  0.3383 -0.3922  0.2958
 3375TIP3    H231617   4.551   1.517   0.894  0.9028 -2.6230 -0.5674
 3376TIP3   OH231618   0.377   6.481  16.507  0.0004 -0.1591  0.1814
 3376TIP3    H131619   0.380   6.407  16.567  1.1946 -2.1762 -2.1913
 3376TIP3    H231620   0.304   6.461  16.448  0.7477  0.1828 -0.8870
 3377TIP3   OH231621   1.992   1.851  10.727 -0.0259  0.3959 -0.0676
 3377TIP3    H131622   2.010   1.775  10.783 -1.2158 -0.4719 -0.8233
 3377TIP3    H231623   1.915   1.892  10.767  1.3902  2.0342  1.1192
 3378TIP3   OH231624   3.033   4.152  11.208 -0.0493  0.0380  0.2937
 3378TIP3    H131625   3.097   4.083  11.226 -0.1457  0.1962  1.3149
 3378TIP3    H231626   3.034   4.162  11.113 -2.1355 -3.3939 -0.2276
 3379TIP3   OH231627   0.182   1.388  12.397  0.4390  0.2452 -0.8255
 3379TIP3    H131628   0.179   1.482  12.414 -2.1687  0.0885  0.1454
 3379TIP3    H231629   0.233   1.352  12.469 -1.3346  0.6649  0.7117
 3380TIP3   OH231630   5.815   6.219   2.318  0.0380  0.1508 -0.1398
 3380TIP3    H131631   5.872   6.296   2.312  2.3610 -1.3122  1.5115
 3380TIP3    H231632   5.837   6.167   2.240  2.5744 -1.3224  1.4253
 3381TIP3   OH231633   3.137   3.938   4.032 -0.0824  0.0596  0.7531
 3381TIP3    H131634   3.091   3.954   3.950 -0.2527  0.7741  0.9805
 3381TIP3    H231635   3.223   3.976   4.019 -0.3882  0.9422  1.1889
 3382TIP3   OH231636   6.367   5.950   1.678 -0.0248  0.3813 -0.4170
 3382TIP3    H131637   6.291   5.892   1.674  0.2676 -0.1678  1.0693
 3382TIP3    H231638   6.441   5.894   1.656  0.1794  0.3405  0.3290
 3383TIP3   OH231639   2.145   4.367   2.806 -0.3848 -0.0367  0.5371
 3383TIP3    H131640   2.144   4.456   2.842 -0.8079 -0.3763  1.3917
 3383TIP3    H231641   2.184   4.313   2.875  0.5766 -0.4095 -0.2689
 3384TIP3   OH231642   4.823   6.566   2.978 -0.1297  0.0743  0.6168
 3384TIP3    H131643   4.837   6.597   3.068 -1.6461  0.7882  0.6283
 3384TIP3    H231644   4.729   6.569   2.966  0.1221  1.6952 -1.5907
 3385TIP3   OH231645   0.449   1.795  14.843  0.3326 -0.4892  0.9047
 3385TIP3    H131646   0.519   1.856  14.819 -1.2783  1.3052  0.5124
 3385TIP3    H231647   0.469   1.716  14.794  1.9194  0.0763  0.5764
 3386TIP3   OH231648   6.586   2.589   4.585  0.7726 -0.1664  0.9196
 3386TIP3    H131649   6.623   2.632   4.508 -0.6863  2.0218  1.3614
 3386TIP3    H231650   6.499   2.560   4.556  1.2256 -1.7307  1.0249
 3387TIP3   OH231651   3.200   2.322   5.396 -0.0900  0.4481 -0.2465
 3387TIP3    H131652   3.217   2.245   5.451 -1.5210  0.7968  0.7749
 3387TIP3    H231653   3.177   2.286   5.311  1.0490 -0.1667 -0.3059
 3388TIP3   OH231654   2.835   5.094  15.953 -0.4653 -0.0950  0.1248
 3388TIP3    H131655   2.900   5.033  15.918  0.3720  1.6775 -1.6011
 3388TIP3    H231656   2.880   5.139  16.023 -0.3871 -0.0314  0.0343
 3389TIP3   OH231657   6.733   1.564   2.869  0.5432  0.0195 -0.2349
 3389TIP3    H131658   6.737   1.604   2.956  1.3894  0.5707 -0.5103
 3389TIP3    H231659   6.669   1.493   2.878 -1.1386  1.5221  0.2289
 3390TIP3   OH231660   5.195   4.228   4.970 -0.0039  0.0993  0.6218
 3390TIP3    H131661   5.138   4.199   4.898 -1.3797  3.8779 -0.0259
 3390TIP3    H231662   5.282   4.231   4.931 -0.1794 -0.8936  0.0938
 3391TIP3   OH231663   0.698   6.095  11.568 -0.4130  0.0836 -0.0462
 3391TIP3    H131664   0.748   6.173  11.543  0.2007  0.1675  1.3155
 3391TIP3    H231665   0.609   6.113  11.540 -0.3610  1.4638  0.5702
 3392TIP3   OH231666   4.042   2.352   6.734  0.9158  0.8706  0.5003
 3392TIP3    H131667   4.114   2.385   6.789  0.9236  1.1706  0.3117
 3392TIP3    H231668   4.037   2.415   6.662  1.1854  0.2420 -0.0763
 3393TIP3   OH231669   6.170   1.374   6.048 -0.4805  0.4061  0.2949
 3393TIP3    H131670   6.227   1.441   6.083 -1.5328  0.1312  2.7435
 3393TIP3    H231671   6.117   1.345   6.123 -2.5369 -0.6302 -1.4298
 3394TIP3   OH231672   3.591   2.925  15.798 -0.3711  0.0032 -0.4467
 3394TIP3    H131673   3.533   2.938  15.873 -0.6213  1.0641 -0.8155
 3394TIP3    H231674   3.534   2.890  15.730 -0.4353  0.3945 -0.5935
 3395TIP3   OH231675   5.245   5.149  10.556  0.1614 -0.0132 -0.0306
 3395TIP3    H131676   5.254   5.090  10.481  1.7527  0.2587 -0.0858
 3395TIP3    H231677   5.151   5.149  10.576 -0.1709 -0.7292 -1.4950
 3396TIP3   OH231678   3.388   1.982   5.317  0.0008  0.6027 -0.0534
 3396TIP3    H131679   3.477   2.013   5.330  0.5223  0.3167 -2.4282
 3396TIP3    H231680   3.371   1.924   5.391  2.3295 -0.4709 -0.2799
 3397TIP3   OH231681   0.465   5.750   1.765 -0.1414 -0.1940  0.0630
 3397TIP3    H131682   0.370   5.742   1.778 -0.0313  1.3032  2.3373
 3397TIP3    H231683   0.478   5.842   1.742  0.9420  0.4181  2.7742
 3398TIP3   OH231684   5.233   3.837  16.933  0.8857 -0.4409  0.0030
 3398TIP3    H131685   5.270   3.919  16.965  0.1830  0.1403 -0.6162
 3398TIP3    H231686   5.156   3.822  16.989 -1.5004  1.5969 -2.4496
 3399TIP3   OH231687   5.548   2.386  13.703 -0.1717  0.4746  0.0600
 3399TIP3    H131688   5.589   2.342  13.778 -2.0592 -0.4649  0.6102
 3399TIP3    H231689   5.607   2.369  13.630  0.3654 -0.9240  0.7787
 3400TIP3   OH231690   0.527   3.051  14.793  0.3740  0.1389 -0.0005
 3400TIP3    H131691   0.462   3.117  14.816  0.7864  0.5909 -0.1382
 3400TIP3    H231692   0.555   3.075  14.705 -0.1031 -0.7189 -0.4028
 3401TIP3   OH231693   5.292   1.911  14.350  0.0174 -0.5361 -0.2393
 3401TIP3    H131694   5.314   1.866  14.431  0.1083 -1.4978 -0.7802
 3401TIP3    H231695   5.269   1.841  14.289 -1.3860  0.2544 -0.6497
 3402TIP3   OH231696   3.565   5.308  13.458 -0.7573 -0.1044 -0.2008
 3402TIP3    H131697   3.596   5.320  13.548 -2.3181 -0.5890  0.4417
 3402TIP3    H231698   3.489   5.250  13.466 -1.8858  1.0659 -1.6416
 3403TIP3   OH231699   5.736   2.129   1.017  0.5047 -0.7779 -0.1118
 3403TIP3    H131700   5.710   2.066   0.950 -0.3218 -1.1372  0.5220
 3403TIP3    H231701   5.735   2.078   1.099 -0.8143  0.1944  0.5051
 3404TIP3   OH231702   1.884   6.278   1.952 -0.0678 -0.1655  0.0998
 3404TIP3    H131703   1.914   6.363   1.920  1.6475 -1.2114 -1.2302
 3404TIP3    H231704   1.842   6.238   1.875 -0.9241 -0.5028  0.7334
 3405TIP3   OH231705   5.482   3.887   4.836 -0.1943 -0.2643 -0.1946
 3405TIP3    H131706   5.483   3.821   4.767 -0.1173  0.9149 -1.3726
 3405TIP3    H231707   5.395   3.926   4.831 -0.0756  0.0565  0.1468
 3406TIP3   OH231708   1.625   2.295   0.883  0.2516 -1.0460  0.4428
 3406TIP3    H131709   1.592   2.342   0.807  2.4899  0.1988  0.1506
 3406TIP3    H231710   1.551   2.243   0.914 -1.6682  0.9391 -0.5955
 3407TIP3   OH231711   1.177   3.244  15.593 -0.1771 -0.0656  0.5206
 3407TIP3    H131712   1.132   3.265  15.675  0.5391 -0.2069  0.9571
 3407TIP3    H231713   1.176   3.326  15.544  1.5991  0.7557  1.7418
 3408TIP3   OH231714   4.740   4.709  16.206  0.2057 -0.0424 -0.2612
 3408TIP3    H131715   4.768   4.694  16.297 -0.7857  0.0399  0.0715
 3408TIP3    H231716   4.809   4.670  16.153  2.5864  2.8859  0.4521
 3409TIP3   OH231717   3.946   6.505  16.575 -0.1722  0.2024 -0.7555
 3409TIP3    H131718   3.969   6.598  16.577 -1.1605  0.4479  0.6607
 3409TIP3    H231719   4.028   6.459  16.592  0.0460  0.8883  0.1443
 3410TIP3   OH231720   1.508   2.658  11.379  0.1366 -0.4800  0.2738
 3410TIP3    H131721   1.529   2.659  11.286  2.5477  0.1190  0.7685
 3410TIP3    H231722   1.543   2.575  11.411  2.5421  0.8019  1.2316
 3411TIP3   OH231723   0.045   5.383   2.439 -0.3597 -0.0050 -0.6490
 3411TIP3    H131724   0.128   5.379   2.486  0.4090 -1.5516 -2.0242
 3411TIP3    H231725   0.066   5.425   2.356 -0.7803 -1.0327 -1.2948
 3412TIP3   OH231726   4.825   1.558  12.747  0.3745 -0.4058  0.5785
 3412TIP3    H131727   4.816   1.463  12.742 -0.3513 -0.2796 -2.6983
 3412TIP3    H231728   4.914   1.576  12.716  0.1206  0.0097  0.0710
 3413TIP3   OH231729   5.381   2.155  15.591 -0.6761 -0.2110  0.1198
 3413TIP3    H131730   5.328   2.096  15.537 -0.4597 -0.6858  0.4180
 3413TIP3    H231731   5.446   2.098  15.631 -0.9383  0.1085  1.0176
 3414TIP3   OH231732   3.181   0.169  16.160  0.6688 -0.3722 -0.0043
 3414TIP3    H131733   3.173   0.109  16.085  1.5160  0.2837 -0.6405
 3414TIP3    H231734   3.227   0.118  16.226  1.3457 -0.4507 -0.5237
 3415TIP3   OH231735   2.314   1.943   0.274  0.1619  0.0839 -0.2741
 3415TIP3    H131736   2.296   1.981   0.359  0.9813 -0.1248 -0.0005
 3415TIP3    H231737   2.404   1.913   0.279 -0.1144 -0.9170 -0.8462
 3416TIP3   OH231738   5.097   3.477   5.033 -0.2135  0.0697 -0.0695
 3416TIP3    H131739   5.054   3.406   5.082  0.5620 -2.7764 -3.1229
 3416TIP3    H231740   5.033   3.501   4.966  0.6324  0.0937 -0.8910
 3417TIP3   OH231741   1.742   3.128  12.755  0.1385 -0.1305  1.1924
 3417TIP3    H131742   1.775   3.216  12.773  0.9214 -0.4893  1.5059
 3417TIP3    H231743   1.649   3.142  12.733  1.2166  1.3629 -3.4519
 3418TIP3   OH231744   3.072   2.862  11.618  0.3064 -0.2596  0.0403
 3418TIP3    H131745   3.001   2.870  11.682  1.2038 -3.4897  1.7100
 3418TIP3    H231746   3.150   2.890  11.666  0.5026  1.1120 -1.0338
 3419TIP3   OH231747   1.587   2.343  11.637  0.0524  0.5643 -0.5534
 3419TIP3    H131748   1.546   2.282  11.700 -1.1805  1.8317 -0.0901
 3419TIP3    H231749   1.521   2.357  11.570  0.9479  0.1228 -1.5596
 3420TIP3   OH231750   6.536   6.718  10.701 -0.4204  0.6715  0.3677
 3420TIP3    H131751   6.529   6.659  10.777 -0.9934 -0.8864 -0.8287
 3420TIP3    H231752   6.627   6.746  10.701  0.4908 -1.9418 -0.1845
 3421TIP3   OH231753   5.717   6.732   3.452 -0.3822 -0.0554 -0.1486
 3421TIP3    H131754   5.713   6.828   3.449 -1.8783 -0.0993 -0.4242
 3421TIP3    H231755   5.702   6.705   3.361  0.5566 -0.5536 -0.1670
 3422TIP3   OH231756   4.818   2.994  16.543 -0.5151 -0.2072 -0.6494
 3422TIP3    H131757   4.789   3.003  16.453 -1.0670  0.5005 -0.4079
 3422TIP3    H231758   4.740   3.011  16.596 -0.1142 -0.2345 -0.0285
 3423TIP3   OH231759   2.397   5.709  15.910  0.6811 -0.1058  0.2000
 3423TIP3    H131760   2.358   5.768  15.844 -1.9548 -1.9124 -0.0289
 3423TIP3    H231761   2.405   5.763  15.989  1.3612  1.3687 -0.8254
 3424TIP3   OH231762   5.398   0.186   2.572  0.0497  0.3075 -0.7708
 3424TIP3    H131763   5.438   0.120   2.515 -0.1883 -0.2347 -0.3158
 3424TIP3    H231764   5.356   0.247   2.511 -3.1530 -2.0742 -1.2115
 3425TIP3   OH231765   1.049   1.802  13.657  0.2121  0.1667 -0.4607
 3425TIP3    H131766   1.094   1.720  13.674  0.4761  0.2310 -0.8391
 3425TIP3    H231767   1.109   1.851  13.600  0.5157  1.0385  0.5772
 3426TIP3   OH231768   3.195   0.579   5.716 -0.1266  0.1500  0.0592
 3426TIP3    H131769   3.147   0.615   5.642  1.6724 -0.3999 -1.4609
 3426TIP3    H231770   3.287   0.597   5.697  0.5585 -1.8297  1.1095
 3427TIP3   OH231771   1.257   4.911   0.685  0.1162  0.3235 -0.8326
 3427TIP3    H131772   1.322   4.842   0.697  0.6558  1.1084  1.1339
 3427TIP3    H231773   1.270   4.940   0.595  3.1646  1.0531 -0.2715
 3428TIP3   OH231774   0.479   1.311   5.706  0.0886  0.4813  0.8509
 3428TIP3    H131775   0.489   1.247   5.776 -0.9054  0.0615  0.6220
 3428TIP3    H231776   0.550   1.290   5.645  0.4399  0.3072  1.3173
 3429TIP3   OH231777   4.593   5.645   2.993  0.1128 -0.0227 -0.6345
 3429TIP3    H131778   4.589   5.707   2.920 -1.1738  1.4969  0.6381
 3429TIP3    H231779   4.668   5.589   2.974  1.6581  2.2638 -1.6365
 3430TIP3   OH231780   2.995   4.129  12.663 -0.4479 -0.2604  0.4069
 3430TIP3    H131781   3.075   4.145  12.713 -0.2888  1.0499 -0.1969
 3430TIP3    H231782   2.924   4.162  12.719 -0.6396 -1.8426  1.1355
 3431TIP3   OH231783   1.524   1.756   4.645  0.3385  0.5238  0.2868
 3431TIP3    H131784   1.592   1.750   4.578  0.3769 -0.9161  0.4207
 3431TIP3    H231785   1.570   1.780   4.725  0.6808 -0.3373  0.3520
 3432TIP3   OH231786   5.902   5.510   0.150  0.1068 -0.2845 -0.4282
 3432TIP3    H131787   5.845   5.555   0.088 -0.8871 -0.3424  0.4271
 3432TIP3    H231788   5.981   5.565   0.154 -0.8774  1.1429  0.2206
 3433TIP3   OH231789   6.032   0.394  13.529 -0.4966  0.2066  0.2373
 3433TIP3    H131790   5.982   0.325  13.572 -1.4669  0.8978  0.2441
 3433TIP3    H231791   5.996   0.399  13.441 -1.8651  2.0459  0.8301
 3434TIP3   OH231792   0.456   4.031  11.204 -0.0562 -0.2926  0.3877
 3434TIP3    H131793   0.547   4.052  11.182  0.6470 -0.5894  2.7219
 3434TIP3    H231794   0.407   4.052  11.125  2.0205 -0.0405 -0.9185
 3435TIP3   OH231795   6.296   0.344  16.172  0.4017 -0.3906 -0.4946
 3435TIP3    H131796   6.299   0.435  16.203 -0.6727 -0.3475 -0.4850
 3435TIP3    H231797   6.385   0.311  16.188  0.6063  0.4295  0.1905
 3436TIP3   OH231798   2.161   4.414  14.307  0.2711 -0.0586 -0.4606
 3436TIP3    H131799   2.113   4.333  14.319 -0.6864  0.4480 -0.7910
 3436TIP3    H231800   2.107   4.466  14.248  0.7799  0.8874 -0.1155
 3437TIP3   OH231801   4.688   4.393   5.106 -0.0813 -0.1997  0.1412
 3437TIP3    H131802   4.759   4.331   5.088  1.0403  1.4420 -1.3946
 3437TIP3    H231803   4.730   4.463   5.157 -1.1500 -0.2993  1.2039
 3438TIP3   OH231804   4.849   0.045   0.470 -1.0243  0.2870  0.1543
 3438TIP3    H131805   4.786  -0.013   0.512  0.7685 -1.4246  0.6037
 3438TIP3    H231806   4.834   0.130   0.512 -1.6995 -0.5414  1.6908
 3439TIP3   OH231807   6.298   0.499   4.834 -0.4705  0.8185  0.2285
 3439TIP3    H131808   6.304   0.594   4.823 -2.0972  1.0934  1.3755
 3439TIP3    H231809   6.310   0.485   4.928 -2.4900  0.1473  0.4401
 3440TIP3   OH231810   4.199   5.385  14.174 -0.2087 -0.8101 -0.9876
 3440TIP3    H131811   4.277   5.337  14.146 -0.3959 -1.7968  0.0918
 3440TIP3    H231812   4.141   5.318  14.210 -1.9791 -0.2328 -2.5784
 3441TIP3   OH231813   2.479   6.600   5.667 -0.1385  0.0914 -0.0596
 3441TIP3    H131814   2.501   6.616   5.759 -1.3964  0.2755  0.2309
 3441TIP3    H231815   2.404   6.540   5.671  0.4685 -0.7624 -1.0031
 3442TIP3   OH231816   1.442   3.229   5.574 -0.6853  0.0286  0.2064
 3442TIP3    H131817   1.524   3.205   5.531 -1.7122 -1.9190 -0.7963
 3442TIP3    H231818   1.466   3.245   5.665  0.6029 -2.1300  0.3137
 3443TIP3   OH231819   0.288   1.717  14.344 -0.3263 -0.0631  0.1197
 3443TIP3    H131820   0.256   1.635  14.308  0.8445 -0.5615  0.1568
 3443TIP3    H231821   0.283   1.705  14.439  0.1433 -0.2167  0.1254
 3444TIP3   OH231822   1.284   0.547  14.966  0.1398  0.4293  0.2769
 3444TIP3    H131823   1.274   0.480  15.033  0.4310 -1.2248 -1.2699
 3444TIP3    H231824   1.234   0.622  15.000 -1.0143 -0.8776  1.6162
 3445TIP3   OH231825   2.453   3.590  11.769 -0.0338 -0.4732  0.3618
 3445TIP3    H131826   2.385   3.526  11.745 -0.2920 -0.3038  0.6417
 3445TIP3    H231827   2.469   3.638  11.688 -1.3418  0.5024  0.6475
 3446TIP3   OH231828   1.253   0.487  11.844  0.3141 -0.1222  0.2117
 3446TIP3    H131829   1.315   0.417  11.864 -0.1669 -0.6105  0.0192
 3446TIP3    H231830   1.230   0.524  11.929  0.9971  0.1753  0.2697
 3447TIP3   OH231831   2.222   6.003   4.643 -0.0863  0.1220 -0.5872
 3447TIP3    H131832   2.140   5.980   4.684 -0.5767  1.4783 -0.7378
 3447TIP3    H231833   2.208   5.986   4.550 -0.5450  1.1937 -0.7352
 3448TIP3   OH231834   0.351   0.991  11.246 -0.1857  0.2232 -0.5949
 3448TIP3    H131835   0.351   0.905  11.288  2.1316  0.1090 -0.7191
 3448TIP3    H231836   0.342   0.971  11.152  0.9568  0.0595 -0.6774
 3449TIP3   OH231837   0.972   4.971   0.640 -0.2665 -0.6121 -0.0135
 3449TIP3    H131838   1.047   4.946   0.694  0.6152  2.1139  0.1883
 3449TIP3    H231839   0.904   4.995   0.703  0.1462  0.8268 -0.0715
 3450TIP3   OH231840   1.258   5.789   1.045 -0.0040  0.1273 -0.2923
 3450TIP3    H131841   1.303   5.709   1.018  0.9361  0.5664 -0.0865
 3450TIP3    H231842   1.241   5.836   0.963 -0.3794 -0.1864 -0.3967
 3451TIP3   OH231843   6.639   6.404   3.761  0.4660  0.5906 -0.2500
 3451TIP3    H131844   6.631   6.350   3.683  1.9843  1.3238 -0.9590
 3451TIP3    H231845   6.630   6.494   3.730  0.2204  0.8665  0.5676
 3452TIP3   OH231846   4.873   4.801   3.738 -0.1905 -0.6646  0.4468
 3452TIP3    H131847   4.819   4.760   3.670  1.6058 -0.0501 -1.4236
 3452TIP3    H231848   4.914   4.876   3.695 -0.3391  0.8303  2.7206
 3453TIP3   OH231849   6.330   4.063   2.079  0.4125  0.8031 -0.8393
 3453TIP3    H131850   6.304   4.154   2.094 -1.2890  0.0607  1.2209
 3453TIP3    H231851   6.376   4.038   2.159 -3.4733 -1.5054  0.9456
 3454TIP3   OH231852   5.816   5.056   5.445  0.5755 -0.6903  0.6089
 3454TIP3    H131853   5.739   5.002   5.462 -1.1911  2.0742  2.1193
 3454TIP3    H231854   5.792   5.144   5.475  2.4673  1.5878 -3.5641
 3455TIP3   OH231855   1.840   5.443   3.397 -0.2254 -0.7819  0.1416
 3455TIP3    H131856   1.886   5.361   3.379  1.6736  0.6466 -2.1102
 3455TIP3    H231857   1.751   5.429   3.364  0.0733 -1.9040 -0.2127
 3456TIP3   OH231858   0.460   1.383   1.011 -0.1340  0.1314 -0.2728
 3456TIP3    H131859   0.464   1.294   1.047 -0.5570  0.3812  0.4016
 3456TIP3    H231860   0.372   1.413   1.032 -0.7021 -0.0080 -2.2425
 3457TIP3   OH231861   6.013   4.497  16.936 -0.0036  1.0991  0.5583
 3457TIP3    H131862   6.087   4.519  16.880 -0.1250  0.5322  0.1645
 3457TIP3    H231863   5.946   4.463  16.876  0.1951 -0.3552  1.1284
 3458TIP3   OH231864   1.025   0.064  13.593  0.1454  0.0468 -1.0994
 3458TIP3    H131865   1.050   0.090  13.682 -0.3811  0.3890 -1.0467
 3458TIP3    H231866   1.000   0.146  13.550 -0.6299 -0.2493 -1.2287
 3459TIP3   OH231867   1.296   5.137  14.651 -0.5915 -0.5163 -0.3985
 3459TIP3    H131868   1.240   5.085  14.708  0.0623 -0.0068  0.7482
 3459TIP3    H231869   1.297   5.224  14.690  0.9484 -0.4974 -0.4106
 3460TIP3   OH231870   1.508   1.912   0.169  0.3065 -0.0589 -0.6333
 3460TIP3    H131871   1.482   1.916   0.077 -1.3804 -0.1295 -0.1842
 3460TIP3    H231872   1.519   1.819   0.187 -0.4201 -0.1209 -0.4912
 3461TIP3   OH231873   1.032   3.923   6.282  0.0029 -0.0773  0.7730
 3461TIP3    H131874   0.941   3.929   6.311 -0.1839 -1.4241  0.5176
 3461TIP3    H231875   1.029   3.871   6.202  1.0233 -0.3102  0.8738
 3462TIP3   OH231876   2.424   5.207  10.919  0.0939  1.0229 -0.8973
 3462TIP3    H131877   2.506   5.165  10.896  0.4730  0.3116  1.4680
 3462TIP3    H231878   2.441   5.250  11.003 -1.9485  0.7761 -0.2859
 3463TIP3   OH231879   5.548   1.384  15.256  0.0832 -0.0597 -0.2227
 3463TIP3    H131880   5.493   1.338  15.319 -2.6854  1.5740 -1.2324
 3463TIP3    H231881   5.575   1.464  15.301 -0.9219  0.5467 -0.6463
 3464TIP3   OH231882   4.841   5.555  15.330 -0.1212 -0.4167  0.1315
 3464TIP3    H131883   4.829   5.621  15.262  2.0843  0.1273  0.2201
 3464TIP3    H231884   4.836   5.472  15.282  1.7989 -0.0364 -0.8141
 3465TIP3   OH231885   4.412   0.914   5.539 -0.2974 -0.5325  0.2989
 3465TIP3    H131886   4.480   0.847   5.534 -1.8908 -2.2570  0.4632
 3465TIP3    H231887   4.345   0.885   5.478 -1.6200  0.2084  1.3283
 3466TIP3   OH231888   0.308   2.893   0.456 -0.3164  0.0817 -0.0618
 3466TIP3    H131889   0.396   2.887   0.494  0.2452 -1.2973 -1.5016
 3466TIP3    H231890   0.322   2.931   0.369 -1.2488  0.5919 -0.0006
 3467TIP3   OH231891   6.021   6.153   2.660  0.1770  0.0710 -0.5642
 3467TIP3    H131892   6.011   6.238   2.618  0.8731  1.4727  1.9732
 3467TIP3    H231893   5.946   6.146   2.719  0.6714 -0.6475 -0.0025
 3468TIP3   OH231894   3.312   0.361  12.922  0.2959 -0.3914  0.4105
 3468TIP3    H131895   3.244   0.361  12.990 -0.1658 -2.3769  0.0343
 3468TIP3    H231896   3.272   0.406  12.848  1.0570  2.4331  1.6097
 3469TIP3   OH231897   4.363   5.818   0.494 -0.0714  0.1579 -0.1272
 3469TIP3    H131898   4.279   5.787   0.528  0.1239  0.4572  0.6707
 3469TIP3    H231899   4.369   5.781   0.406 -1.6852  1.2692 -0.7550
 3470TIP3   OH231900   3.783   1.951  13.812  0.4556 -0.1847 -0.1347
 3470TIP3    H131901   3.748   1.863  13.823 -0.0539 -0.2675 -2.0817
 3470TIP3    H231902   3.845   1.962  13.884  0.3724 -2.0587  0.2511
 3471TIP3   OH231903   4.575   6.170   2.798 -0.7611  0.1311 -0.3001
 3471TIP3    H131904   4.633   6.178   2.873  0.1526  0.3100 -1.0107
 3471TIP3    H231905   4.536   6.257   2.788  1.3544  1.0072 -1.7770
 3472TIP3   OH231906   2.023   1.938  12.277  0.2779  1.4062 -0.2138
 3472TIP3    H131907   1.980   2.023  12.283  0.0001  1.2741 -0.3360
 3472TIP3    H231908   2.023   1.917  12.184 -2.1406  0.0030  0.0349
 3473TIP3   OH231909   0.429   5.630  14.422  0.4813 -0.4690 -0.2177
 3473TIP3    H131910   0.515   5.662  14.450  0.6657 -2.0174  1.1428
 3473TIP3    H231911   0.448   5.568  14.352  0.5599 -1.4635  0.6727
 3474TIP3   OH231912   1.023   2.520  12.779  0.2365  0.0246  0.1778
 3474TIP3    H131913   1.008   2.606  12.741  0.5369 -0.4984 -1.1744
 3474TIP3    H231914   1.083   2.537  12.853 -1.1140  1.1664  1.0629
 3475TIP3   OH231915   3.727   0.737   5.013  0.3449  0.5130 -0.1061
 3475TIP3    H131916   3.766   0.762   5.097 -1.8514  0.6502  0.9430
 3475TIP3    H231917   3.757   0.647   4.999 -1.1143 -0.3776  2.0529
 3476TIP3   OH231918   1.601   0.959  11.805 -0.4055  0.1857  0.7357
 3476TIP3    H131919   1.611   0.893  11.737 -0.1012  1.0606 -0.0843
 3476TIP3    H231920   1.567   1.036  11.759 -1.0560  0.5100  1.7239
 3477TIP3   OH231921   1.221   0.685  13.767  0.4709 -0.4493  0.6665
 3477TIP3    H131922   1.269   0.698  13.685  0.6493 -1.4313  0.6005
 3477TIP3    H231923   1.266   0.741  13.830  1.2532 -0.7932  0.4290
 3478TIP3   OH231924   1.767   6.425  13.193 -0.1803 -0.0904 -0.5179
 3478TIP3    H131925   1.765   6.514  13.158  1.0022  0.8866  1.7024
 3478TIP3    H231926   1.762   6.436  13.288 -1.1299 -2.4760 -0.2186
 3479TIP3   OH231927   3.902   2.413   0.730 -0.0314 -0.2472 -0.0997
 3479TIP3    H131928   3.857   2.365   0.660 -0.3165 -1.1845  0.7054
 3479TIP3    H231929   3.934   2.345   0.789 -0.5479  0.5524  1.1470
 3480TIP3   OH231930   3.783   4.677  12.317  0.0738 -0.7514  0.0641
 3480TIP3    H131931   3.716   4.609  12.311 -1.8273  1.1601 -2.0809
 3480TIP3    H231932   3.851   4.649  12.256 -0.3338 -1.0919 -0.2425
 3481TIP3   OH231933   1.504   0.847  10.465  0.4127  0.0012 -0.9328
 3481TIP3    H131934   1.511   0.758  10.429  0.2242 -0.0068 -0.9521
 3481TIP3    H231935   1.448   0.893  10.403 -0.4277 -0.1845 -0.3342
 3482TIP3   OH231936   0.498   5.560   3.898  0.5387  0.5676  0.5889
 3482TIP3    H131937   0.581   5.555   3.944  0.6602  1.5087  0.4954
 3482TIP3    H231938   0.473   5.653   3.903 -0.2167  0.4016  0.1251
 3483TIP3   OH231939   6.515   1.693  14.238 -0.4986 -0.1233 -0.5371
 3483TIP3    H131940   6.599   1.722  14.200 -0.3287 -2.3871 -2.0720
 3483TIP3    H231941   6.460   1.675  14.162 -1.5468 -1.0021  0.3978
 3484TIP3   OH231942   0.007   2.249   1.647 -0.2718  0.4513 -0.0879
 3484TIP3    H131943  -0.078   2.264   1.607 -0.9210 -1.4215  0.4714
 3484TIP3    H231944   0.040   2.336   1.669 -1.6080  1.2544 -1.1768
 3485TIP3   OH231945   0.585   0.756  11.169  0.6363  0.3164 -0.4933
 3485TIP3    H131946   0.524   0.696  11.128  1.6232 -0.6820 -0.5535
 3485TIP3    H231947   0.578   0.837  11.118 -2.3189  1.1063  0.9249
 3486TIP3   OH231948   6.306   0.394   5.309 -0.4428  0.0163 -0.0211
 3486TIP3    H131949   6.321   0.391   5.403 -2.2846  0.4816  0.3238
 3486TIP3    H231950   6.334   0.307   5.277  1.2219  0.2335  0.7437
 3487TIP3   OH231951   5.660   4.799  11.319 -0.0177  0.0223  0.2403
 3487TIP3    H131952   5.585   4.740  11.310 -0.3179  0.6348 -1.7438
 3487TIP3    H231953   5.622   4.887  11.322  0.5762  0.2801  0.5258
 3488TIP3   OH231954   5.809   1.804  15.754 -0.1625 -0.2961  0.2606
 3488TIP3    H131955   5.852   1.727  15.718 -1.9527 -0.9504 -0.6513
 3488TIP3    H231956   5.808   1.790  15.848  0.4466 -0.8694  0.1858
 3489TIP3   OH231957   3.585   1.785   5.181 -0.3333  0.5972  0.0181
 3489TIP3    H131958   3.492   1.766   5.194 -0.9268  1.5100 -2.3781
 3489TIP3    H231959   3.594   1.798   5.087  2.2081  0.7616  0.2061
 3490TIP3   OH231960   2.289   5.561  16.183 -0.3834 -0.1762 -0.7553
 3490TIP3    H131961   2.288   5.482  16.129 -1.1417 -1.0717  0.5180
 3490TIP3    H231962   2.201   5.597  16.176 -0.1869  0.2809 -0.9272
 3491TIP3   OH231963   4.244   5.638  14.699 -1.0366  0.2267 -0.1443
 3491TIP3    H131964   4.315   5.630  14.636 -2.1245 -0.0815 -1.3723
 3491TIP3    H231965   4.244   5.555  14.747 -1.2187 -0.1989 -0.8652
 3492TIP3   OH231966   5.378   1.826   0.091 -0.4705 -0.4039  0.0617
 3492TIP3    H131967   5.446   1.882   0.129  0.7068 -0.7436 -1.4114
 3492TIP3    H231968   5.310   1.822   0.158 -0.6639  2.8306  0.2236
 3493TIP3   OH231969   5.045   0.219   0.028  0.5790 -0.1219  0.4853
 3493TIP3    H131970   5.084   0.229  -0.059  0.6233  1.5273  0.6500
 3493TIP3    H231971   5.108   0.167   0.077  0.9190 -0.4170 -0.2537
 3494TIP3   OH231972   1.935   2.896   5.715 -0.0221 -0.1421  0.0423
 3494TIP3    H131973   1.998   2.967   5.710  0.1529 -0.3530 -1.6853
 3494TIP3    H231974   1.854   2.937   5.746  0.2223  0.7044 -0.4095
 3495TIP3   OH231975   2.326   2.418   6.480 -0.0930 -0.0685  0.2035
 3495TIP3    H131976   2.239   2.439   6.513  0.7012  1.0532  1.7326
 3495TIP3    H231977   2.330   2.460   6.394 -0.2614  1.9976  1.1452
 3496TIP3   OH231978   0.375   5.954  13.334 -0.0206  0.5509  0.0154
 3496TIP3    H131979   0.455   6.006  13.346 -0.0232  0.6416 -0.3726
 3496TIP3    H231980   0.399   5.867  13.367  0.9321 -0.0394 -2.0709
 3497TIP3   OH231981   0.098   4.855   1.583  0.1780  0.4857 -0.3556
 3497TIP3    H131982   0.117   4.905   1.663  0.5789  0.0147 -0.1476
 3497TIP3    H231983   0.153   4.777   1.591  0.0705  0.3423 -1.0008
 3498TIP3   OH231984   6.099   1.738  13.885  0.5372 -0.4359 -0.2699
 3498TIP3    H131985   6.080   1.645  13.897 -0.0625 -0.2286  0.4880
 3498TIP3    H231986   6.050   1.764  13.808  1.5729 -0.9894 -1.1351
 3499TIP3   OH231987   3.516   2.823   4.424  0.0313  0.2485 -0.4366
 3499TIP3    H131988   3.426   2.851   4.442 -0.4609 -0.9848 -0.9029
 3499TIP3    H231989   3.514   2.790   4.334  0.7701 -0.5097 -0.1891
 3500TIP3   OH231990   1.753   3.110   5.814  0.2202  0.0810  0.0469
 3500TIP3    H131991   1.787   3.188   5.858 -0.7196  0.4450  0.1409
 3500TIP3    H231992   1.680   3.081   5.869  1.5692 -1.8901  0.9757
 3501TIP3   OH231993   0.811   4.116   3.932  0.3480  0.2941  0.8597
 3501TIP3    H131994   0.898   4.083   3.955 -0.5511 -2.7725  0.3864
 3501TIP3    H231995   0.817   4.139   3.840  0.7477  0.3452  0.8987
 3502TIP3   OH231996   0.578   0.091  13.295  0.1382  0.0891  0.4478
 3502TIP3    H131997   0.637   0.145  13.243 -0.4103  0.1923 -0.0825
 3502TIP3    H231998   0.501   0.080  13.240 -0.1173 -0.4999  0.9098
 3503TIP3   OH231999   5.805   5.925  13.803  0.6753 -0.7557 -0.0505
 3503TIP3    H132000   5.795   5.945  13.896 -0.4864 -1.5774  0.0233
 3503TIP3    H232001   5.896   5.946  13.784  0.8749 -0.3727  1.2205
 3504TIP3   OH232002   2.552   1.478   5.287 -0.2634 -0.6063 -0.3972
 3504TIP3    H132003   2.641   1.451   5.266  0.3300  0.0671  1.1080
 3504TIP3    H232004   2.513   1.402   5.329  0.3367 -0.2403  0.8844
 3505TIP3   OH232005   4.443   5.013  16.447  0.5006 -0.3176 -0.2152
 3505TIP3    H132006   4.481   4.938  16.492  0.0628 -0.5936 -0.2926
 3505TIP3    H232007   4.515   5.075  16.436  0.5132  0.0097  1.3797
 3506TIP3   OH232008   4.010   4.682  15.500  0.3683 -0.0239  0.1120
 3506TIP3    H132009   4.033   4.655  15.589  0.2266 -0.7478 -0.0607
 3506TIP3    H232010   3.958   4.609  15.466  1.0808 -0.1082 -0.8304
 3507TIP3   OH232011   5.131   1.037   0.157 -0.6378 -0.0768 -0.1005
 3507TIP3    H132012   5.131   0.984   0.078 -2.8873 -2.0072  1.0439
 3507TIP3    H232013   5.188   0.991   0.218  1.7640  1.8447 -0.7388
 3508TIP3   OH232014   5.533   2.402   1.957  0.0372  0.1395 -0.0571
 3508TIP3    H132015   5.518   2.435   1.869  1.9645  2.6124  0.4419
 3508TIP3    H232016   5.544   2.308   1.946 -3.6712 -0.2434 -1.8458
 3509TIP3   OH232017   4.528   0.090   0.348  0.5700 -0.0395  0.5797
 3509TIP3    H132018   4.595   0.035   0.389  1.6772  0.4889 -0.4389
 3509TIP3    H232019   4.451   0.034   0.341  1.0088 -0.7822  1.4630
 3510TIP3   OH232020   5.800   0.010   2.999  0.8753 -0.1556 -0.3916
 3510TIP3    H132021   5.752  -0.047   2.938  0.1645 -1.6062  1.4186
 3510TIP3    H232022   5.778   0.099   2.972 -0.9262 -0.7739 -1.0965
 3511TIP3   OH232023   4.755   5.720   0.686 -0.3892  0.0963 -0.0790
 3511TIP3    H132024   4.719   5.715   0.597  0.9693 -2.7924 -0.5809
 3511TIP3    H232025   4.718   5.644   0.731  1.6729 -0.5313  0.6666
 3512TIP3   OH232026   2.681   3.624   5.891 -0.3657 -0.3968 -0.2089
 3512TIP3    H132027   2.717   3.635   5.979 -1.3791 -0.9229  0.2899
 3512TIP3    H232028   2.592   3.591   5.905 -0.2469 -1.3292 -1.4544
 3513TIP3   OH232029   0.352   0.662   1.113  1.0566  0.4398  0.6526
 3513TIP3    H132030   0.285   0.640   1.048  1.1338  0.5309  0.5419
 3513TIP3    H232031   0.424   0.602   1.094  1.1768  0.6332  0.4961
 3514TIP3   OH232032   2.378   1.113   0.430  0.2523 -0.2586 -0.5650
 3514TIP3    H132033   2.448   1.138   0.370  1.1029 -1.8467 -0.2761
 3514TIP3    H232034   2.305   1.170   0.406  1.2396  0.6039 -1.6757
 3515TIP3   OH232035   6.517   5.229  13.502 -0.1036  0.9135 -0.3156
 3515TIP3    H132036   6.470   5.230  13.419  1.8365  2.0122 -1.4729
 3515TIP3    H232037   6.610   5.233  13.478  0.5861 -0.1260  1.8785
 3516TIP3   OH232038   0.316   3.462  16.166  0.0489 -0.2551 -0.2769
 3516TIP3    H132039   0.374   3.476  16.092 -0.1953 -0.1867 -0.4565
 3516TIP3    H232040   0.372   3.424  16.234  0.0574 -1.2613 -0.8322
 3517TIP3   OH232041   0.310   4.201   6.147  0.6124 -0.2767  0.3852
 3517TIP3    H132042   0.317   4.114   6.188  0.1129 -0.0448  0.9863
 3517TIP3    H232043   0.335   4.187   6.056 -0.6044 -1.2887  0.1859
 3518TIP3   OH232044   5.736   5.522   1.885  0.2706  0.1769 -0.2994
 3518TIP3    H132045   5.800   5.574   1.836  1.6785 -0.9636  0.2308
 3518TIP3    H232046   5.674   5.492   1.819  1.0694  0.1964 -1.0859
 3519TIP3   OH232047   5.904   1.089   3.426 -0.0890  0.4123  0.6424
 3519TIP3    H132048   5.865   1.111   3.510 -1.1725 -0.6512  0.4550
 3519TIP3    H232049   5.882   0.996   3.413  1.2528  0.1872 -0.1701
 3520TIP3   OH232050   0.840   0.735   1.602 -0.4436  0.2081 -0.1041
 3520TIP3    H132051   0.800   0.814   1.638 -1.2018  0.4788 -1.5075
 3520TIP3    H232052   0.850   0.753   1.509  0.3836 -0.9402 -0.2530
 3521TIP3   OH232053   4.045   6.299   0.733  0.2704 -0.3187  0.1513
 3521TIP3    H132054   3.955   6.290   0.701  0.7712 -2.7017 -0.7303
 3521TIP3    H232055   4.037   6.298   0.828 -0.6018 -1.2110  0.0820
 3522TIP3   OH232056   1.934   5.925   1.311 -0.1043  0.0070  0.2571
 3522TIP3    H132057   1.923   6.012   1.274  2.5409 -0.0646 -0.8969
 3522TIP3    H232058   1.874   5.870   1.261  0.4074  0.6496 -1.1110
 3523TIP3   OH232059   6.239   5.230   2.225  0.0211 -0.3458  0.3845
 3523TIP3    H132060   6.246   5.326   2.225 -1.1855 -0.2299  1.6177
 3523TIP3    H232061   6.221   5.208   2.316 -2.9269 -1.4525 -0.3508
 3524TIP3   OH232062   3.111   1.445  14.450  0.3043  0.0997 -0.0826
 3524TIP3    H132063   3.203   1.431  14.427 -0.2969 -1.1644 -1.8697
 3524TIP3    H232064   3.089   1.370  14.505  0.3949  0.5525  0.5855
 3525TIP3   OH232065   5.051   4.603  11.603 -0.1715  0.1123  0.0677
 3525TIP3    H132066   4.993   4.542  11.557  0.9531 -0.6560 -0.3694
 3525TIP3    H232067   4.994   4.648  11.666 -1.1525 -0.9069 -0.0699
 3526TIP3   OH232068   5.550   0.193   6.566  0.6697 -0.0239  0.0015
 3526TIP3    H132069   5.464   0.151   6.565  1.2442 -1.4674  2.6502
 3526TIP3    H232070   5.579   0.189   6.474 -0.9707 -1.9202 -0.5217
 3527TIP3   OH232071   2.553   3.916  15.304  0.2876 -0.0602 -0.0793
 3527TIP3    H132072   2.646   3.894  15.299  0.0116 -1.2479 -0.4827
 3527TIP3    H232073   2.524   3.915  15.213 -0.1188  0.3441  0.0410
 3528TIP3   OH232074   0.555   6.713  13.686  0.5914  0.0080 -0.3961
 3528TIP3    H132075   0.605   6.784  13.648  0.1046  1.1768  1.0423
 3528TIP3    H232076   0.489   6.691  13.620  1.6972 -0.1837 -1.4705
 3529TIP3   OH232077   3.628   1.775   0.434 -0.0314 -0.3675  0.2937
 3529TIP3    H132078   3.696   1.841   0.421  0.2697 -0.4270  1.4808
 3529TIP3    H232079   3.610   1.742   0.346 -0.9598  2.0421 -0.4946
 3530TIP3   OH232080   2.096   2.011   2.969  0.2769 -0.1391 -0.0102
 3530TIP3    H132081   2.010   1.973   2.947  0.9039 -1.7771  0.1845
 3530TIP3    H232082   2.121   1.967   3.050  0.0535  2.4584  1.5839
 3531TIP3   OH232083   2.868   6.033   2.913  0.0524  0.5231 -0.2616
 3531TIP3    H132084   2.868   6.128   2.897 -1.0046  0.9614  1.9488
 3531TIP3    H232085   2.938   6.020   2.977  0.5870 -0.3027 -1.0031
 3532TIP3   OH232086   2.632   6.715   5.447 -0.3039 -0.3695 -0.5820
 3532TIP3    H132087   2.610   6.807   5.456  0.6408 -0.0978 -0.9243
 3532TIP3    H232088   2.629   6.681   5.537  0.2620  0.2146 -0.3337
 3533TIP3   OH232089   3.072   6.041   2.297  0.2059  0.2289  0.4189
 3533TIP3    H132090   3.070   6.073   2.207 -1.4154  1.6188  0.8732
 3533TIP3    H232091   3.119   6.109   2.345  0.1570  0.0129  0.7769
 3534TIP3   OH232092   5.818   2.301   4.798  0.3299 -0.1666 -0.4825
 3534TIP3    H132093   5.844   2.238   4.731  0.9005  0.3071 -0.7112
 3534TIP3    H232094   5.757   2.360   4.752 -1.4334 -1.4342  0.1175
 3535TIP3   OH232095   2.849   0.307  14.202 -0.5912  0.1565  0.3505
 3535TIP3    H132096   2.782   0.374  14.191 -2.3354 -1.2824  1.6742
 3535TIP3    H232097   2.826   0.239  14.137 -1.7354 -1.2825  2.1634
 3536TIP3   OH232098   2.979   5.288  11.807  0.0924  0.3557 -0.5879
 3536TIP3    H132099   2.997   5.209  11.858  0.2190  1.4159  1.0954
 3536TIP3    H232100   3.063   5.310  11.767  0.3923  0.3763  0.0414
 3537TIP3   OH232101   1.041   4.845   0.176  0.4803 -0.2423  0.0681
 3537TIP3    H132102   0.997   4.906   0.236  0.5755  0.5849 -0.6825
 3537TIP3    H232103   0.984   4.840   0.100  0.1006 -1.6984  0.4269
 3538TIP3   OH232104   4.640   3.857   3.748  0.5721  0.0020  0.2658
 3538TIP3    H132105   4.642   3.940   3.701  1.0177 -0.5024 -0.6328
 3538TIP3    H232106   4.551   3.851   3.783  0.6941  1.0990  0.8061
 3539TIP3   OH232107   5.988   1.464   3.488  0.6333  0.0122 -0.3186
 3539TIP3    H132108   6.082   1.447   3.480  0.2638 -2.5920  0.1338
 3539TIP3    H232109   5.963   1.419   3.569 -1.4687 -1.6726 -1.8175
 3540TIP3   OH232110   0.793   5.776  16.357  0.0920 -0.0174 -0.2408
 3540TIP3    H132111   0.735   5.791  16.432  0.0048 -1.6108  0.0590
 3540TIP3    H232112   0.869   5.730  16.394  1.6315  2.1067 -0.6167
 3541TIP3   OH232113   0.753   5.323   5.217  0.6025  0.5063 -0.4729
 3541TIP3    H132114   0.745   5.360   5.305  0.9686  0.0555 -0.2476
 3541TIP3    H232115   0.733   5.230   5.227 -1.0031  0.7363 -1.1551
 3542TIP3   OH232116   3.899   1.074  14.592  0.2072  0.0557  0.3065
 3542TIP3    H132117   3.955   1.071  14.514 -1.3457 -2.4266 -0.8301
 3542TIP3    H232118   3.942   1.017  14.655 -0.8688 -1.7339 -0.5135
 3543TIP3   OH232119   6.498   2.912   4.074 -0.2137 -0.5560 -0.1400
 3543TIP3    H132120   6.553   2.928   4.150  0.7613 -0.4185 -0.8578
 3543TIP3    H232121   6.478   2.818   4.078  0.9471 -0.8319 -0.4232
 3544TIP3   OH232122   4.851   0.556  13.586 -0.1228  0.3771 -0.0437
 3544TIP3    H132123   4.804   0.487  13.632 -1.9098  1.3180 -0.3728
 3544TIP3    H232124   4.903   0.599  13.654  1.1298 -1.3275  0.1433
 3545TIP3   OH232125   3.596   3.975  14.601 -0.0664  0.3406 -0.3537
 3545TIP3    H132126   3.519   3.987  14.547  0.2238 -1.6821 -1.2884
 3545TIP3    H232127   3.669   4.002  14.545  0.1168 -0.2849 -0.4158
 3546TIP3   OH232128   4.856   0.728  16.153  0.4873  0.0130 -0.4357
 3546TIP3    H132129   4.765   0.753  16.140  1.1051  2.6202 -0.4306
 3546TIP3    H232130   4.896   0.742  16.067  1.4620  2.0590  0.2764
 3547TIP3   OH232131   4.078   5.572  15.032  0.0375 -0.3228 -0.1767
 3547TIP3    H132132   4.039   5.642  14.981  1.1814  0.1109 -0.4815
 3547TIP3    H232133   4.084   5.607  15.121  1.4451  0.3449 -0.5061
 3548TIP3   OH232134   1.274   6.661   4.582  0.0295 -0.4748  0.1734
 3548TIP3    H132135   1.202   6.646   4.644 -1.5942  2.5537 -0.8088
 3548TIP3    H232136   1.324   6.733   4.621  0.8831 -0.6737 -0.5358
 3549TIP3   OH232137   1.754   4.390   5.714  0.0755 -0.6818 -0.0150
 3549TIP3    H132138   1.697   4.434   5.776 -1.5601 -1.1473 -1.1259
 3549TIP3    H232139   1.828   4.449   5.702 -0.4601  0.2170  1.0144
 3550TIP3   OH232140   3.351   0.268   6.409 -0.3703  0.2528 -0.1738
 3550TIP3    H132141   3.441   0.251   6.436 -0.6264 -0.2167  0.4069
 3550TIP3    H232142   3.352   0.261   6.314 -0.0521 -1.0425 -0.0893
 3551TIP3   OH232143   3.328   1.106   3.804  0.2793 -0.3091 -1.0605
 3551TIP3    H132144   3.418   1.137   3.791  0.3532 -0.1028 -0.1689
 3551TIP3    H232145   3.303   1.143   3.889 -0.9050  0.2246 -1.6243
 3552TIP3   OH232146   6.181   0.183  14.717  0.3206  0.3051 -0.2071
 3552TIP3    H132147   6.097   0.141  14.702  1.0472 -0.9627 -0.8802
 3552TIP3    H232148   6.213   0.145  14.799  1.9937 -2.2956 -1.9212
 3553TIP3   OH232149   4.928   1.403   1.984 -0.5907 -0.0283 -0.1031
 3553TIP3    H132150   4.839   1.435   2.000 -0.3073  0.8931 -0.3055
 3553TIP3    H232151   4.920   1.308   1.986 -1.6880  0.0358 -0.6801
 3554TIP3   OH232152   2.865   6.037   5.095  0.7725  0.1721 -0.3238
 3554TIP3    H132153   2.882   5.947   5.067 -0.1504  0.6534 -2.6893
 3554TIP3    H232154   2.949   6.081   5.086  0.9091 -0.1287 -0.5237
 3555TIP3   OH232155   1.549   4.664  14.275 -0.2436 -0.2953 -0.3893
 3555TIP3    H132156   1.558   4.662  14.371  1.2247 -2.3753 -0.4913
 3555TIP3    H232157   1.483   4.598  14.256  0.7890 -1.2154 -0.8737
 3556TIP3   OH232158   4.322   5.352  16.059  0.4588 -0.9200 -0.1954
 3556TIP3    H132159   4.400   5.372  16.008  2.0368  0.6136  2.6129
 3556TIP3    H232160   4.286   5.437  16.083 -0.9171 -1.6018  0.3031
 3557TIP3   OH232161   6.583   1.532   1.950  0.5190  0.4347 -0.0949
 3557TIP3    H132162   6.569   1.499   1.862  0.9041  2.4616 -0.9789
 3557TIP3    H232163   6.516   1.489   2.003  1.1014 -1.8157 -1.0761
 3558TIP3   OH232164   5.047   6.694   0.391 -0.0999 -0.4382 -0.2045
 3558TIP3    H132165   4.982   6.642   0.437 -0.5875 -0.7874 -1.2564
 3558TIP3    H232166   5.019   6.785   0.406  0.2581 -0.4928  0.9021
 3559TIP3   OH232167   0.940   2.514  16.842  0.1824 -0.7280 -0.2887
 3559TIP3    H132168   0.848   2.523  16.818 -0.2266 -0.7781  1.1644
 3559TIP3    H232169   0.961   2.423  16.825 -0.1877 -0.8442 -0.1347
 3560TIP3   OH232170   6.278   5.865  14.832  0.5609  0.5221 -0.1483
 3560TIP3    H132171   6.284   5.826  14.920  1.5670  0.3524 -0.2791
 3560TIP3    H232172   6.216   5.937  14.842 -0.4723 -0.3936  0.3636
 3561TIP3   OH232173   5.408   5.834   5.825 -0.1431 -0.3450 -0.8232
 3561TIP3    H132174   5.338   5.771   5.840 -1.0499  0.9788  0.9392
 3561TIP3    H232175   5.424   5.873   5.911  2.4138 -0.2188 -1.2791
 3562TIP3   OH232176   4.693   5.726   0.387  0.2160 -0.1502  0.3942
 3562TIP3    H132177   4.770   5.695   0.339 -0.2251 -0.0119 -0.4211
 3562TIP3    H232178   4.627   5.658   0.372 -0.4889  0.7391 -0.7016
 3563TIP3   OH232179   5.542   3.985  12.755 -0.5202 -0.2866 -0.0583
 3563TIP3    H132180   5.610   4.051  12.742 -1.1311  0.2906 -0.4177
 3563TIP3    H232181   5.563   3.915  12.694  0.9161 -1.0860  1.2864
 3564TIP3   OH232182   1.513   4.577   0.469 -0.2756 -0.6961 -0.3757
 3564TIP3    H132183   1.476   4.556   0.555 -2.2761 -0.7921 -1.1898
 3564TIP3    H232184   1.456   4.647   0.435 -0.7943 -1.9952 -2.3956
 3565TIP3   OH232185   5.625   4.136   0.734 -0.2016 -0.0696 -0.5193
 3565TIP3    H132186   5.668   4.054   0.758 -0.6740 -0.1996 -0.0907
 3565TIP3    H232187   5.686   4.204   0.761  0.8028 -0.2975 -2.0941
 3566TIP3   OH232188   3.951   0.835   6.184  0.3201  0.8438 -0.5506
 3566TIP3    H132189   4.033   0.798   6.152  0.9373  0.7309  1.0579
 3566TIP3    H232190   3.966   0.930   6.184  0.8405  0.7740  0.6900
 3567TIP3   OH232191   1.792   5.412  13.827  0.2218 -0.6593  0.0592
 3567TIP3    H132192   1.833   5.331  13.797 -2.9394 -1.4097 -2.7715
 3567TIP3    H232193   1.714   5.384  13.874  0.3911  0.7446  1.2365
 3568TIP3   OH232194   3.589   6.518  11.008 -0.4751  0.0202 -0.6225
 3568TIP3    H132195   3.623   6.480  10.928  0.4773 -0.4602 -0.0081
 3568TIP3    H232196   3.494   6.510  11.001 -0.3986  0.0309 -1.7098
 3569TIP3   OH232197   2.251   4.024  13.788 -0.1103  0.2153  0.2874
 3569TIP3    H132198   2.228   3.942  13.831  0.6460 -0.4643 -0.5670
 3569TIP3    H232199   2.340   4.043  13.819  0.3485 -0.1546 -0.7520
 3570TIP3   OH232200   2.930   0.800  16.516  0.4952  0.1061  0.1110
 3570TIP3    H132201   2.958   0.842  16.597 -2.5902  1.7020  0.4737
 3570TIP3    H232202   2.978   0.847  16.447  1.0990  0.5814  0.8382
 3571TIP3   OH232203   0.260   0.789  12.108  0.1177  0.6614  0.4405
 3571TIP3    H132204   0.296   0.836  12.033  1.0125 -0.8916 -0.1463
 3571TIP3    H232205   0.291   0.837  12.184  0.3323  1.4733 -0.1471
 3572TIP3   OH232206   6.820   0.537  10.821 -0.3893 -0.6226 -0.3546
 3572TIP3    H132207   6.833   0.604  10.753 -2.0712 -1.0567 -1.1598
 3572TIP3    H232208   6.877   0.465  10.795 -1.5385 -1.0665 -1.7458
 3573TIP3   OH232209   2.216   3.115   2.876 -0.0873  0.2991  0.5771
 3573TIP3    H132210   2.143   3.057   2.857 -0.5288  1.5766 -2.0997
 3573TIP3    H232211   2.176   3.194   2.912  0.1165  0.4545  0.4675
 3574TIP3   OH232212   6.048   5.266  16.330 -0.3716 -0.0994  0.4426
 3574TIP3    H132213   6.070   5.351  16.369  0.3145  0.0597 -0.2861
 3574TIP3    H232214   5.954   5.258  16.346 -0.4580  0.8165  0.4941
 3575TIP3   OH232215   2.492   0.985   2.790  0.4842  0.3129  0.3334
 3575TIP3    H132216   2.540   0.967   2.710 -0.5049 -1.0187  0.0118
 3575TIP3    H232217   2.466   1.077   2.783  0.9579  0.3847 -0.5531
 3576TIP3   OH232218   0.375   6.250   4.176 -0.3110  0.0039 -0.3967
 3576TIP3    H132219   0.342   6.277   4.262 -0.7485 -0.9503 -0.2470
 3576TIP3    H232220   0.326   6.304   4.114 -1.3406 -0.5625 -0.1138
 3577TIP3   OH232221   3.280   0.961   2.774  0.3761  0.3058  0.4242
 3577TIP3    H132222   3.230   0.994   2.700  0.4865 -0.1704  0.1319
 3577TIP3    H232223   3.370   0.986   2.756  0.3773  0.3486  0.4884
 3578TIP3   OH232224   3.219   1.139   1.915  0.2480  0.4823  0.2817
 3578TIP3    H132225   3.275   1.104   1.845  0.1670  0.7944  0.0587
 3578TIP3    H232226   3.249   1.229   1.927  0.5101  0.3167  0.9110
 3579TIP3   OH232227   2.768   4.945   2.658  0.4468  0.3301 -0.4764
 3579TIP3    H132228   2.695   4.917   2.602 -1.7743 -0.5383  2.6143
 3579TIP3    H232229   2.742   5.031   2.690 -0.4394 -0.8730  2.3598
 3580TIP3   OH232230   0.840   0.532   0.038  0.2309 -0.3821  0.0767
 3580TIP3    H132231   0.919   0.503  -0.008  2.0324 -2.5944  3.9896
 3580TIP3    H232232   0.785   0.455   0.042 -1.4750  0.7021 -1.1455
 3581TIP3   OH232233   4.724   1.945  16.178  0.2843  0.2995 -0.4126
 3581TIP3    H132234   4.746   1.876  16.115 -0.5607  0.1658 -0.5784
 3581TIP3    H232235   4.732   2.026  16.128 -0.7960  0.1657 -0.8294
 3582TIP3   OH232236   2.180   1.286   6.210  0.1526  0.1530  0.1048
 3582TIP3    H132237   2.105   1.343   6.196 -1.1059 -1.4523 -0.0281
 3582TIP3    H232238   2.169   1.252   6.299  2.0657  1.7299  1.0116
 3583TIP3   OH232239   1.692   1.468  13.882 -0.1392  0.1090  0.0327
 3583TIP3    H132240   1.620   1.442  13.824 -0.0206 -0.9097  0.3193
 3583TIP3    H232241   1.723   1.385  13.920  0.4457  0.6553  0.7745
 3584TIP3   OH232242   5.989   0.364  14.222  0.1038  0.1022  0.2750
 3584TIP3    H132243   5.951   0.281  14.194 -0.9564  0.6420  0.0697
 3584TIP3    H232244   6.059   0.339  14.283  0.2993 -0.9594 -0.3570
 3585TIP3   OH232245   2.802   5.033  15.418 -0.3384 -0.5443 -0.0793
 3585TIP3    H132246   2.713   5.063  15.438 -0.1079 -0.7960  1.4050
 3585TIP3    H232247   2.790   4.946  15.381 -0.7040 -0.6954  0.3817
 3586TIP3   OH232248   4.834   2.238   0.919 -0.4955  0.2470 -0.3709
 3586TIP3    H132249   4.847   2.331   0.933  0.8458  0.2821 -1.6261
 3586TIP3    H232250   4.855   2.197   1.003  0.4139  0.9610 -0.2442
 3587TIP3   OH232251   4.092   5.319   1.536  1.1038 -0.1114  0.2025
 3587TIP3    H132252   4.125   5.359   1.617 -0.1318  0.7617  0.2924
 3587TIP3    H232253   4.044   5.389   1.492  0.7246 -0.9192 -0.6977
 3588TIP3   OH232254   0.749   0.504   4.130  0.2919  0.1820  0.5413
 3588TIP3    H132255   0.843   0.508   4.112  0.9308 -2.3866  2.6111
 3588TIP3    H232256   0.709   0.480   4.047  1.5901  0.2817 -0.1357
 3589TIP3   OH232257   4.547   0.260   3.746 -0.6840  0.2912  0.0198
 3589TIP3    H132258   4.522   0.351   3.730  0.5840  0.7047  0.2413
 3589TIP3    H232259   4.593   0.234   3.666  0.8954  0.5902  0.7867
 3590TIP3   OH232260   6.702   2.681  15.681 -0.4284  0.9285  0.4516
 3590TIP3    H132261   6.783   2.664  15.729 -0.1282  0.4666 -0.2017
 3590TIP3    H232262   6.701   2.776  15.667  1.4055  0.7060 -1.8949
 3591TIP3   OH232263   2.122   1.478  13.636  0.1673 -0.0335 -0.2339
 3591TIP3    H132264   2.150   1.410  13.574 -1.6957  0.5020 -1.7687
 3591TIP3    H232265   2.026   1.472  13.635  0.0024  2.0088  0.2932
 3592TIP3   OH232266   5.351   0.464   5.309  0.2371  0.2551  0.2282
 3592TIP3    H132267   5.275   0.444   5.254  0.2249 -3.0352  1.2395
 3592TIP3    H232268   5.426   0.433   5.259  0.5251 -0.0131  0.8123
 3593TIP3   OH232269   3.452   2.091   3.279  0.2565 -1.1673  0.3015
 3593TIP3    H132270   3.504   2.127   3.207  0.4591 -1.2424  0.4107
 3593TIP3    H232271   3.361   2.114   3.257  0.5369  1.5615  1.5874
 3594TIP3   OH232272   0.656   4.294  16.132 -0.1132 -0.5705 -0.1195
 3594TIP3    H132273   0.670   4.364  16.069  0.7449 -0.8194 -0.2117
 3594TIP3    H232274   0.564   4.270  16.120 -0.5193  0.7583  0.1524
 3595TIP3   OH232275   5.965   6.464   5.711 -0.0787 -0.4248  0.2955
 3595TIP3    H132276   5.891   6.524   5.709 -0.3807 -0.7801  0.6939
 3595TIP3    H232277   5.926   6.377   5.709  0.3636 -0.6146 -0.4764
 3596TIP3   OH232278   3.165   1.494   2.762 -0.4422  0.3520  0.0241
 3596TIP3    H132279   3.160   1.588   2.744  0.5495  0.6504  1.2089
 3596TIP3    H232280   3.142   1.486   2.855  0.1799 -0.4967  0.1141
 3597TIP3   OH232281   4.492   6.250  14.816  0.0671 -0.7025 -0.3337
 3597TIP3    H132282   4.521   6.335  14.783  1.6397 -1.6078 -1.3820
 3597TIP3    H232283   4.445   6.271  14.897  0.9469  1.1045 -0.2456
 3598TIP3   OH232284   4.534   1.950   0.207  0.3979 -0.0538  0.0867
 3598TIP3    H132285   4.483   1.871   0.192  0.0141  0.1246  0.4013
 3598TIP3    H232286   4.530   1.963   0.302 -0.5827  1.0138 -0.0806
 3599TIP3   OH232287   1.954   2.197  12.282  0.4860 -0.2263 -0.3045
 3599TIP3    H132288   1.953   2.237  12.369  0.8356  1.2025 -0.9262
 3599TIP3    H232289   1.974   2.269  12.222  0.5974 -1.2392 -1.5456
 3600TIP3   OH232290   3.201   4.596  13.325 -0.2733 -0.1208  0.0772
 3600TIP3    H132291   3.190   4.650  13.246  0.1587  1.0958  0.8176
 3600TIP3    H232292   3.112   4.572  13.350 -0.3724 -1.2594 -1.2481
 3601TIP3   OH232293   0.370   0.550   2.392 -0.2885 -0.3580  0.1069
 3601TIP3    H132294   0.303   0.616   2.376  1.7648  1.3018 -2.4527
 3601TIP3    H232295   0.450   0.587   2.355  2.2361 -2.0297  3.3093
 3602TIP3   OH232296   3.316   4.421  11.290  0.4493  0.2107  0.1445
 3602TIP3    H132297   3.302   4.490  11.225 -2.3239 -1.6753 -1.4527
 3602TIP3    H232298   3.368   4.355  11.244  0.7940  0.0342  0.7720
 3603TIP3   OH232299   0.526   0.271   3.241 -0.2983 -0.6528 -0.5795
 3603TIP3    H132300   0.608   0.320   3.236 -0.3902 -0.2478  1.0896
 3603TIP3    H232301   0.537   0.198   3.181  1.9588 -1.5449  0.8136
 3604TIP3   OH232302   5.027   6.496  12.620  0.4140 -0.1238 -0.1294
 3604TIP3    H132303   5.100   6.534  12.669 -0.0375  1.2966 -0.5215
 3604TIP3    H232304   5.003   6.418  12.670  1.3224  0.1348  0.7471
 3605TIP3   OH232305   1.777   3.979   2.809 -0.4880 -0.5279 -0.2422
 3605TIP3    H132306   1.805   3.887   2.811  2.1747  0.2334  0.5690
 3605TIP3    H232307   1.758   3.996   2.717  0.2005 -1.5630 -0.5962
 3606TIP3   OH232308   0.581   3.407  16.044  0.0345 -0.0583  0.2817
 3606TIP3    H132309   0.626   3.339  15.993 -0.6080 -0.7491  0.6106
 3606TIP3    H232310   0.636   3.418  16.122 -1.4730 -2.6327  1.8803
 3607TIP3   OH232311   4.691   2.168  11.809 -0.2163  0.0137 -0.6121
 3607TIP3    H132312   4.759   2.101  11.797 -1.9770 -2.1871  0.9217
 3607TIP3    H232313   4.623   2.145  11.745 -1.1590 -0.1378  0.4200
 3608TIP3   OH232314   5.174   4.013  16.044  0.0273  0.3829 -0.0306
 3608TIP3    H132315   5.082   4.007  16.020  0.5149  1.3817 -2.4497
 3608TIP3    H232316   5.209   3.925  16.025 -0.2809  0.1997  0.2425
 3609TIP3   OH232317   2.014   0.170   4.096  0.7172  0.4763  0.6258
 3609TIP3    H132318   2.008   0.081   4.131  1.2299  0.5193  0.8298
 3609TIP3    H232319   2.108   0.187   4.089  0.6352  0.6194 -0.3926
 3610TIP3   OH232320   3.409   0.764  12.686  0.2261 -0.1726 -0.4067
 3610TIP3    H132321   3.487   0.817  12.669  0.1950 -0.0808 -0.2673
 3610TIP3    H232322   3.365   0.810  12.758 -0.3309  0.1720 -0.9617
 3611TIP3   OH232323   1.726   2.588   5.714 -0.0418 -0.5660  0.1078
 3611TIP3    H132324   1.644   2.584   5.764 -0.5070  0.6292 -0.5214
 3611TIP3    H232325   1.728   2.505   5.666 -0.6384 -0.8103  0.4894
 3612TIP3   OH232326   6.017   0.952  12.885 -0.4805 -0.4592  0.3334
 3612TIP3    H132327   6.080   1.011  12.927  0.4290 -2.5994  2.1590
 3612TIP3    H232328   6.055   0.933  12.800  0.8288 -0.8813  0.9925
 3613TIP3   OH232329   1.717   3.325  15.171  0.5694 -0.4541 -0.6215
 3613TIP3    H132330   1.700   3.233  15.187 -0.1261 -0.7009 -2.4644
 3613TIP3    H232331   1.636   3.370  15.196  0.2617 -0.5818 -1.3489
 3614TIP3   OH232332   2.730   4.502  14.197 -0.0400 -0.0566 -0.4498
 3614TIP3    H132333   2.737   4.510  14.292 -0.7143 -1.2032 -0.2875
 3614TIP3    H232334   2.772   4.418  14.176  0.0787  0.1703 -1.1631
 3615TIP3   OH232335   0.668   6.631   5.427 -0.0513 -0.2515 -0.3121
 3615TIP3    H132336   0.626   6.678   5.498  1.1938  1.3502 -0.5870
 3615TIP3    H232337   0.754   6.608   5.461  0.0244 -0.7530 -0.8208
 3616TIP3   OH232338   6.067   1.440   1.304 -0.4892  0.0197 -0.1787
 3616TIP3    H132339   6.110   1.513   1.348  1.6789 -0.9532 -0.5540
 3616TIP3    H232340   5.975   1.447   1.329 -0.0819  2.0251  0.9296
 3617TIP3   OH232341   1.386   1.034  13.771 -0.1490  0.0221 -0.1854
 3617TIP3    H132342   1.339   1.117  13.762  0.0591  0.4033  1.7301
 3617TIP3    H232343   1.338   0.987  13.840 -0.2801 -1.4814 -1.2418
 3618TIP3   OH232344   2.783   5.337  14.142  0.2692  0.0740  0.2808
 3618TIP3    H132345   2.720   5.409  14.154  0.3764 -0.0692  2.0114
 3618TIP3    H232346   2.868   5.378  14.157  0.5914  0.1549 -1.5490
 3619TIP3   OH232347   1.142   5.033  16.982 -0.1484 -0.3563 -0.1094
 3619TIP3    H132348   1.057   5.064  17.014 -0.6020 -0.4647 -1.1791
 3619TIP3    H232349   1.166   5.095  16.913  0.2314 -0.8320 -0.4128
 3620TIP3   OH232350   4.034   4.652  13.039 -0.0896 -0.3494 -0.3428
 3620TIP3    H132351   4.017   4.574  12.988 -0.2908 -1.8584  1.8983
 3620TIP3    H232352   4.047   4.621  13.129  1.9645  1.9693  0.2929
 3621TIP3   OH232353   6.766   0.535   0.798 -0.2342  0.1979  0.1631
 3621TIP3    H132354   6.712   0.562   0.723  0.9289 -0.3203 -0.8924
 3621TIP3    H232355   6.856   0.544   0.768  0.2520 -0.6710  1.2787
 3622TIP3   OH232356   6.069   1.934   5.597  0.0110  0.2974  0.4041
 3622TIP3    H132357   6.145   1.966   5.645  0.7347 -0.6023 -0.1032
 3622TIP3    H232358   6.095   1.940   5.505  0.3225 -1.9923  0.2837
 3623TIP3   OH232359   1.657   2.848   5.658  0.2781  0.4575 -0.1792
 3623TIP3    H132360   1.588   2.878   5.717 -0.6045  1.0029 -1.4498
 3623TIP3    H232361   1.674   2.758   5.685 -0.4669  0.5296  0.5731
 3624TIP3   OH232362   0.786   5.150   3.095  0.0562 -0.4786 -0.0445
 3624TIP3    H132363   0.779   5.069   3.044  2.2914 -1.2249  0.7335
 3624TIP3    H232364   0.876   5.179   3.083 -0.8490  2.3673 -0.8811
 3625TIP3   OH232365   4.493   2.012  12.607  0.1249  0.0314  0.3797
 3625TIP3    H132366   4.549   1.944  12.646  1.0211  0.8450  0.5324
 3625TIP3    H232367   4.527   2.023  12.518 -1.2636 -1.0816 -0.3336
 3626TIP3   OH232368   6.770   0.999  14.945  0.1130  0.2197 -0.0585
 3626TIP3    H132369   6.829   1.023  15.017 -0.6607  0.1336  0.6148
 3626TIP3    H232370   6.825   0.948  14.885  0.9886  1.0219  0.0327
 3627TIP3   OH232371   1.141   0.024   4.781 -0.1848 -0.1235  0.5516
 3627TIP3    H132372   1.066   0.073   4.749 -1.9264 -1.6944  1.9873
 3627TIP3    H232373   1.155   0.057   4.870 -0.9987 -1.6709  1.3120
 3628TIP3   OH232374   2.733   6.573  14.346  0.0528 -0.0261 -0.6689
 3628TIP3    H132375   2.800   6.622  14.300  0.2000 -1.7891 -2.5074
 3628TIP3    H232376   2.760   6.481  14.337 -1.5326 -0.6400  0.3391
 3629TIP3   OH232377   0.630   0.046   4.673  0.2483  0.0034 -0.1194
 3629TIP3    H132378   0.562  -0.022   4.674  0.2456 -0.0357 -1.4215
 3629TIP3    H232379   0.600   0.111   4.737 -1.9087  0.7986 -1.7777
 3630TIP3   OH232380   0.220   3.270   0.288 -0.9891  0.3788 -0.4756
 3630TIP3    H132381   0.142   3.292   0.238 -1.1733 -0.1558 -0.4298
 3630TIP3    H232382   0.234   3.176   0.271 -0.5656  0.3894 -0.2014
 3631TIP3   OH232383   3.636   3.462   1.338 -0.1051 -0.0405  0.4019
 3631TIP3    H132384   3.548   3.426   1.328  0.3235 -0.5523 -2.3960
 3631TIP3    H232385   3.622   3.553   1.366 -1.5176 -0.1664  0.1558
 3632TIP3   OH232386   5.812   3.278  11.878 -0.0591 -0.2143 -0.1007
 3632TIP3    H132387   5.802   3.344  11.946 -1.4932  0.8228 -1.2499
 3632TIP3    H232388   5.732   3.225  11.884  0.4636 -1.0055 -0.0597
 3633TIP3   OH232389   0.039   4.731  11.599  0.0716  0.6135 -0.1144
 3633TIP3    H132390   0.134   4.735  11.612  0.2470 -0.6644 -0.7909
 3633TIP3    H232391   0.003   4.723  11.687  0.8339 -1.9962  0.0630
 3634TIP3   OH232392   1.012   1.527  16.828 -0.5760 -0.6546 -0.4139
 3634TIP3    H132393   1.101   1.539  16.861 -1.0709 -0.7661  1.0628
 3634TIP3    H232394   0.975   1.616  16.828 -0.8507 -0.7643  0.1841
 3635TIP3   OH232395   6.060   4.955   2.892 -1.0819 -0.0125 -0.2958
 3635TIP3    H132396   5.982   4.960   2.838 -1.0006  0.7266 -0.3583
 3635TIP3    H232397   6.028   4.930   2.979 -1.3054 -0.3953 -0.4898
 3636TIP3   OH232398   1.488   5.496  10.555  0.2136 -0.5672 -0.0245
 3636TIP3    H132399   1.457   5.579  10.589  0.8451 -0.0573 -0.6759
 3636TIP3    H232400   1.449   5.488  10.468  2.6642  0.6054 -1.3306
 3637TIP3   OH232401   3.009   1.152  11.030 -0.2724 -0.2018 -0.0113
 3637TIP3    H132402   3.041   1.191  10.948 -1.0556 -0.0882 -0.2733
 3637TIP3    H232403   3.088   1.136  11.081  0.3767 -1.6697 -1.4055
 3638TIP3   OH232404   5.224   2.773   1.488 -0.7983  0.2069  0.1627
 3638TIP3    H132405   5.133   2.756   1.512 -0.2893 -0.5833  1.6389
 3638TIP3    H232406   5.221   2.856   1.439 -2.2926  0.1914  0.1829
 3639TIP3   OH232407   5.803   6.075   1.375  0.1015  0.2810 -0.0462
 3639TIP3    H132408   5.888   6.041   1.400 -0.5724 -1.4425 -0.0060
 3639TIP3    H232409   5.792   6.049   1.284 -1.4844 -1.9124  0.7061
 3640TIP3   OH232410   6.822   3.447  13.806  0.2127 -0.0430 -0.2965
 3640TIP3    H132411   6.864   3.367  13.837 -0.0597  0.0541  0.3467
 3640TIP3    H232412   6.776   3.420  13.727  0.1201 -0.5317 -0.0833
 3641TIP3   OH232413   6.745   2.258  17.037 -0.1045 -0.6021  0.3310
 3641TIP3    H132414   6.801   2.191  17.074  0.1364 -0.1075  0.8749
 3641TIP3    H232415   6.801   2.336  17.030 -1.0128  0.2470  2.0116
 3642TIP3   OH232416   4.495   3.109   2.152 -0.0056  0.3049  0.1301
 3642TIP3    H132417   4.506   3.194   2.108  1.2905  0.8100  1.3519
 3642TIP3    H232418   4.481   3.047   2.081  2.0893  1.0680 -1.0398
 3643TIP3   OH232419   1.127   4.822   4.934 -0.4121 -0.7500 -0.5108
 3643TIP3    H132420   1.053   4.861   4.886 -0.9256 -1.3352 -0.2008
 3643TIP3    H232421   1.094   4.738   4.966  1.1454 -2.2132 -2.4862
 3644TIP3   OH232422   6.689   6.700   4.474 -0.3314  0.4498 -0.3721
 3644TIP3    H132423   6.725   6.787   4.453  1.8131 -0.0468  0.9294
 3644TIP3    H232424   6.610   6.719   4.525 -1.2156  1.5939 -2.0626
 3645TIP3   OH232425   0.592   5.834  11.755 -0.1416 -0.4902 -0.1779
 3645TIP3    H132426   0.517   5.879  11.793  0.3599  0.1565  0.0545
 3645TIP3    H232427   0.616   5.887  11.679 -0.1841 -0.9328 -0.5056
 3646TIP3   OH232428   1.163   4.769   3.297  0.8087 -0.2938  0.7504
 3646TIP3    H132429   1.216   4.848   3.292  1.2712 -0.6780 -1.7566
 3646TIP3    H232430   1.195   4.714   3.225 -0.4868 -2.1398  1.5035
 3647TIP3   OH232431   0.373   4.553  13.794  0.3875  0.0160 -0.6187
 3647TIP3    H132432   0.372   4.525  13.886  0.6639  1.2741 -0.2074
 3647TIP3    H232433   0.295   4.512  13.756 -0.4345  0.4640  0.5066
 3648TIP3   OH232434   2.174   1.975   0.771 -0.0543  0.5248 -0.2662
 3648TIP3    H132435   2.161   2.070   0.780 -1.9970  0.5901 -2.6960
 3648TIP3    H232436   2.088   1.941   0.748  0.6805 -1.8097  0.2004
 3649TIP3   OH232437   1.148   3.455   4.317 -0.4192 -0.1940  0.1112
 3649TIP3    H132438   1.234   3.430   4.283  0.8945  0.5361  2.6691
 3649TIP3    H232439   1.121   3.382   4.372 -0.1064  0.7356  1.5363
 3650TIP3   OH232440   2.037   3.755  16.473  0.3618 -0.1054  0.1412
 3650TIP3    H132441   2.063   3.663  16.473  1.9553  0.2964  1.2901
 3650TIP3    H232442   2.118   3.803  16.456 -0.2590  1.1237  0.5281
 3651TIP3   OH232443   0.378   4.894  15.208 -0.1296  0.1132  0.1912
 3651TIP3    H132444   0.410   4.905  15.118 -2.3772 -0.6472 -0.7843
 3651TIP3    H232445   0.382   4.982  15.245  0.1917  0.5788 -0.8965
 3652TIP3   OH232446   0.960   0.367   0.260  0.2767 -0.5501 -0.0078
 3652TIP3    H132447   0.902   0.441   0.273  1.6705  0.3941  1.2251
 3652TIP3    H232448   0.927   0.299   0.319 -0.0289 -0.2940  0.1145
 3653TIP3   OH232449   5.445   6.739   2.626 -0.1144  0.1454 -0.0269
 3653TIP3    H132450   5.360   6.733   2.581  0.0532  2.1834 -0.7080
 3653TIP3    H232451   5.488   6.814   2.586  1.7992 -0.5015  0.7168
 3654TIP3   OH232452   2.615   3.964   0.735 -0.2875  0.4524  0.3149
 3654TIP3    H132453   2.656   4.049   0.753 -0.4580  0.1967  2.1239
 3654TIP3    H232454   2.687   3.909   0.704  0.2253  0.7325  0.9687
 3655TIP3   OH232455   3.385   2.719  15.952 -0.0006  0.2561 -0.3877
 3655TIP3    H132456   3.333   2.639  15.960  1.1262 -0.6045 -1.3314
 3655TIP3    H232457   3.474   2.688  15.935  0.5683  1.7101 -0.1550
 3656TIP3   OH232458   2.914   0.202  10.610  0.1480 -0.1696  0.0601
 3656TIP3    H132459   2.899   0.112  10.638  1.9898 -0.3815  0.5002
 3656TIP3    H232460   2.932   0.195  10.516  0.3756 -0.2720  0.1111
 3657TIP3   OH232461   6.773   5.017   6.546  0.1796 -0.3759  0.1066
 3657TIP3    H132462   6.714   5.071   6.600  0.6784 -0.3998  0.6874
 3657TIP3    H232463   6.742   4.928   6.560 -0.4180 -0.2891 -0.5715
 3658TIP3   OH232464   1.548   4.104  12.243  0.7229  0.6237  0.2686
 3658TIP3    H132465   1.553   4.045  12.318 -0.8540 -0.8025 -0.6879
 3658TIP3    H232466   1.460   4.142  12.248  0.3782  0.0650 -1.1500
 3659TIP3   OH232467   4.613   5.801  16.758 -0.0945  0.1171  0.4372
 3659TIP3    H132468   4.668   5.879  16.762  1.2142 -0.8203  1.5332
 3659TIP3    H232469   4.529   5.829  16.794  0.6402  0.8112  1.6772
 3660TIP3   OH232470   0.359   4.981   2.800  0.2830 -0.5570 -0.2970
 3660TIP3    H132471   0.283   5.023   2.838 -0.8843 -3.0856  0.3907
 3660TIP3    H232472   0.355   5.002   2.707 -0.2219  0.8060  0.0178
 3661TIP3   OH232473   1.604   3.316  16.640  0.3251  0.3134 -0.4407
 3661TIP3    H132474   1.684   3.337  16.591  0.0863  4.9308  0.7008
 3661TIP3    H232475   1.633   3.309  16.731 -0.3710  0.7941 -0.1739
 3662TIP3   OH232476   5.642   2.892   2.961  0.0427  0.0480  0.2628
 3662TIP3    H132477   5.737   2.897   2.947  0.1525  0.6793  1.1209
 3662TIP3    H232478   5.608   2.973   2.922  0.6234  3.1250  5.2409
 3663TIP3   OH232479   2.428   0.825  16.999 -0.3077  0.3134 -0.2488
 3663TIP3    H132480   2.417   0.769  17.076  0.9795  0.2685 -0.0821
 3663TIP3    H232481   2.435   0.914  17.035 -0.5024  0.3805 -0.3750
 3664TIP3   OH232482   0.010   0.920   3.423 -0.2119  0.9329 -0.0725
 3664TIP3    H132483   0.087   0.915   3.366  0.1058  0.0181  0.4124
 3664TIP3    H232484  -0.035   0.836   3.411 -0.4996  0.9931  0.5144
 3665TIP3   OH232485   6.130   1.740   4.203  0.2222 -0.0280 -0.3046
 3665TIP3    H132486   6.064   1.695   4.150  1.4886 -0.4869 -1.5788
 3665TIP3    H232487   6.114   1.710   4.292 -1.3781  0.0116 -0.5575
 3666TIP3   OH232488   5.368   2.269   5.562 -0.2795  0.0971  0.0263
 3666TIP3    H132489   5.421   2.343   5.531 -0.9048  0.7638  0.4875
 3666TIP3    H232490   5.306   2.309   5.623 -2.2468 -0.4202 -1.5272
 3667TIP3   OH232491   1.235   6.515  14.739  0.4328 -0.0593  0.3925
 3667TIP3    H132492   1.270   6.500  14.651  1.1134  2.0973  0.2548
 3667TIP3    H232493   1.272   6.443  14.791 -0.3114 -1.6065 -1.1252
 3668TIP3   OH232494   5.400   0.845   3.496  0.3077 -0.1329  0.5555
 3668TIP3    H132495   5.463   0.780   3.525 -0.5943 -0.9009  0.8153
 3668TIP3    H232496   5.319   0.823   3.540 -0.4600  0.1365 -0.6585
 3669TIP3   OH232497   2.450   1.046  13.218 -0.0096  0.5446 -0.2219
 3669TIP3    H132498   2.398   0.998  13.155 -2.0300  1.0431  0.9863
 3669TIP3    H232499   2.482   1.123  13.170 -0.5303  0.3135 -0.9476
 3670TIP3   OH232500   4.501   0.920  11.954  0.1061  0.5265 -0.8894
 3670TIP3    H132501   4.447   0.848  11.987 -1.3587  1.9569  0.0163
 3670TIP3    H232502   4.470   0.935  11.865  1.3711 -0.8163 -1.5882
 3671TIP3   OH232503   0.341   0.185  13.749  0.5510  0.2494  0.1860
 3671TIP3    H132504   0.359   0.185  13.655 -0.5614 -0.7535 -0.0467
 3671TIP3    H232505   0.304   0.271  13.767  0.5465  0.3582 -0.3282
 3672TIP3   OH232506   4.390   4.169   2.998 -0.5754 -0.7145  0.0007
 3672TIP3    H132507   4.437   4.233   2.945  0.1666 -1.3570 -0.1287
 3672TIP3    H232508   4.380   4.211   3.083  2.2051 -1.3848  0.7434
 3673TIP3   OH232509   6.768   6.057   5.386 -0.1646  0.3700 -0.3152
 3673TIP3    H132510   6.787   5.987   5.448  0.9541  0.4501 -0.5529
 3673TIP3    H232511   6.710   6.016   5.321  0.6274 -0.4107 -0.5597
 3674TIP3   OH232512   4.046   3.773  13.895 -0.2168  0.0223  0.2176
 3674TIP3    H132513   4.121   3.827  13.922 -1.6728  1.7463  1.0348
 3674TIP3    H232514   3.987   3.834  13.851 -2.2848 -0.6881  1.8545
 3675TIP3   OH232515   1.507   3.476   0.678  0.1110 -0.4307  0.1742
 3675TIP3    H132516   1.592   3.435   0.664  0.6188  0.1160  1.5201
 3675TIP3    H232517   1.477   3.500   0.590  1.1975 -0.9081 -0.3386
 3676TIP3   OH232518   2.652   6.052  16.366  0.2891 -0.5769 -0.3723
 3676TIP3    H132519   2.676   5.959  16.359  0.3407 -0.6291  0.4094
 3676TIP3    H232520   2.683   6.090  16.284  1.1215 -1.0691 -0.3051
 3677TIP3   OH232521   6.275   4.429   1.698 -0.0792 -0.2737 -0.7499
 3677TIP3    H132522   6.240   4.425   1.788  0.4366 -0.7435 -0.5703
 3677TIP3    H232523   6.275   4.523   1.678 -2.2837 -0.2811 -1.0956
 3678TIP3   OH232524   1.977   4.120  13.665  0.1936  0.5459  0.3400
 3678TIP3    H132525   2.063   4.083  13.686 -0.3362 -0.6295  0.4938
 3678TIP3    H232526   1.926   4.045  13.635 -0.4375  1.4244 -0.8631
 3679TIP3   OH232527   6.776   6.282   4.199  0.1349 -0.3464 -0.4771
 3679TIP3    H132528   6.824   6.213   4.245 -1.4279 -1.7462 -0.8640
 3679TIP3    H232529   6.751   6.343   4.267  1.1675 -0.3662 -0.0590
 3680TIP3   OH232530   4.077   3.875  13.566 -0.3573  0.0442  0.1215
 3680TIP3    H132531   4.042   3.935  13.499 -0.1973 -1.8494 -1.7711
 3680TIP3    H232532   4.007   3.811  13.580 -0.3742  0.3968  1.8163
 3681TIP3   OH232533   1.491   6.305   0.522  0.3880 -0.5293  0.1209
 3681TIP3    H132534   1.490   6.343   0.610  0.7314  0.3636 -0.2509
 3681TIP3    H232535   1.579   6.325   0.488 -0.2859  0.6171 -1.0429
 3682TIP3   OH232536   4.987   5.773  10.773  0.6077  0.3107 -0.2714
 3682TIP3    H132537   4.932   5.852  10.764 -0.5769 -0.4310  0.2241
 3682TIP3    H232538   4.937   5.705  10.729 -0.5871 -1.1613  3.0183
 3683TIP3   OH232539   4.900   2.135   1.997 -0.5233 -1.1378  0.1222
 3683TIP3    H132540   4.985   2.094   1.981 -1.1248 -2.7505  0.7997
 3683TIP3    H232541   4.879   2.179   1.915  0.7522 -1.0814 -0.1998
 3684TIP3   OH232542   4.297   5.561   4.860  0.0163  0.3747 -0.6937
 3684TIP3    H132543   4.240   5.583   4.786 -0.0569 -1.1388 -1.1313
 3684TIP3    H232544   4.248   5.588   4.937  0.5272  2.9343 -1.1771
 3685TIP3   OH232545   0.017   1.752  15.385 -0.2730 -0.0725  0.3683
 3685TIP3    H132546  -0.035   1.782  15.459  0.4101  1.5949  0.2257
 3685TIP3    H232547   0.038   1.661  15.405 -0.4952  0.2125  1.9899
 3686TIP3   OH232548   3.881   3.154   2.790 -0.6480 -0.0504  0.4763
 3686TIP3    H132549   3.857   3.179   2.701 -1.2729  1.2950  0.9970
 3686TIP3    H232550   3.862   3.231   2.843  0.2746 -0.6176  1.6950
 3687TIP3   OH232551   2.704   5.708  16.790  0.0733 -0.3903 -0.4744
 3687TIP3    H132552   2.692   5.622  16.830 -0.3569 -0.7437 -1.3214
 3687TIP3    H232553   2.722   5.689  16.697  2.7311  0.3138 -0.1983
 3688TIP3   OH232554   2.773   2.386   6.388  0.0252  0.3524 -0.5484
 3688TIP3    H132555   2.795   2.468   6.432  0.8271  1.8739 -3.4648
 3688TIP3    H232556   2.858   2.346   6.368 -0.2994 -0.2984 -0.6423
 3689TIP3   OH232557   1.247   0.549   3.589 -0.1884 -0.0300  0.2032
 3689TIP3    H132558   1.190   0.537   3.664  1.0087 -0.0355  1.1441
 3689TIP3    H232559   1.229   0.474   3.533 -1.1163 -0.0105  0.4568
 3690TIP3   OH232560   4.254   5.020  11.530  0.3280 -0.7596 -0.2784
 3690TIP3    H132561   4.323   5.077  11.498 -1.3088  1.3414 -0.3133
 3690TIP3    H232562   4.274   4.934  11.493  2.3591 -0.0082 -1.0415
 3691TIP3   OH232563   2.299   6.726  16.859 -0.4033  0.5903  0.0304
 3691TIP3    H132564   2.294   6.682  16.943  2.4242  0.5501  0.2776
 3691TIP3    H232565   2.241   6.677  16.801  0.4884 -1.7544  1.0171
 3692TIP3   OH232566   3.369   1.976   1.397 -0.0159 -0.5770  0.3410
 3692TIP3    H132567   3.348   2.016   1.313 -0.0512 -1.4648 -0.0703
 3692TIP3    H232568   3.387   2.051   1.455 -0.6977  0.0573 -0.2565
 3693TIP3   OH232569   1.040   4.593   4.424 -0.3920  0.2938  0.4624
 3693TIP3    H132570   0.950   4.621   4.406 -0.6903  1.4046  3.2102
 3693TIP3    H232571   1.032   4.533   4.498  1.1621  0.6650  0.9524
 3694TIP3   OH232572   3.602   4.248   0.861  0.7242 -0.2562 -0.0329
 3694TIP3    H132573   3.620   4.174   0.918  0.6522  0.6993  1.2751
 3694TIP3    H232574   3.507   4.262   0.870  0.4944 -0.8089 -1.3151
 3695TIP3   OH232575   5.123   2.407  11.384 -0.5162 -0.2113  0.2605
 3695TIP3    H132576   5.119   2.324  11.336 -1.4112 -0.3644  0.5937
 3695TIP3    H232577   5.197   2.396  11.444  0.2347 -0.2440 -0.6473
 3696TIP3   OH232578   3.369   2.081   2.342  0.0580 -0.5677 -0.2282
 3696TIP3    H132579   3.352   2.113   2.254  0.7302  0.8421  0.1179
 3696TIP3    H232580   3.287   2.093   2.389 -0.4968 -1.9097 -0.7860
 3697TIP3   OH232581   3.843   5.702   0.503 -0.0559 -0.3265 -0.2346
 3697TIP3    H132582   3.805   5.661   0.426 -1.1423 -0.1282  0.1849
 3697TIP3    H232583   3.813   5.793   0.501  0.2908 -0.1952  0.1775
 3698TIP3   OH232584   4.532   1.071   3.581  0.0520 -0.4638  0.0117
 3698TIP3    H132585   4.481   1.097   3.505  0.1369  0.1236  0.1531
 3698TIP3    H232586   4.565   0.984   3.559 -0.8262 -0.7593 -0.1712
 3699TIP3   OH232587   3.076   1.912  11.168  0.5905  0.2498  0.1603
 3699TIP3    H132588   3.142   1.974  11.137 -1.4736  2.9033  0.6770
 3699TIP3    H232589   3.007   1.915  11.102  0.3795 -1.4800  0.2647
 3700TIP3   OH232590   0.722   4.554  12.956  0.1916 -0.0060  0.2904
 3700TIP3    H132591   0.710   4.625  13.019  1.3928  1.5457 -1.1148
 3700TIP3    H232592   0.636   4.543  12.915 -0.1424  0.2514  0.9190
 3701TIP3   OH232593   5.345   5.048  15.372  0.0200 -0.4443 -0.0514
 3701TIP3    H132594   5.424   5.101  15.360  0.0798 -0.0052  2.0004
 3701TIP3    H232595   5.356   5.007  15.458 -1.7660 -0.7634  0.0620
 3702TIP3   OH232596   4.737   6.746  15.886  0.1014  0.3539  0.0646
 3702TIP3    H132597   4.697   6.669  15.927 -1.3975  1.1096  0.0658
 3702TIP3    H232598   4.716   6.819  15.944  0.1025  1.0310 -0.7624
 3703TIP3   OH232599   6.260   1.899   3.633  0.3370 -0.0991  0.4882
 3703TIP3    H132600   6.247   1.992   3.613 -1.1189 -0.6995 -1.6215
 3703TIP3    H232601   6.283   1.898   3.726 -0.6092  2.2935  0.8244
 3704TIP3   OH232602   2.760   1.833  13.167 -0.2938 -0.1557 -0.2760
 3704TIP3    H132603   2.667   1.829  13.144 -0.2710  0.1893 -0.4228
 3704TIP3    H232604   2.806   1.804  13.088 -0.3193 -1.6922  0.2271
 3705TIP3   OH232605   0.105   0.919  11.833  0.0448 -0.1666  0.3010
 3705TIP3    H132606   0.113   0.992  11.772 -0.4113 -1.0372 -0.8403
 3705TIP3    H232607   0.051   0.953  11.905 -1.7075  0.0980 -1.0869
 3706TIP3   OH232608   0.456   4.454   0.538  0.6597 -0.2617 -0.0817
 3706TIP3    H132609   0.534   4.508   0.551  0.8547 -0.2116 -1.2967
 3706TIP3    H232610   0.471   4.410   0.454  0.3371 -1.9410  0.7128
 3707TIP3   OH232611   0.519   3.328  11.314  0.8214 -1.2006 -0.1295
 3707TIP3    H132612   0.499   3.304  11.223 -1.0726 -0.8378  0.1524
 3707TIP3    H232613   0.530   3.423  11.311 -2.6501 -0.6791  0.5097
 3708TIP3   OH232614   6.689   1.932  13.494  0.1778 -0.0444  0.0632
 3708TIP3    H132615   6.776   1.901  13.521  0.4268 -1.0886 -1.7523
 3708TIP3    H232616   6.644   1.854  13.464 -0.3549  0.8597 -1.6283
 3709TIP3   OH232617   5.914   5.054  16.978 -0.1472  0.6770  0.0377
 3709TIP3    H132618   5.896   4.960  16.979 -0.7418  0.7623 -1.0232
 3709TIP3    H232619   5.834   5.094  17.014 -0.8002  0.8783 -1.5741
 3710TIP3   OH232620   6.447   1.923  15.426  0.2090  0.0703 -0.1376
 3710TIP3    H132621   6.363   1.892  15.392  0.2756 -1.3208  0.8329
 3710TIP3    H232622   6.431   1.936  15.520  0.8410  0.6648 -0.1094
 3711TIP3   OH232623   0.280   4.804   5.207 -0.4177  0.0227  0.5602
 3711TIP3    H132624   0.320   4.720   5.229  0.0188 -0.2778 -1.2283
 3711TIP3    H232625   0.200   4.781   5.160  0.1483  0.5922 -0.7070
 3712TIP3   OH232626   4.383   1.878   2.658  0.1444  0.0948 -0.4574
 3712TIP3    H132627   4.342   1.814   2.716  0.1273  0.1943 -0.3596
 3712TIP3    H232628   4.375   1.962   2.704 -0.0532  0.2088 -0.6929
 3713TIP3   OH232629   5.546   5.305  16.278 -0.1977 -0.5682 -0.4339
 3713TIP3    H132630   5.497   5.343  16.350 -0.1573 -0.9334 -0.2093
 3713TIP3    H232631   5.559   5.213  16.303 -0.7981 -0.8875 -1.2200
 3714TIP3   OH232632   0.159   2.244   2.506  0.6171  0.5550 -0.5478
 3714TIP3    H132633   0.090   2.261   2.570 -1.2660 -1.3654 -1.9383
 3714TIP3    H232634   0.179   2.331   2.469 -0.5124  1.2453  0.3972
 3715TIP3   OH232635   5.969   0.254   3.202  0.1496 -0.1073  0.5759
 3715TIP3    H132636   5.965   0.166   3.163 -0.5303  0.4188 -0.5779
 3715TIP3    H232637   5.881   0.289   3.190  0.2692  0.5378  1.5297
 3716TIP3   OH232638   5.604   3.778  13.703 -0.2398  0.2416  0.5736
 3716TIP3    H132639   5.516   3.745  13.723 -0.5204  0.4094 -0.3569
 3716TIP3    H232640   5.614   3.764  13.609  1.6717 -2.0608  1.0243
 3717TIP3   OH232641   4.319   4.267  15.107 -0.2065 -0.4995 -0.2357
 3717TIP3    H132642   4.288   4.289  15.195  0.3644  1.4695 -0.4744
 3717TIP3    H232643   4.303   4.173  15.098  2.5126 -1.4792  3.1204
 3718TIP3   OH232644   1.709   1.964  12.873  0.2308  0.7159 -0.3437
 3718TIP3    H132645   1.654   1.947  12.796  0.6931  1.4927 -0.8653
 3718TIP3    H232646   1.722   2.059  12.873  0.9811  0.6277  0.1710
 3719TIP3   OH232647   2.112   6.083  10.941 -0.4430 -0.0259 -0.4962
 3719TIP3    H132648   2.115   6.130  10.857 -0.8041  2.6129  0.8866
 3719TIP3    H232649   2.203   6.082  10.970 -0.6478  1.4147  0.2676
 3720TIP3   OH232650   5.067   0.701  13.792 -0.0427  0.0995 -0.1274
 3720TIP3    H132651   5.024   0.715  13.876  0.7078  1.7580  0.0137
 3720TIP3    H232652   5.052   0.782  13.743  0.9248 -0.1996 -0.9603
 3721TIP3   OH232653   0.327   6.161  15.229 -0.0944 -0.0502  0.2202
 3721TIP3    H132654   0.373   6.094  15.281  2.1461 -0.7345 -2.4031
 3721TIP3    H232655   0.385   6.237  15.232 -1.3142  0.8998  0.9268
 3722TIP3   OH232656   4.540   5.475   3.437  0.1922  0.3826  0.0971
 3722TIP3    H132657   4.554   5.560   3.397  0.4781 -0.1524 -0.9863
 3722TIP3    H232658   4.505   5.494   3.524  1.4033  1.6287  0.3377
 3723TIP3   OH232659   6.687   5.563   3.331 -0.0875  0.2804  0.1122
 3723TIP3    H132660   6.603   5.534   3.296 -0.0018  0.2501 -0.0698
 3723TIP3    H232661   6.743   5.573   3.254  0.8558 -2.1165  0.4089
 3724TIP3   OH232662   2.732   0.035   3.484  0.7802 -0.1792  0.1113
 3724TIP3    H132663   2.740   0.070   3.395 -0.3085  0.0784  0.1033
 3724TIP3    H232664   2.642   0.054   3.509  1.3442  0.6560  1.6593
 3725TIP3   OH232665   3.189   6.002   3.365  0.3927 -0.1877  0.4686
 3725TIP3    H132666   3.182   6.045   3.450 -2.5803  1.3311 -0.4158
 3725TIP3    H232667   3.124   5.932   3.367  0.7179 -0.5340 -0.3486
 3726TIP3   OH232668   0.081   4.610  16.165  0.0182 -0.1829  0.4279
 3726TIP3    H132669   0.106   4.539  16.224 -0.6574 -0.3528  0.5178
 3726TIP3    H232670   0.143   4.681  16.185  0.2859 -0.5185  0.7906
 3727TIP3   OH232671   0.929   0.396  12.945 -0.3495 -0.1806 -0.2211
 3727TIP3    H132672   0.969   0.448  12.874 -1.6483  0.0551 -0.7982
 3727TIP3    H232673   0.938   0.306  12.916 -3.3269  0.0094 -2.0910
 3728TIP3   OH232674   6.521   3.977  16.838  0.3828  0.4101  0.3728
 3728TIP3    H132675   6.431   3.956  16.814  0.1414  0.8111  0.9030
 3728TIP3    H232676   6.552   4.033  16.767  1.0047 -1.5788 -1.0042
 3729TIP3   OH232677   5.803   6.724  15.601 -0.2875  0.2760 -0.5472
 3729TIP3    H132678   5.711   6.696  15.603  0.1771 -1.2691  0.8486
 3729TIP3    H232679   5.804   6.806  15.651 -0.8904  0.2771 -0.5231
 3730TIP3   OH232680   4.879   2.609   0.534 -0.3743 -0.4924  0.3027
 3730TIP3    H132681   4.798   2.559   0.545 -0.2458 -0.3098  2.4853
 3730TIP3    H232682   4.913   2.582   0.449 -1.5188 -2.3371  0.3924
 3731TIP3   OH232683   3.942   5.980   1.396  0.1863  0.2616 -0.0828
 3731TIP3    H132684   3.847   5.972   1.386 -0.2556 -2.8797  3.9366
 3731TIP3    H232685   3.975   5.891   1.385  2.6959  1.2008 -0.9985
 3732TIP3   OH232686   6.065   2.164   0.921 -0.8244  0.5282 -0.3076
 3732TIP3    H132687   5.994   2.129   0.975 -1.0219 -1.5380 -1.7706
 3732TIP3    H232688   6.144   2.146   0.971 -0.9770 -1.6247 -0.7623
 3733TIP3   OH232689   3.936   2.744  14.416  0.3839  0.0068 -0.4180
 3733TIP3    H132690   3.980   2.818  14.459  0.2259  0.5281 -1.1376
 3733TIP3    H232691   3.967   2.746  14.326  0.8942 -1.2232 -0.2943
 3734TIP3   OH232692   3.354   5.472   2.980 -0.4484  0.5217  0.5134
 3734TIP3    H132693   3.444   5.502   2.992  0.3022 -1.0051 -0.8439
 3734TIP3    H232694   3.301   5.533   3.031  1.1496  2.6812 -0.2688
 3735TIP3   OH232695   6.741   2.599   4.848 -0.1566  0.2335 -0.0538
 3735TIP3    H132696   6.699   2.684   4.863 -1.4534 -0.7886  2.6559
 3735TIP3    H232697   6.703   2.568   4.766 -0.2048  1.9215 -0.7061
 3736TIP3   OH232698   5.910   0.656   3.987 -0.4130 -0.2723  0.0465
 3736TIP3    H132699   5.941   0.678   3.899  0.9050  0.2022  0.5980
 3736TIP3    H232700   5.860   0.732   4.015 -2.3070 -1.1020 -0.9084
 3737TIP3   OH232701   0.302   2.210   5.335 -0.2208  0.4714  0.6314
 3737TIP3    H132702   0.362   2.271   5.294 -1.7137  0.6407 -1.4707
 3737TIP3    H232703   0.216   2.233   5.299 -1.0912 -1.6824  1.1602
 3738TIP3   OH232704   5.987   5.625  11.866 -0.0119 -0.2808 -0.2818
 3738TIP3    H132705   6.079   5.605  11.851 -0.1225 -1.1743  0.1902
 3738TIP3    H232706   5.963   5.575  11.944 -1.2199 -1.0812 -1.1165
 3739TIP3   OH232707   5.974   6.170  12.669  0.2352  0.3766 -0.7915
 3739TIP3    H132708   5.893   6.127  12.698  0.4634 -1.6458 -2.8791
 3739TIP3    H232709   5.947   6.223  12.594  0.6318  0.8666 -0.5967
 3740TIP3   OH232710   3.940   2.075   0.817 -0.4268  0.2598 -0.2414
 3740TIP3    H132711   3.955   2.094   0.909  0.7018 -2.7819  0.3137
 3740TIP3    H232712   3.845   2.080   0.806 -0.6583 -0.2880  1.3179
 3741TIP3   OH232713   4.374   2.206  12.142  0.1674  0.3095  0.3744
 3741TIP3    H132714   4.340   2.143  12.205  0.8057 -1.1087 -0.6515
 3741TIP3    H232715   4.299   2.228  12.087  0.4499 -1.5496 -0.8500
 3742TIP3   OH232716   0.204   0.364   0.249 -0.3879  0.6755  0.0484
 3742TIP3    H132717   0.113   0.379   0.276  0.1849  1.9607  1.3650
 3742TIP3    H232718   0.257   0.412   0.312  1.2261  0.1159 -0.8080
 3743TIP3   OH232719   5.905   5.852  14.826  0.0214 -0.1118  0.0472
 3743TIP3    H132720   5.937   5.904  14.900  1.4562 -1.3035  0.3153
 3743TIP3    H232721   5.810   5.848  14.839  0.0354  1.2497  0.7672
 3744TIP3   OH232722   4.285   4.059  15.407  0.6648 -0.7009  0.4019
 3744TIP3    H132723   4.340   3.982  15.399  1.2373 -0.2431 -0.2321
 3744TIP3    H232724   4.196   4.028  15.390  1.1808 -0.7733 -2.6448
 3745TIP3   OH232725   1.491   1.277   0.307  0.0481  0.1945 -0.0623
 3745TIP3    H132726   1.427   1.215   0.272  0.2758 -0.3644  0.4909
 3745TIP3    H232727   1.509   1.246   0.396 -0.2402  1.3691  0.4218
 3746TIP3   OH232728   2.235   5.342  14.918  0.4093  0.5632  0.4233
 3746TIP3    H132729   2.204   5.425  14.955  0.1196  0.5413  0.2352
 3746TIP3    H232730   2.187   5.334  14.836  1.8316  1.1314 -0.4922
 3747TIP3   OH232731   1.271   2.758  14.422  0.0075 -0.4705  0.2036
 3747TIP3    H132732   1.193   2.756  14.366  0.6666 -0.4373 -0.7487
 3747TIP3    H232733   1.304   2.847  14.412 -0.5583 -0.0703  1.6618
 3748TIP3   OH232734   2.124   5.024  12.329  0.2244 -0.2524  0.4164
 3748TIP3    H132735   2.194   5.086  12.350 -1.9843  2.0314  1.5947
 3748TIP3    H232736   2.079   5.009  12.412 -2.9717  1.4703 -0.8170
 3749TIP3   OH232737   2.140   1.520   4.629  0.2545  0.0425  0.6941
 3749TIP3    H132738   2.154   1.428   4.606 -0.5049  0.5182 -1.9514
 3749TIP3    H232739   2.153   1.568   4.548 -1.0403  2.1067  1.6181
 3750TIP3   OH232740   4.740   3.261   2.698 -0.2036 -0.2349 -0.0194
 3750TIP3    H132741   4.829   3.269   2.732 -0.8778  1.1796  1.5430
 3750TIP3    H232742   4.685   3.300   2.765 -1.9991 -0.7979 -1.0927
 3751TIP3   OH232743   1.929   5.235   1.092  0.3522  0.0608  0.0093
 3751TIP3    H132744   2.008   5.189   1.065  1.2916  1.8408 -0.4044
 3751TIP3    H232745   1.857   5.182   1.056  1.3837 -0.8718 -0.7387
 3752TIP3   OH232746   0.515   3.609  11.291 -0.4003  0.2725 -0.8228
 3752TIP3    H132747   0.605   3.636  11.272  0.2150 -0.2417  1.1598
 3752TIP3    H232748   0.484   3.670  11.357 -1.6576  0.6524 -1.7290
 3753TIP3   OH232749   2.463   6.027   3.335 -0.2816  0.8364 -0.0572
 3753TIP3    H132750   2.537   6.043   3.277 -0.8416  1.1935 -0.6965
 3753TIP3    H232751   2.392   5.999   3.276  0.0738 -2.2490  0.7820
 3754TIP3   OH232752   2.782   0.533   1.482  0.3063 -0.6257 -0.4976
 3754TIP3    H132753   2.810   0.508   1.394 -0.6895 -0.1847 -0.9531
 3754TIP3    H232754   2.751   0.623   1.473  0.7235 -0.3718  0.4292
 3755TIP3   OH232755   5.996   4.178   6.023  0.1419 -0.0705  0.0429
 3755TIP3    H132756   6.025   4.149   6.110 -0.6523  1.5837  0.9179
 3755TIP3    H232757   6.075   4.210   5.980  0.1077  2.2057  1.4915
 3756TIP3   OH232758   1.173   3.145   3.998  0.4402  0.0110 -0.0777
 3756TIP3    H132759   1.125   3.202   3.939 -0.7140 -1.4429 -0.6144
 3756TIP3    H232760   1.243   3.200   4.033 -0.8210  1.8208 -0.2816
 3757TIP3   OH232761   3.514   1.612  14.929 -0.6907  0.0249 -0.5014
 3757TIP3    H132762   3.456   1.667  14.878 -2.0738 -0.6873  0.2290
 3757TIP3    H232763   3.457   1.569  14.992  0.9153  0.7865  1.6005
 3758TIP3   OH232764   0.078   5.463  11.680  0.2001 -0.0995  0.8478
 3758TIP3    H132765   0.094   5.448  11.587  2.2112 -0.8170  1.2464
 3758TIP3    H232766   0.055   5.556  11.685 -1.4380 -0.3870 -0.4882
 3759TIP3   OH232767   1.645   4.129  12.704  0.6590  0.3298 -0.2147
 3759TIP3    H132768   1.566   4.150  12.654 -0.1084 -1.5921  0.1079
 3759TIP3    H232769   1.661   4.037  12.685  1.3862  0.0273  1.6698
 3760TIP3   OH232770   3.024   0.245  12.586 -0.7913 -0.1188 -0.2542
 3760TIP3    H132771   3.093   0.180  12.604 -1.0560  0.2332  2.4960
 3760TIP3    H232772   2.964   0.237  12.660 -1.0379  2.9763  0.0256
 3761TIP3   OH232773   1.777   3.432  16.450 -0.0578  0.1728 -0.6632
 3761TIP3    H132774   1.722   3.504  16.422 -1.1632 -1.1568 -2.0699
 3761TIP3    H232775   1.754   3.359  16.393  1.4664 -1.1393  0.2727
 3762TIP3   OH232776   3.222   0.126  13.200  0.7424  0.0977  0.5458
 3762TIP3    H132777   3.176   0.184  13.139 -1.0532 -2.2539 -0.5347
 3762TIP3    H232778   3.189   0.150  13.286 -0.7140  0.0986  0.0206
 3763TIP3   OH232779   2.928   4.076   5.170  0.5706 -0.0500  0.0310
 3763TIP3    H132780   2.926   4.048   5.078  0.3966  0.1344 -0.0204
 3763TIP3    H232781   2.959   4.167   5.167 -1.2881  0.6101 -0.0014
 3764TIP3   OH232782   1.415   4.762   2.880  0.2079  0.5378  0.4715
 3764TIP3    H132783   1.435   4.721   2.796  0.0675 -0.2250  0.7997
 3764TIP3    H232784   1.422   4.856   2.863  0.0733  0.3990 -0.4172
 3765TIP3   OH232785   3.930   4.698   1.857  0.1347 -0.2713 -0.1665
 3765TIP3    H132786   3.902   4.787   1.837 -4.9820 -1.2933  1.1008
 3765TIP3    H232787   3.956   4.702   1.950 -1.9435 -0.3469  0.4606
 3766TIP3   OH232788   4.074   2.543   1.837  0.0887  0.2477  0.0823
 3766TIP3    H132789   4.152   2.599   1.826 -0.1946  0.2487 -2.8773
 3766TIP3    H232790   4.098   2.462   1.793 -1.2812 -0.0640 -0.1115
 3767TIP3   OH232791   5.206   1.383   3.448  0.0267 -0.5204  0.4388
 3767TIP3    H132792   5.211   1.431   3.365 -1.5182  1.3539  1.3412
 3767TIP3    H232793   5.293   1.390   3.486  0.7531 -1.3883 -0.9761
 3768TIP3   OH232794   3.253   6.403  16.291  0.0120 -0.3493 -0.4413
 3768TIP3    H132795   3.315   6.350  16.241 -0.0147 -0.7625 -0.0359
 3768TIP3    H232796   3.221   6.468  16.228  0.4286 -0.4921 -0.8001
 3769TIP3   OH232797   6.841   3.859   0.699 -0.8820 -0.5977 -0.0645
 3769TIP3    H132798   6.789   3.928   0.740 -0.0858  0.2069 -0.3707
 3769TIP3    H232799   6.784   3.825   0.630 -1.1688 -0.0120 -0.1314
 3770TIP3   OH232800   1.943   6.622   3.285  0.5371  0.8264  0.3069
 3770TIP3    H132801   1.918   6.531   3.274 -0.4736  0.7758  2.4387
 3770TIP3    H232802   1.860   6.670   3.288  1.0690  2.0961 -2.3100
 3771TIP3   OH232803   0.586   5.042   5.921 -0.2246 -0.2123 -0.0646
 3771TIP3    H132804   0.538   5.077   5.996 -0.1950 -1.2416  0.4517
 3771TIP3    H232805   0.520   4.990   5.874  0.1427 -0.8806  0.1443
 3772TIP3   OH232806   3.620   5.332  12.972  0.0701 -0.3289  0.1995
 3772TIP3    H132807   3.526   5.321  12.988  0.0452  0.7147  0.8393
 3772TIP3    H232808   3.660   5.320  13.058  0.4107  0.3784  0.1453
 3773TIP3   OH232809   0.361   5.238  14.640 -0.1575 -0.1026  0.3515
 3773TIP3    H132810   0.386   5.311  14.583 -0.3384 -0.7053 -0.5201
 3773TIP3    H232811   0.265   5.240  14.641 -0.1507  0.0698  0.8589
 3774TIP3   OH232812   2.065   3.400   0.640 -0.0056  0.5699  0.6685
 3774TIP3    H132813   2.066   3.410   0.735 -0.4867  2.2639  0.5419
 3774TIP3    H232814   2.052   3.489   0.607 -0.4147 -0.0499 -0.9681
 3775TIP3   OH232815   4.589   6.499  15.893 -0.1710  0.1282  0.1399
 3775TIP3    H132816   4.552   6.465  15.812  0.0580  1.6046 -0.6145
 3775TIP3    H232817   4.516   6.499  15.955 -0.7067  0.2644 -0.4794
 3776TIP3   OH232818   6.050   3.641   1.832 -0.4952  0.2333 -0.7418
 3776TIP3    H132819   6.136   3.675   1.857  0.3448 -1.2723 -1.4468
 3776TIP3    H232820   6.011   3.711   1.779  0.2337  0.9749 -0.3306
 3777TIP3   OH232821   3.236   6.392   0.015 -0.4473 -0.2201 -0.1675
 3777TIP3    H132822   3.307   6.450   0.044 -0.7651 -0.1913  0.5762
 3777TIP3    H232823   3.281   6.312  -0.015 -0.0962 -0.2197  0.3422
 3778TIP3   OH232824   4.009   6.513   1.384 -0.1091  0.1430  0.5603
 3778TIP3    H132825   3.960   6.573   1.441 -0.8383 -0.8769  1.0435
 3778TIP3    H232826   4.021   6.434   1.437  1.1624 -0.0186  0.0713
 3779TIP3   OH232827   3.127   3.050   4.549  0.4256  0.1969  0.2973
 3779TIP3    H132828   3.186   3.111   4.505  0.8052 -0.7043 -0.5074
 3779TIP3    H232829   3.082   3.102   4.615 -2.1960  2.3604 -2.8869
 3780TIP3   OH232830   5.046   3.132   2.289 -0.3148 -0.0348 -0.2343
 3780TIP3    H132831   4.973   3.112   2.348  1.8336 -0.7773  2.4048
 3780TIP3    H232832   5.024   3.089   2.207 -2.9207 -0.0119  0.3802
 3781TIP3   OH232833   1.436   2.814  14.812 -1.2963 -0.4725 -0.0327
 3781TIP3    H132834   1.465   2.724  14.820  0.0435 -0.1171 -0.5706
 3781TIP3    H232835   1.484   2.848  14.736 -0.9150  1.0151  0.8404
 3782TIP3   OH232836   4.793   1.076  12.704 -0.2997  0.3054 -0.2399
 3782TIP3    H132837   4.768   1.055  12.614 -1.9871  1.3527 -0.0554
 3782TIP3    H232838   4.873   1.128  12.696  1.4541 -2.2625 -0.9099
 3783TIP3   OH232839   6.143   5.272   3.753  0.1504 -0.4214 -0.0321
 3783TIP3    H132840   6.213   5.207   3.756  0.1664 -0.3953  0.1436
 3783TIP3    H232841   6.093   5.258   3.833  1.6044  1.4105  1.2902
 3784TIP3   OH232842   2.586   4.241   2.617  0.1326 -0.4532 -0.2175
 3784TIP3    H132843   2.552   4.317   2.569 -0.1001  0.8854  1.9370
 3784TIP3    H232844   2.534   4.168   2.585 -0.5250  0.5100 -1.4479
 3785TIP3   OH232845   3.184   6.800  16.474 -0.0056 -0.3657  0.2046
 3785TIP3    H132846   3.091   6.819  16.473  0.3104  1.2982  0.4766
 3785TIP3    H232847   3.192   6.722  16.528 -1.3117 -1.0713 -0.5640
 3786TIP3   OH232848   5.732   6.205  16.654  0.5350  0.8594  0.0998
 3786TIP3    H132849   5.820   6.177  16.627 -0.1192 -1.2949  0.0593
 3786TIP3    H232850   5.725   6.176  16.745 -0.3194  0.5791 -0.0512
 3787TIP3   OH232851   1.680   4.237  14.556 -0.6604  0.0055 -0.5195
 3787TIP3    H132852   1.660   4.273  14.470 -0.4067 -0.4324 -0.7671
 3787TIP3    H232853   1.713   4.311  14.606  0.4418  0.0002 -1.2141
 3788TIP3   OH232854   2.713   0.797  14.859 -0.2307  0.1390  0.3263
 3788TIP3    H132855   2.628   0.838  14.879 -0.0194  0.6595  0.1607
 3788TIP3    H232856   2.767   0.869  14.826  1.0236  0.2874  2.5754
 3789TIP3   OH232857   3.511   3.398   1.814 -0.9280 -0.2630  0.2987
 3789TIP3    H132858   3.477   3.336   1.749  0.1154 -1.2145  0.6325
 3789TIP3    H232859   3.605   3.403   1.796 -1.0855  1.9151 -0.2690
 3790TIP3   OH232860   1.695   4.814  14.041 -0.2339  0.1957 -0.1523
 3790TIP3    H132861   1.697   4.748  14.110 -1.6449 -0.7251 -0.9437
 3790TIP3    H232862   1.631   4.878  14.071 -1.1509 -0.4167 -0.7703
 3791TIP3   OH232863   0.389   1.217   2.687  0.1007  0.1024 -0.4022
 3791TIP3    H132864   0.329   1.194   2.616  1.5166 -0.8214 -1.3521
 3791TIP3    H232865   0.337   1.206   2.767 -0.9437 -0.8567 -1.1805
 3792TIP3   OH232866   0.938   5.318  15.695  0.0234  0.2438 -0.2336
 3792TIP3    H132867   0.917   5.230  15.724  0.4173  0.3858  0.4858
 3792TIP3    H232868   0.905   5.322  15.605 -0.1954 -0.5572 -0.1916
 3793TIP3   OH232869   2.353   5.937  15.455 -0.0678 -0.4981  0.7414
 3793TIP3    H132870   2.327   5.901  15.540 -0.4833 -3.3008 -0.4378
 3793TIP3    H232871   2.274   5.932  15.402  0.2297  1.0434  0.1146
 3794TIP3   OH232872   4.399   2.655   0.793  0.3793 -0.0372  0.4895
 3794TIP3    H132873   4.354   2.700   0.864 -1.8918  1.2854 -1.6105
 3794TIP3    H232874   4.337   2.588   0.764  1.6846 -1.2446  0.3512
 3795TIP3   OH232875   0.960   6.036   5.592 -0.4044  0.1608  0.8742
 3795TIP3    H132876   0.946   5.966   5.529 -0.9647  0.6156  0.4780
 3795TIP3    H232877   0.948   6.117   5.542 -1.3804  0.5292  1.6541
 3796TIP3   OH232878   3.105   5.083   3.131  0.4749  0.1963 -0.0180
 3796TIP3    H132879   3.019   5.071   3.091  0.1003  1.1897  0.4423
 3796TIP3    H232880   3.158   5.011   3.098 -0.5858 -0.5304 -0.1801
 3797TIP3   OH232881   0.783   3.124   1.405 -0.0533 -0.4171  0.5134
 3797TIP3    H132882   0.695   3.087   1.407 -0.9896  1.7135  0.8389
 3797TIP3    H232883   0.800   3.141   1.312 -0.0238 -0.7360  0.4600
 3798TIP3   OH232884   5.175   4.852   2.894  0.4157  0.0668 -0.0067
 3798TIP3    H132885   5.109   4.841   2.826  1.2443 -0.7322 -0.7127
 3798TIP3    H232886   5.232   4.921   2.861  0.1172  0.5376  0.4562
 3799TIP3   OH232887   1.901   5.748  15.883  0.2936 -0.4881  0.3617
 3799TIP3    H132888   1.809   5.720  15.881  1.0057 -3.3320  1.9784
 3799TIP3    H232889   1.897   5.840  15.910 -2.0725 -1.1125  2.6315
 3800TIP3   OH232890   1.217   2.935   0.434  0.6085 -0.0581  0.0899
 3800TIP3    H132891   1.292   2.953   0.377  1.0455 -1.3249  0.2262
 3800TIP3    H232892   1.248   2.867   0.494 -0.9038 -1.2752 -0.4334
 3801TIP3   OH232893   4.762   4.121  15.755 -0.0773 -0.4023 -0.2705
 3801TIP3    H132894   4.680   4.075  15.735 -0.4549 -0.1790  0.7409
 3801TIP3    H232895   4.750   4.208  15.716 -0.4767 -0.2406  0.2162
 3802TIP3   OH232896   6.546   6.286   2.382 -0.2499  0.6038 -0.7291
 3802TIP3    H132897   6.636   6.318   2.390 -0.1793  0.2489  0.0233
 3802TIP3    H232898   6.552   6.212   2.323 -0.2431  1.2919 -1.6161
 3803TIP3   OH232899   6.070   5.219   5.632 -0.3159 -0.5434  1.1064
 3803TIP3    H132900   6.066   5.200   5.726  0.0854  0.5070  1.3534
 3803TIP3    H232901   5.979   5.227   5.605 -0.7527 -5.0939  0.4160
 3804TIP3   OH232902   4.443   4.869   3.226  0.1078  0.4763 -0.3585
 3804TIP3    H132903   4.458   4.834   3.138 -0.1665  0.7258 -0.5064
 3804TIP3    H232904   4.457   4.794   3.284 -1.6469 -0.2198 -0.7464
 3805TIP3   OH232905   2.852   0.853   1.971  0.3781  0.0226 -0.0224
 3805TIP3    H132906   2.791   0.912   2.017  0.1689  1.0460 -1.5440
 3805TIP3    H232907   2.818   0.765   1.989  0.7533  0.3038  2.3776
 3806TIP3   OH232908   2.371   6.796  12.800 -0.0804 -0.2421 -0.2257
 3806TIP3    H132909   2.300   6.835  12.851  0.9785 -0.0214  1.1289
 3806TIP3    H232910   2.449   6.842  12.830  0.7380 -0.9942 -1.1658
 3807TIP3   OH232911   6.180   4.379   1.262  0.3150  0.2577  0.2682
 3807TIP3    H132912   6.225   4.341   1.338  0.0693  0.1003  0.3357
 3807TIP3    H232913   6.207   4.323   1.189 -0.6392 -0.5174  0.4909
 3808TIP3   OH232914   6.061   5.694   1.998 -0.1896  0.1140 -0.2180
 3808TIP3    H132915   6.059   5.760   1.928 -1.4086  0.6361  0.2759
 3808TIP3    H232916   5.988   5.718   2.055  1.0465 -0.0243  1.4989
 3809TIP3   OH232917   3.168   5.035   2.382 -0.1836  0.6336 -0.3983
 3809TIP3    H132918   3.206   5.068   2.300  2.5712  2.3979  1.3971
 3809TIP3    H232919   3.108   5.103   2.410 -3.3611 -1.2025 -2.1496
 3810TIP3   OH232920   3.518   2.620   5.286 -0.6804  0.3998 -0.2267
 3810TIP3    H132921   3.541   2.537   5.244  0.0884  0.2538  0.4565
 3810TIP3    H232922   3.550   2.687   5.226  1.1055  0.1954  0.4618
 3811TIP3   OH232923   5.889   2.474   3.853  0.7001  0.0327  0.4767
 3811TIP3    H132924   5.891   2.424   3.772  2.6520 -0.7386  0.9509
 3811TIP3    H232925   5.847   2.557   3.829  2.5256  0.4134 -1.6901
 3812TIP3   OH232926   0.624   4.575   6.643 -0.2621 -0.1382 -0.0030
 3812TIP3    H132927   0.643   4.668   6.654 -0.7712  0.2342 -1.9077
 3812TIP3    H232928   0.698   4.530   6.685  0.0655  1.1017  0.8017
 3813TIP3   OH232929   5.043   0.348   4.618 -0.3179 -0.0480  0.2158
 3813TIP3    H132930   5.080   0.433   4.642 -1.1358  0.6546 -0.9287
 3813TIP3    H232931   5.098   0.318   4.545  1.2507 -1.4945  1.8971
 3814TIP3   OH232932   2.935   6.401  12.435 -0.2657 -0.7341  0.2141
 3814TIP3    H132933   2.854   6.373  12.477 -0.5348 -1.1436 -0.5685
 3814TIP3    H232934   2.935   6.497  12.443 -1.2514 -0.6601 -0.5231
 3815TIP3   OH232935   0.692   4.166  11.171 -0.1331  0.1595 -0.4006
 3815TIP3    H132936   0.640   4.238  11.207  1.0938 -0.0296  1.8978
 3815TIP3    H232937   0.721   4.199  11.085  0.5797  2.5228  0.6540
 3816TIP3   OH232938   4.077   0.177  13.891  0.4231 -0.2380  0.3898
 3816TIP3    H132939   4.076   0.269  13.864 -1.8017 -0.4043 -0.3015
 3816TIP3    H232940   4.144   0.137  13.836  1.0003  0.8471  0.2725
 3817TIP3   OH232941   1.285   0.929  16.524  0.3694 -0.6622 -0.5611
 3817TIP3    H132942   1.376   0.910  16.547  0.6986 -1.0784 -2.1118
 3817TIP3    H232943   1.273   0.889  16.438 -1.2583 -0.5189 -0.4256
 3818TIP3   OH232944   1.823   2.757  16.013 -0.4674 -1.0659 -0.1600
 3818TIP3    H132945   1.875   2.782  16.089  0.3177 -0.7219 -0.7879
 3818TIP3    H232946   1.802   2.840  15.970 -1.0495 -1.2447 -0.2248
 3819TIP3   OH232947   3.639   4.634   3.713  0.0536 -0.4686  0.8488
 3819TIP3    H132948   3.553   4.631   3.754 -0.3974 -1.0327 -0.0900
 3819TIP3    H232949   3.621   4.658   3.622  0.9737  0.2840  0.8503
 3820TIP3   OH232950   2.927   0.771   4.460 -0.6029 -0.0905 -0.0471
 3820TIP3    H132951   2.953   0.708   4.528 -0.5549  0.9092  0.9010
 3820TIP3    H232952   3.009   0.802   4.423 -0.6485 -1.8396 -1.7673
 3821TIP3   OH232953   3.503   5.882   1.993 -0.4832 -0.0177 -0.1618
 3821TIP3    H132954   3.576   5.839   2.036 -1.0500 -1.5584 -0.6333
 3821TIP3    H232955   3.478   5.953   2.051 -0.3159 -1.1408  1.3356
 3822TIP3   OH232956   5.808   2.784  14.461  0.7063 -0.3106 -0.2070
 3822TIP3    H132957   5.900   2.810  14.455  1.4004 -2.5299  0.1337
 3822TIP3    H232958   5.769   2.847  14.521  2.3810 -0.2557  0.8757
 3823TIP3   OH232959   1.336   0.926   2.787  0.2654 -0.0474  0.2020
 3823TIP3    H132960   1.352   1.020   2.781 -2.1524  0.3140 -2.1423
 3823TIP3    H232961   1.416   0.891   2.829  0.9106  3.0515  1.8516
 3824TIP3   OH232962   3.986   5.548  14.170 -0.2699  0.0733  0.5358
 3824TIP3    H132963   3.963   5.575  14.081  2.4449  0.9552 -0.0184
 3824TIP3    H232964   4.060   5.489  14.158 -1.0201 -1.2623  2.1697
 3825TIP3   OH232965   4.406   0.248  14.457  0.4332 -0.2111  0.4267
 3825TIP3    H132966   4.471   0.315  14.478 -1.4983  2.3974 -1.2799
 3825TIP3    H232967   4.352   0.240  14.536  0.6830  0.2575  0.6436
 3826TIP3   OH232968   3.755   2.717  11.850  0.0624  0.2958  0.1071
 3826TIP3    H132969   3.812   2.768  11.793  2.6540 -2.2437  0.1824
 3826TIP3    H232970   3.783   2.742  11.939 -1.1315  1.2415  0.2468
 3827TIP3   OH232971   5.028   4.521   5.476  0.4082 -0.0858 -0.2904
 3827TIP3    H132972   5.023   4.528   5.572  0.9675  2.6726 -0.3897
 3827TIP3    H232973   5.019   4.427   5.459 -0.1224 -0.6234  2.4260
 3828TIP3   OH232974   1.817   5.925   6.022  0.4961 -0.1014 -0.5226
 3828TIP3    H132975   1.762   5.942   6.098  0.6455 -2.2156  0.1271
 3828TIP3    H232976   1.757   5.887   5.957  0.1038  2.7655 -2.0398
 3829TIP3   OH232977   0.493   3.533   0.767  0.1936 -0.3314 -0.3007
 3829TIP3    H132978   0.463   3.624   0.764 -1.7770 -0.9583 -1.3842
 3829TIP3    H232979   0.449   3.496   0.843 -1.3667 -1.0748 -1.4998
 3830TIP3   OH232980   6.175   1.205   1.396 -0.7926  0.4286  0.0615
 3830TIP3    H132981   6.149   1.142   1.329  1.2216  0.6671 -1.0264
 3830TIP3    H232982   6.164   1.290   1.355 -1.9601  0.7444  0.9641
 3831TIP3   OH232983   4.152   0.547  16.681  0.9199  0.0520  0.4459
 3831TIP3    H132984   4.199   0.464  16.673  0.7138 -0.1407  1.1120
 3831TIP3    H232985   4.208   0.600  16.739  0.5542 -0.0089  0.8636
 3832TIP3   OH232986   6.517   0.702  14.840  0.0347 -0.4011  0.6035
 3832TIP3    H132987   6.490   0.683  14.929  0.9212  0.1736  1.0024
 3832TIP3    H232988   6.534   0.615  14.802 -2.3887 -0.8164  0.2805
 3833TIP3   OH232989   3.256   3.010  12.448  0.2658  0.2440  0.3118
 3833TIP3    H132990   3.179   3.030  12.502 -1.5553  0.2541 -2.1440
 3833TIP3    H232991   3.297   2.936  12.492 -0.1807  1.2434  2.5760
 3834TIP3   OH232992   3.745   2.253  15.684 -0.3743 -0.3081 -0.2064
 3834TIP3    H132993   3.739   2.262  15.779  1.6351 -0.8024  0.0147
 3834TIP3    H232994   3.776   2.339  15.654 -1.5090  0.0157 -0.5005
 3835TIP3   OH232995   5.979   0.208  15.017 -0.2656 -0.6511 -0.1788
 3835TIP3    H132996   5.961   0.269  15.089  0.2157  1.9467 -2.1492
 3835TIP3    H232997   6.068   0.178  15.034 -0.6653 -1.2223  1.0583
 3836TIP3   OH232998   1.346   3.708  16.654  0.4172 -0.6459  0.1498
 3836TIP3    H132999   1.391   3.662  16.724  0.1474  0.8474  1.3572
 3836TIP3    H233000   1.411   3.770  16.620 -0.2137  0.4209  0.8402
 3837TIP3   OH233001   4.993   3.740   5.871 -0.5657  0.3595  0.2918
 3837TIP3    H133002   4.963   3.773   5.955  0.6412  0.9631  0.5072
 3837TIP3    H233003   5.088   3.756   5.871 -0.0912 -1.9880 -0.0972
 3838TIP3   OH233004   1.909   5.575   2.925 -0.0561  0.0822  0.5249
 3838TIP3    H133005   1.816   5.587   2.946 -0.3801 -0.4173 -0.5855
 3838TIP3    H233006   1.928   5.485   2.951  0.8209  0.9327  3.1696
 3839TIP3   OH233007   1.245   4.590  14.291  0.3748 -0.3245 -0.6456
 3839TIP3    H133008   1.297   4.634  14.357  2.5422 -1.2974 -1.6241
 3839TIP3    H233009   1.170   4.649  14.277  0.5039  0.5062  1.6858
 3840TIP3   OH233010   0.288   5.015  13.671  0.0027 -0.3193  0.1122
 3840TIP3    H133011   0.319   4.963  13.745  2.7522  1.4825  0.3686
 3840TIP3    H233012   0.348   4.993  13.599 -1.0767 -0.1985 -0.8501
 3841TIP3   OH233013   0.940   0.293   2.851  0.1891 -0.1341  0.2022
 3841TIP3    H133014   1.000   0.351   2.896  1.5347 -1.6317  0.4150
 3841TIP3    H233015   0.942   0.211   2.901 -0.8103 -0.7490 -0.7009
 3842TIP3   OH233016   5.755   6.037  14.081 -0.2179 -0.1778 -0.2214
 3842TIP3    H133017   5.822   6.104  14.097 -0.8182  0.5922 -0.8344
 3842TIP3    H233018   5.694   6.046  14.155 -1.1830  1.1002 -1.1228
 3843TIP3   OH233019   1.835   3.623   0.649  0.1914 -0.0231 -0.5451
 3843TIP3    H133020   1.847   3.614   0.554 -0.9129 -3.3179 -0.5329
 3843TIP3    H233021   1.800   3.537   0.676 -0.3917  1.1072  2.7149
 3844TIP3   OH233022   4.022   3.931   2.209  0.2345 -0.1723  0.9084
 3844TIP3    H133023   4.045   3.838   2.204  0.0482 -0.1837  0.0148
 3844TIP3    H233024   3.946   3.934   2.266 -1.0084 -0.8384 -0.6457
 3845TIP3   OH233025   1.262   2.035   0.384  0.0222  0.2133  0.3132
 3845TIP3    H133026   1.262   2.021   0.479 -1.6978  2.3879  0.7116
 3845TIP3    H233027   1.199   1.971   0.350  0.1162 -0.1004  0.7197
 3846TIP3   OH233028   2.143   0.810   0.638 -0.2235 -0.2068  0.0499
 3846TIP3    H133029   2.108   0.881   0.583  1.1275  2.2876  2.1710
 3846TIP3    H233030   2.070   0.750   0.650 -1.6608  1.1813 -1.2532
 3847TIP3   OH233031   5.428   0.744   0.510 -0.3413 -0.3406 -0.2580
 3847TIP3    H133032   5.420   0.714   0.600 -0.3770  0.4034 -0.0045
 3847TIP3    H233033   5.338   0.765   0.484 -0.3072 -0.3579 -0.3881
 3848TIP3   OH233034   4.514   3.673  16.873  0.0059  0.5816 -0.0078
 3848TIP3    H133035   4.509   3.617  16.951 -1.2078  0.0356 -0.4585
 3848TIP3    H233036   4.436   3.727  16.877 -2.8406 -2.7662 -3.2524
 3849TIP3   OH233037   5.840   1.717  14.461 -0.2117  0.0026  0.2748
 3849TIP3    H133038   5.861   1.671  14.380 -1.4203 -0.4354  0.1921
 3849TIP3    H233039   5.748   1.698  14.476 -1.0354  3.0885 -0.2227
 3850TIP3   OH233040   0.693   5.396  14.636 -0.8029 -0.2500  0.1225
 3850TIP3    H133041   0.781   5.367  14.657 -0.0002  1.0838 -1.1983
 3850TIP3    H233042   0.646   5.394  14.720  0.4981 -0.8561  0.8655
 3851TIP3   OH233043   2.382   2.225   1.700 -0.4815  0.3670  0.0050
 3851TIP3    H133044   2.413   2.134   1.705 -1.0862  0.1970  0.7711
 3851TIP3    H233045   2.317   2.232   1.769 -2.0657  0.7698 -1.4561
 3852TIP3   OH233046   3.385   3.248  15.096 -0.3656  0.0529 -0.0416
 3852TIP3    H133047   3.299   3.264  15.134 -1.1154 -0.0032 -1.6102
 3852TIP3    H233048   3.378   3.161  15.057  0.6663 -0.2823  0.4841
 3853TIP3   OH233049   0.058   2.756  16.915  0.4714  0.4463  0.1127
 3853TIP3    H133050   0.148   2.770  16.888  0.4250  0.5107 -0.0101
 3853TIP3    H233051   0.040   2.826  16.978  0.6868  0.0902  0.5714
 3854TIP3   OH233052   2.302   6.642  10.870  0.1854  0.0084  0.3065
 3854TIP3    H133053   2.346   6.592  10.801 -0.7927  0.7809 -0.9011
 3854TIP3    H233054   2.242   6.579  10.910 -0.9645  0.1533 -1.1380
 3855TIP3   OH233055   0.721   3.752   4.374  0.0347 -0.0026  0.3605
 3855TIP3    H133056   0.767   3.684   4.324 -0.6476  1.0723 -1.8444
 3855TIP3    H233057   0.782   3.775   4.444  0.3762 -2.6811  1.0501
 3856TIP3   OH233058   1.569   0.168  14.443  0.2626  0.0669  0.1338
 3856TIP3    H133059   1.557   0.073  14.446 -0.9284  0.1444 -1.2991
 3856TIP3    H233060   1.511   0.202  14.511  0.3308 -0.1818  0.3183
 3857TIP3   OH233061   1.363   2.236   2.513 -0.2822  0.6389  0.7656
 3857TIP3    H133062   1.410   2.294   2.453  1.2375 -1.0246  0.2533
 3857TIP3    H233063   1.271   2.242   2.485  0.2426  0.6953 -1.0595
 3858TIP3   OH233064   1.106   6.736  12.765 -0.2044 -0.0448  0.5055
 3858TIP3    H133065   1.138   6.711  12.851  3.1259  1.8759 -0.0116
 3858TIP3    H233066   1.059   6.659  12.733 -1.5098 -0.8451  3.9133
 3859TIP3   OH233067   4.918   4.183  16.029 -0.3325 -0.0039 -0.7594
 3859TIP3    H133068   4.845   4.163  16.088 -1.5401  0.2486 -2.1149
 3859TIP3    H233069   4.877   4.215  15.949  1.3150  1.3312 -1.1331
 3860TIP3   OH233070   0.710   5.618   4.625  0.0332 -0.3025  0.4387
 3860TIP3    H133071   0.709   5.647   4.716 -0.7265  0.0352  0.3331
 3860TIP3    H233072   0.681   5.527   4.629  0.9111 -0.5845  0.6179
 3861TIP3   OH233073   1.105   6.409   1.134  0.2024 -0.0905  0.2254
 3861TIP3    H133074   1.148   6.488   1.165  0.2374 -0.1936  0.4444
 3861TIP3    H233075   1.168   6.370   1.072  0.8297 -0.7168  1.2305
 3862TIP3   OH233076   0.987   4.764   5.632  0.0775 -0.4081 -0.4746
 3862TIP3    H133077   0.944   4.842   5.597  0.4775 -0.4431 -1.0432
 3862TIP3    H233078   1.073   4.763   5.592  0.3710 -0.7104  0.1468
 3863TIP3   OH233079   6.387   4.884   1.651  0.2123 -0.6136  0.4387
 3863TIP3    H133080   6.478   4.855   1.651  0.5335  0.3500  1.0956
 3863TIP3    H233081   6.379   4.937   1.731 -1.0821 -1.1770  0.7029
 3864TIP3   OH233082   1.436   3.167  17.101 -0.7178 -0.0957  0.2585
 3864TIP3    H133083   1.395   3.242  17.145 -2.2310 -1.2131  0.8422
 3864TIP3    H233084   1.416   3.180  17.009  0.7785  1.2334  0.0709
 3865TIP3   OH233085   6.412   6.186   3.313  0.3655  0.3162  0.4326
 3865TIP3    H133086   6.356   6.151   3.245  1.7436 -0.2319 -0.4655
 3865TIP3    H233087   6.460   6.257   3.271  0.0826  1.0407  1.2935
 3866TIP3   OH233088   6.107   0.731  14.395  0.1702 -0.2375 -0.3382
 3866TIP3    H133089   6.091   0.661  14.459  0.5741  1.3042  1.5641
 3866TIP3    H233090   6.138   0.686  14.317  1.1280 -2.1313  1.0565
 3867TIP3   OH233091   3.994   1.939  14.412  0.0304  0.2711  0.0142
 3867TIP3    H133092   4.007   1.970  14.502 -0.9375  0.1627  0.1938
 3867TIP3    H233093   3.901   1.952  14.395  0.1161 -0.1421 -0.8160
 3868TIP3   OH233094   0.171   2.559  13.732  0.4855  0.0376 -0.4549
 3868TIP3    H133095   0.167   2.498  13.659 -1.1507 -0.3189 -0.1112
 3868TIP3    H233096   0.260   2.553  13.765 -0.1407 -3.9022  1.0128
 3869TIP3   OH233097   3.346   1.808  10.769  0.0865  0.2589  0.1362
 3869TIP3    H133098   3.350   1.722  10.809 -0.0209  0.5375  0.7613
 3869TIP3    H233099   3.295   1.796  10.689  1.8909 -0.6834 -0.9287
 3870TIP3   OH233100   6.391   0.671   4.366 -0.4726  0.1515  0.8534
 3870TIP3    H133101   6.451   0.733   4.406  1.3946 -1.2196  0.2897
 3870TIP3    H233102   6.378   0.704   4.277  0.0315  0.0697  0.7478
 3871TIP3   OH233103   6.848   6.587  13.341 -0.7001  0.1250  0.6891
 3871TIP3    H133104   6.779   6.607  13.403 -0.4279 -0.0021  1.0319
 3871TIP3    H233105   6.846   6.660  13.279 -1.2328  0.0507  0.6104
 3872TIP3   OH233106   5.905   3.295   0.437  0.4185 -0.0546 -0.4657
 3872TIP3    H133107   5.861   3.238   0.500 -1.4411  1.1960 -0.5676
 3872TIP3    H233108   5.993   3.308   0.474 -0.3522 -0.0095  1.4482
 3873TIP3   OH233109   4.290   5.111   5.342 -0.1981  0.4939 -0.2295
 3873TIP3    H133110   4.382   5.095   5.365  0.2172  1.0921 -1.3880
 3873TIP3    H233111   4.290   5.198   5.302 -1.3392  0.6471  0.0647
 3874TIP3   OH233112   1.636   0.743   5.607 -0.8708  0.9200 -0.6018
 3874TIP3    H133113   1.569   0.781   5.550 -1.3617  1.4718  0.3183
 3874TIP3    H233114   1.593   0.735   5.692  0.3440  1.6408  0.1016
 3875TIP3   OH233115   3.146   4.739  16.132  0.5368  0.4599  0.2818
 3875TIP3    H133116   3.060   4.781  16.126  0.0067  0.2759  4.0428
 3875TIP3    H233117   3.144   4.671  16.064 -1.3884  1.8705 -1.1916
 3876TIP3   OH233118   4.184   6.164   0.307 -0.1381  0.5761 -0.2277
 3876TIP3    H133119   4.094   6.196   0.315  0.2803  1.4424  1.3271
 3876TIP3    H233120   4.233   6.237   0.269  0.1792  0.6103  0.2400
 3877TIP3   OH233121   2.106   0.949   2.657  0.0464 -0.7266 -0.3803
 3877TIP3    H133122   2.046   0.875   2.656 -0.1854 -0.5685  0.6588
 3877TIP3    H233123   2.065   1.013   2.716  1.3840 -0.7570  0.6424
 3878TIP3   OH233124   6.820   1.585  11.005  0.1266  0.2164 -0.7877
 3878TIP3    H133125   6.790   1.503  11.045 -0.3962  1.3904  1.3287
 3878TIP3    H233126   6.863   1.557  10.924 -1.4879 -2.0136 -0.9762
 3879TIP3   OH233127   6.810   0.711   6.184  0.0686  0.6408  0.1222
 3879TIP3    H133128   6.902   0.685   6.195  0.4126  1.3965 -0.8555
 3879TIP3    H233129   6.798   0.781   6.248  0.0425  0.2610  0.5420
 3880TIP3   OH233130   0.305   4.416  15.493  0.2677 -0.4497 -0.3566
 3880TIP3    H133131   0.370   4.473  15.452 -0.5774  0.0264 -1.0547
 3880TIP3    H233132   0.225   4.469  15.496  0.0025 -0.8748  0.8749
 3881TIP3   OH233133   5.308   1.205   5.557 -0.0162 -0.6122 -0.3213
 3881TIP3    H133134   5.276   1.171   5.641 -1.3821 -1.2378 -1.0593
 3881TIP3    H233135   5.250   1.166   5.492  1.3582 -0.5853 -1.6286
 3882TIP3   OH233136   4.007   1.648   4.495  0.4433 -0.0418  0.0020
 3882TIP3    H133137   4.079   1.627   4.554 -1.3989 -2.5145  1.5660
 3882TIP3    H233138   3.937   1.589   4.521 -1.2963  0.4136 -3.1770
 3883TIP3   OH233139   2.742   5.171   4.194 -0.1396  0.0601 -0.4693
 3883TIP3    H133140   2.776   5.091   4.234  2.9107  1.1541 -0.6201
 3883TIP3    H233141   2.706   5.220   4.268  1.4106  0.1254  0.2976
 3884TIP3   OH233142   6.458   4.160   3.222 -0.1016  0.3079  0.8216
 3884TIP3    H133143   6.536   4.134   3.174 -0.2272  1.7957 -0.2601
 3884TIP3    H233144   6.463   4.256   3.225 -2.6768  0.5577 -0.6741
 3885TIP3   OH233145   5.138   3.820  11.594 -0.0310  0.0959  0.1132
 3885TIP3    H133146   5.129   3.867  11.511  1.9118 -1.2908 -0.9724
 3885TIP3    H233147   5.161   3.888  11.657  0.0995  0.9707 -0.8375
 3886TIP3   OH233148   0.659   1.603  14.109 -0.3982  0.5366 -0.3568
 3886TIP3    H133149   0.689   1.591  14.199 -1.7759 -1.0078 -0.0632
 3886TIP3    H233150   0.738   1.628  14.060  0.4222  1.1157  1.1998
 3887TIP3   OH233151   1.103   4.138   2.273  0.3385  0.1199 -0.1319
 3887TIP3    H133152   1.056   4.210   2.231  1.6402 -0.0736 -2.0133
 3887TIP3    H233153   1.056   4.125   2.355  1.3820  4.6588  1.5134
 3888TIP3   OH233154   5.588   1.495  14.262 -0.4891  0.0129 -0.5806
 3888TIP3    H133155   5.658   1.557  14.285 -0.3935 -0.7762  1.4158
 3888TIP3    H233156   5.631   1.432  14.204  0.1660  0.1814 -0.2879
 3889TIP3   OH233157   4.894   2.902  14.442 -0.3475  0.4158 -0.9519
 3889TIP3    H133158   4.843   2.981  14.462  0.2239  0.7783 -0.9123
 3889TIP3    H233159   4.842   2.831  14.480  0.2548  1.0001  1.0870
 3890TIP3   OH233160   4.958   4.776  15.109 -0.0487  0.1511  0.0753
 3890TIP3    H133161   4.964   4.784  15.204  2.0354  0.2294 -0.0146
 3890TIP3    H233162   4.971   4.682  15.093  0.2288  0.2265 -0.1507
 3891TIP3   OH233163   4.165   5.501  12.295 -0.2261  0.5603 -0.2938
 3891TIP3    H133164   4.189   5.509  12.387 -2.2441  1.8768  0.1879
 3891TIP3    H233165   4.173   5.590  12.260 -2.0759  0.6387 -0.6406
 3892TIP3   OH233166   3.095   4.303   0.396  0.1684  0.0215 -0.2462
 3892TIP3    H133167   3.163   4.235   0.393 -0.7359 -0.9293  0.3050
 3892TIP3    H233168   3.135   4.379   0.352  1.2844 -0.7797 -0.6536
 3893TIP3   OH233169   6.263   4.574  14.048  0.2039  0.2739 -0.0958
 3893TIP3    H133170   6.319   4.621  14.109  1.4226  1.8957 -2.3140
 3893TIP3    H233171   6.315   4.500  14.019  1.0071  1.3973 -1.6399
 3894TIP3   OH233172   4.775   2.712  10.857  0.1348 -0.4214 -0.4604
 3894TIP3    H133173   4.756   2.619  10.849  2.8857 -1.1657  0.5580
 3894TIP3    H233174   4.734   2.752  10.780 -0.1656 -2.6130 -1.5017
 3895TIP3   OH233175   5.095   4.942  14.864 -0.1422 -0.2464 -0.1694
 3895TIP3    H133176   5.017   4.932  14.919 -1.2492  0.4014 -1.5539
 3895TIP3    H233177   5.081   5.025  14.817  2.1791  0.7634  0.7526
 3896TIP3   OH233178   0.501   0.754  13.213  0.8247 -0.1386  0.2982
 3896TIP3    H133179   0.532   0.799  13.135  0.7228  1.3427  1.0706
 3896TIP3    H233180   0.422   0.803  13.238  0.5626 -0.9163  1.0211
 3897TIP3   OH233181   0.047   6.513  12.618 -0.0074 -0.4940  0.2390
 3897TIP3    H133182   0.101   6.456  12.673  3.3742  0.5850 -1.6393
 3897TIP3    H233183   0.078   6.495  12.529 -1.6982  1.4107 -0.8050
 3898TIP3   OH233184   0.912   6.167  13.258 -0.3474 -0.1190  0.0465
 3898TIP3    H133185   0.982   6.134  13.200  0.7274  0.7490  0.8059
 3898TIP3    H233186   0.938   6.256  13.279 -0.7917 -0.3439  1.7241
 3899TIP3   OH233187   3.149   5.367   1.458  0.5666  0.4525 -0.9104
 3899TIP3    H133188   3.183   5.294   1.509 -2.3807 -0.0450  0.5431
 3899TIP3    H233189   3.216   5.435   1.467  1.6494 -0.7562  0.9067
 3900TIP3   OH233190   2.170   2.526   3.808 -0.1060  0.3358  0.0042
 3900TIP3    H133191   2.091   2.513   3.860 -0.7893  0.3079 -1.0082
 3900TIP3    H233192   2.158   2.612   3.767  0.2823  0.2384 -0.3289
 3901TIP3   OH233193   4.888   3.909   3.844 -0.1454 -0.2811 -0.1712
 3901TIP3    H133194   4.814   3.861   3.808 -0.0595 -0.6217  0.0947
 3901TIP3    H233195   4.960   3.892   3.784  0.3102 -1.8156  0.7616
 3902TIP3   OH233196   4.865   5.073  16.801  0.3957 -0.1872  0.0705
 3902TIP3    H133197   4.773   5.081  16.775  0.7206 -0.5467 -1.2769
 3902TIP3    H233198   4.873   4.983  16.831  0.3458 -0.2131  0.0069
 3903TIP3   OH233199   1.635   6.265   3.224 -0.1490 -0.0251  0.0137
 3903TIP3    H133200   1.720   6.299   3.252 -0.2388  0.8187 -0.7165
 3903TIP3    H233201   1.614   6.198   3.289  1.4326 -0.7920 -0.2171
 3904TIP3   OH233202   2.322   1.530   0.097 -0.2426  0.5223 -0.5351
 3904TIP3    H133203   2.265   1.607   0.108 -2.2874 -0.7146 -1.6938
 3904TIP3    H233204   2.332   1.495   0.185 -0.4070  1.3635 -0.1682
 3905TIP3   OH233205   0.100   2.463  16.959 -0.5382 -0.0323  0.0989
 3905TIP3    H133206   0.157   2.446  16.884 -2.5067  1.4113 -1.8938
 3905TIP3    H233207   0.118   2.554  16.983 -0.3513 -0.2996  0.9956
 3906TIP3   OH233208   0.834   3.818  16.331  1.1080  0.3735  0.4338
 3906TIP3    H133209   0.750   3.799  16.290  0.4221  2.8274  0.5828
 3906TIP3    H233210   0.885   3.738  16.318 -0.5910 -0.5092 -1.2933
 3907TIP3   OH233211   4.395   6.350  16.821  0.7341 -0.1727 -0.2413
 3907TIP3    H133212   4.345   6.429  16.840  1.5252  0.5163 -0.9309
 3907TIP3    H233213   4.362   6.285  16.883 -0.3892  0.5053 -0.1084
 3908TIP3   OH233214   5.876   4.558   1.039 -0.2890  0.4258  0.5451
 3908TIP3    H133215   5.923   4.607   1.107  0.4982  0.6416 -0.1357
 3908TIP3    H233216   5.922   4.580   0.958  1.3700 -2.9386  0.4084
 3909TIP3   OH233217   6.775   1.070  15.875 -1.0025  0.7105  0.2737
 3909TIP3    H133218   6.822   1.127  15.935 -1.5774 -0.3010  1.7488
 3909TIP3    H233219   6.843   1.022  15.829 -0.5518  1.5569  0.0215
 3910TIP3   OH233220   3.707   3.682  16.565 -0.1693 -0.2230 -0.2102
 3910TIP3    H133221   3.760   3.678  16.644  0.1717 -1.1228 -0.4741
 3910TIP3    H233222   3.648   3.756  16.579 -1.4751 -1.5535  1.7258
 3911TIP3   OH233223   1.092   0.306   5.260  0.7582  0.0603  0.8441
 3911TIP3    H133224   1.163   0.265   5.309  0.0530 -1.1696  0.8971
 3911TIP3    H233225   1.036   0.345   5.327  1.1120  0.5772  0.8390
 3912TIP3   OH233226   5.245   4.946   0.991  0.2650 -0.8921  0.1982
 3912TIP3    H133227   5.180   4.886   0.954 -0.2992 -0.2328  0.0890
 3912TIP3    H233228   5.246   5.020   0.931 -0.5870  0.1515  1.4163
 3913TIP3   OH233229   6.692   5.389   4.452  0.1527 -0.1122 -0.2107
 3913TIP3    H133230   6.689   5.484   4.464 -1.3011 -0.4223  2.7880
 3913TIP3    H233231   6.784   5.367   4.461  0.2610  0.8347  1.4411
 3914TIP3   OH233232   3.426   3.814  12.575  0.0652  0.1066 -0.7787
 3914TIP3    H133233   3.479   3.749  12.529 -1.3259 -0.8341 -1.1344
 3914TIP3    H233234   3.351   3.829  12.516  0.0841  1.6176 -0.4431
 3915TIP3   OH233235   3.677   5.679   5.540 -0.2859 -0.8097 -0.4585
 3915TIP3    H133236   3.624   5.644   5.468  0.8184 -0.6302 -1.3859
 3915TIP3    H233237   3.758   5.627   5.538  0.1896 -0.1079 -0.0065
 3916TIP3   OH233238   1.933   3.305   5.610 -0.4239  0.1751  0.2309
 3916TIP3    H133239   1.942   3.326   5.517 -0.8259 -1.5640 -0.2412
 3916TIP3    H233240   1.991   3.230   5.624  0.6407  1.2240  1.7140
 3917TIP3   OH233241   0.621   0.072  12.394 -0.2460  0.0420 -0.3276
 3917TIP3    H133242   0.608   0.148  12.451  2.4253 -0.5085  1.1347
 3917TIP3    H233243   0.663   0.109  12.316  2.6979  0.0103  1.0926
 3918TIP3   OH233244   3.710   2.132   1.640  0.1921  0.5191 -0.0299
 3918TIP3    H133245   3.776   2.064   1.653  1.4912  1.9342  1.1454
 3918TIP3    H233246   3.761   2.210   1.617 -0.8687  2.0573  2.4828
 3919TIP3   OH233247   2.388   4.331   2.984 -0.3001 -0.0460 -0.0010
 3919TIP3    H133248   2.481   4.321   2.966 -0.2919  0.7731 -0.4706
 3919TIP3    H233249   2.383   4.341   3.079  0.1194  0.1914 -0.0018
 3920TIP3   OH233250   2.946   1.973   4.545  0.6102 -0.2670  0.3067
 3920TIP3    H133251   3.005   2.035   4.502  1.3336 -1.2574 -0.1673
 3920TIP3    H233252   3.003   1.900   4.570 -0.2362 -0.7675  0.7988
 3921TIP3   OH233253   1.756   5.154  13.509  0.2271  0.5339  0.0351
 3921TIP3    H133254   1.752   5.060  13.492  0.8569  0.7621 -1.4816
 3921TIP3    H233255   1.689   5.191  13.451 -1.0855  0.9115  1.7224
 3922TIP3   OH233256   6.438   3.100  13.435 -0.5244  0.1994  0.2950
 3922TIP3    H133257   6.462   3.077  13.345  1.2477 -0.4288  0.8803
 3922TIP3    H233258   6.428   3.195  13.434 -1.0334  0.1495 -0.6609
 3923TIP3   OH233259   2.299   4.228  16.250  0.4265 -1.0084 -0.5646
 3923TIP3    H133260   2.231   4.181  16.202 -0.9047 -2.0633  2.1290
 3923TIP3    H233261   2.295   4.192  16.339  0.7930  2.6963  1.1441
 3924TIP3   OH233262   5.470   5.963   3.330  0.0770 -0.7088  0.0092
 3924TIP3    H133263   5.413   5.978   3.405 -1.5220 -1.8212 -0.9469
 3924TIP3    H233264   5.495   5.871   3.337  1.0970 -0.4503 -0.0618
 3925TIP3   OH233265   1.512   6.307   5.793  0.6237  0.0288 -0.2134
 3925TIP3    H133266   1.520   6.391   5.748  1.9835  0.5820  1.0077
 3925TIP3    H233267   1.449   6.323   5.863  3.4544  1.1456  2.2945
 3926TIP3   OH233268   6.754   6.108  16.277 -0.2531 -0.7033  0.2206
 3926TIP3    H133269   6.698   6.180  16.249 -0.4479 -0.6103  0.8436
 3926TIP3    H233270   6.786   6.133  16.363  0.1742 -1.0840  0.1828
 3927TIP3   OH233271   3.463   0.000   3.126  0.2825  0.1287 -0.5533
 3927TIP3    H133272   3.538  -0.056   3.145  0.1588 -0.1331 -0.8284
 3927TIP3    H233273   3.500   0.074   3.077  1.0881  2.2725  2.9609
 3928TIP3   OH233274   4.059   0.982   0.329 -0.1179 -0.0811  0.3852
 3928TIP3    H133275   4.109   0.950   0.404 -0.5080  0.3161  0.8239
 3928TIP3    H233276   4.065   0.912   0.264  0.6769 -0.2009  0.5797
 3929TIP3   OH233277   5.928   3.223   3.353  0.4721  0.1674  0.2868
 3929TIP3    H133278   5.999   3.232   3.416  0.2055 -1.7242  0.9355
 3929TIP3    H233279   5.859   3.281   3.385  1.2973  1.2019  0.2453
 3930TIP3   OH233280   6.424   6.608  16.133  0.2438 -0.2848 -0.5440
 3930TIP3    H133281   6.438   6.700  16.154  2.2120 -0.5983 -0.2785
 3930TIP3    H233282   6.447   6.600  16.040  0.6731 -0.5932 -0.4191
 3931TIP3   OH233283   1.965   0.553  11.368 -0.6323  0.0005 -0.8428
 3931TIP3    H133284   2.039   0.548  11.308  1.9928 -0.2227  2.1789
 3931TIP3    H233285   1.954   0.646  11.385 -0.8877  0.0116 -1.0506
 3932TIP3   OH233286   0.987   0.148  16.131  0.2768 -0.3384 -0.5280
 3932TIP3    H133287   0.993   0.069  16.185  0.7395  0.8936  1.3213
 3932TIP3    H233288   0.899   0.181  16.148  0.2963 -0.1336 -0.8317
 3933TIP3   OH233289   1.711   4.539   2.935  0.3516  0.0037 -0.0168
 3933TIP3    H133290   1.663   4.599   2.993 -0.5391 -0.9932  0.3072
 3933TIP3    H233291   1.803   4.563   2.948  0.1104  0.4144  1.1235
 3934TIP3   OH233292   2.131   4.476  12.889  0.3913 -0.2947 -0.5688
 3934TIP3    H133293   2.068   4.466  12.960  0.8290  1.2218  0.0693
 3934TIP3    H233294   2.200   4.414  12.909  0.5443  0.1672  0.3907
 3935TIP3   OH233295   3.229   3.264   1.786 -0.7678 -0.2889  0.3402
 3935TIP3    H133296   3.161   3.261   1.719  0.2356  1.3719 -0.8335
 3935TIP3    H233297   3.294   3.200   1.757 -0.3925  0.3422 -0.2498
 3936TIP3   OH233298   4.832   0.116  16.685  0.1326  0.6324 -0.6851
 3936TIP3    H133299   4.924   0.131  16.708 -0.0107  2.1558 -0.9693
 3936TIP3    H233300   4.797   0.065  16.759  0.9849  0.8168 -0.1352
 3937TIP3   OH233301   1.579   0.570  12.043  0.1224  0.0326 -0.1417
 3937TIP3    H133302   1.530   0.652  12.034  2.1921  1.1392 -3.4472
 3937TIP3    H233303   1.558   0.521  11.964  4.5006  0.8966 -2.1711
 3938TIP3   OH233304   6.325   3.175   0.231  0.1693  0.1385 -0.2704
 3938TIP3    H133305   6.273   3.141   0.158  0.3568 -1.6908  0.3862
 3938TIP3    H233306   6.371   3.251   0.195 -0.2038 -0.3618 -1.8787
 3939TIP3   OH233307   3.558   2.068  11.652  0.2752  0.0148 -0.5072
 3939TIP3    H133308   3.511   1.999  11.606  0.3751  1.8993 -3.7022
 3939TIP3    H233309   3.530   2.149  11.610  2.5487  1.6678  0.9040
 3940TIP3   OH233310   3.915   6.342   4.245 -0.0984  0.5228  0.1699
 3940TIP3    H133311   4.010   6.354   4.252  0.1151 -0.8402 -0.0549
 3940TIP3    H233312   3.878   6.420   4.286  1.1146 -0.0650  2.5691
 3941TIP3   OH233313   1.026   0.539  15.247 -0.5529 -0.0216  0.4585
 3941TIP3    H133314   1.054   0.620  15.204 -1.0607 -0.5868 -1.0116
 3941TIP3    H233315   0.943   0.562  15.290 -0.8609  0.1832 -0.2201
 3942TIP3   OH233316   0.930   4.358  14.399 -0.1335 -0.2844  0.3155
 3942TIP3    H133317   0.894   4.360  14.310 -1.7075  1.7154  0.9110
 3942TIP3    H233318   0.854   4.344  14.455  0.4959  0.6141  1.4467
 3943TIP3   OH233319   6.582   3.318  15.560 -0.9460 -0.1478  0.3962
 3943TIP3    H133320   6.582   3.262  15.638 -1.9872  0.0797  0.5815
 3943TIP3    H233321   6.645   3.388  15.580  0.2230 -1.1299  0.2352
 3944TIP3   OH233322   5.754   0.271  13.636 -0.0829 -0.0244 -0.0953
 3944TIP3    H133323   5.711   0.200  13.683 -0.1448 -0.2408 -0.4675
 3944TIP3    H233324   5.790   0.229  13.558  0.4006  0.2453 -0.0171
 3945TIP3   OH233325   1.137   1.463   3.680 -0.8274 -0.2077  0.1115
 3945TIP3    H133326   1.149   1.557   3.673 -1.4988 -0.0514  0.9798
 3945TIP3    H233327   1.214   1.432   3.728 -0.9436 -0.0135  0.4213
 3946TIP3   OH233328   0.185   3.698   1.740  0.4036 -0.3489 -1.0430
 3946TIP3    H133329   0.248   3.721   1.672  0.9499 -0.7476 -0.6772
 3946TIP3    H233330   0.159   3.781   1.779  0.6345 -0.1762 -1.2585
 3947TIP3   OH233331   0.853   4.004  13.098 -0.5567 -0.0035  0.5456
 3947TIP3    H133332   0.929   3.985  13.044 -0.8448  1.8661 -0.6283
 3947TIP3    H233333   0.833   3.922  13.143 -2.1981 -2.7359 -4.4872
 3948TIP3   OH233334   2.671   0.864   3.540  0.4332 -0.8263 -0.4825
 3948TIP3    H133335   2.678   0.831   3.450  0.4559  0.2529 -0.9025
 3948TIP3    H233336   2.698   0.956   3.533 -2.4405  0.1629  0.0705
 3949TIP3   OH233337   0.243   4.149   5.462  0.3928 -0.5251  0.0697
 3949TIP3    H133338   0.175   4.161   5.395  1.1337  0.5722 -0.5233
 3949TIP3    H233339   0.260   4.055   5.463 -1.2821 -0.8528  0.3953
 3950TIP3   OH233340   5.571   5.036   3.951  0.1728 -0.3349 -0.5381
 3950TIP3    H133341   5.477   5.026   3.959  0.0305  1.1155 -0.0289
 3950TIP3    H233342   5.596   5.090   4.027  1.2427  0.1846 -1.2356
 3951TIP3   OH233343   6.715   4.125   0.221 -0.1330 -0.5276  0.1018
 3951TIP3    H133344   6.641   4.067   0.240 -1.2862  0.9278  0.1935
 3951TIP3    H233345   6.680   4.213   0.230  1.4819  0.2125 -0.4279
 3952TIP3   OH233346   3.641   4.781   5.321  0.1035  0.2338  0.1736
 3952TIP3    H133347   3.717   4.835   5.344  1.5124 -1.9195  0.9063
 3952TIP3    H233348   3.630   4.794   5.227  1.1950  0.8090  0.1066
 3953TIP3   OH233349   6.650   5.274  15.179 -0.5873  0.2631  0.1402
 3953TIP3    H133350   6.663   5.368  15.192 -0.4067 -0.1325  3.8823
 3953TIP3    H233351   6.576   5.252  15.235  0.7127 -2.1376  1.0461
 3954TIP3   OH233352   5.847   4.917   1.281 -0.1409  0.0969  0.6376
 3954TIP3    H133353   5.754   4.941   1.283 -0.5506 -1.0261 -1.4956
 3954TIP3    H233354   5.888   4.982   1.223  0.3871  0.4711  1.4131
 3955TIP3   OH233355   0.798   4.707   4.104 -0.2785 -0.0367 -0.1003
 3955TIP3    H133356   0.784   4.612   4.113  1.5495 -0.4382 -1.0277
 3955TIP3    H233357   0.736   4.733   4.036  0.3235 -0.8866 -0.9992
 3956TIP3   OH233358   3.230   3.393   0.712  0.3488 -0.2793 -0.5539
 3956TIP3    H133359   3.204   3.416   0.801 -0.0141  0.1092 -0.7553
 3956TIP3    H233360   3.303   3.332   0.723  1.2844  0.9042  0.0140
 3957TIP3   OH233361   1.538   0.903   3.420 -0.4732 -0.5703  0.6530
 3957TIP3    H133362   1.490   0.867   3.346 -1.4585  1.4424  0.2251
 3957TIP3    H233363   1.517   0.845   3.493 -0.7705 -1.6776 -0.2782
 3958TIP3   OH233364   4.174   2.729   3.281 -0.0073 -0.0817 -0.2697
 3958TIP3    H133365   4.143   2.690   3.199 -0.7334 -0.6226  0.2510
 3958TIP3    H233366   4.192   2.655   3.338  0.6319  0.2894  0.0185
 3959TIP3   OH233367   2.142   1.484  12.472  0.2296  0.0366  0.0449
 3959TIP3    H133368   2.204   1.423  12.513 -0.5887 -0.3662  0.7060
 3959TIP3    H233369   2.146   1.462  12.378  1.1400  0.0746  0.0651
 3960TIP3   OH233370   3.732   2.060  11.005  0.0036 -0.4182  0.6301
 3960TIP3    H133371   3.802   2.028  10.948 -0.6055  1.3864 -1.2511
 3960TIP3    H233372   3.654   2.061  10.949 -0.9801 -0.0710  1.9618
 3961TIP3   OH233373   2.420   4.163   5.048  0.0013  0.2576 -0.1726
 3961TIP3    H133374   2.430   4.214   5.128  1.6794  0.7324 -0.6249
 3961TIP3    H233375   2.393   4.227   4.982 -1.0582 -0.0700 -0.0676
 3962TIP3   OH233376   0.471   1.322   0.687  0.3338  0.4714 -0.3535
 3962TIP3    H133377   0.494   1.401   0.735 -2.5721  1.8785 -1.0775
 3962TIP3    H233378   0.470   1.349   0.595 -1.7915 -0.0288 -0.5257
 3963TIP3   OH233379   1.532   6.065  12.754 -0.0776 -0.4749  0.0656
 3963TIP3    H133380   1.581   6.086  12.834 -0.9964 -1.6326  0.9844
 3963TIP3    H233381   1.537   6.144  12.701  0.8753  0.1984  1.1188
 3964TIP3   OH233382   1.400   6.705   2.453  0.3012 -0.0593 -0.0877
 3964TIP3    H133383   1.481   6.662   2.424  2.6316  3.0537  1.2004
 3964TIP3    H233384   1.361   6.643   2.514  1.6170 -1.7596 -0.8872
 3965TIP3   OH233385   5.058   5.574   1.822 -0.6941  0.2385  0.5928
 3965TIP3    H133386   5.095   5.618   1.899  0.8285  0.1477 -0.0446
 3965TIP3    H233387   5.055   5.642   1.755 -1.0080  0.0541  0.4167
 3966TIP3   OH233388   4.370   1.999  10.382  0.0876 -0.0625 -0.0541
 3966TIP3    H133389   4.384   2.079  10.333 -1.7023  0.4274  0.1561
 3966TIP3    H233390   4.371   1.930  10.315  0.4709  0.2595 -0.3875
 3967TIP3   OH233391   6.037   6.167  15.896 -0.0078  0.4132  0.1138
 3967TIP3    H133392   6.000   6.239  15.947 -1.2699  0.0853 -0.2871
 3967TIP3    H233393   6.099   6.208  15.837  1.1708  0.8487  1.6035
 3968TIP3   OH233394   5.390   6.291   1.319  0.0859  0.3642  0.0994
 3968TIP3    H133395   5.415   6.280   1.227  0.7234 -1.0882  0.4140
 3968TIP3    H233396   5.294   6.289   1.319  0.0674 -2.2103 -0.3107
 3969TIP3   OH233397   5.996   1.570   2.821  0.1718 -0.5554 -0.8426
 3969TIP3    H133398   5.932   1.529   2.880 -0.4153 -0.3120 -1.3037
 3969TIP3    H233399   6.051   1.623   2.879 -0.4739 -0.2310 -0.5209
 3970TIP3   OH233400   4.257   2.819   3.737 -0.4660  0.3401  0.1122
 3970TIP3    H133401   4.237   2.794   3.826 -1.4100  1.4932  0.2523
 3970TIP3    H233402   4.203   2.896   3.721  0.7234  0.9966 -0.9758
 3971TIP3   OH233403   6.249   6.739  16.631 -0.0051  0.1779 -0.2111
 3971TIP3    H133404   6.280   6.797  16.701 -0.5722  3.1063 -2.2260
 3971TIP3    H233405   6.165   6.705  16.663 -0.0212  1.0578  0.7179
 3972TIP3   OH233406   6.524   4.276   1.464  0.3165  0.5249 -0.5339
 3972TIP3    H133407   6.566   4.191   1.478  0.0052  0.2203 -1.4440
 3972TIP3    H233408   6.430   4.258   1.469  0.2530  0.8415 -0.5744
 3973TIP3   OH233409   5.108   2.889   5.249  0.2151 -0.0794  0.4940
 3973TIP3    H133410   5.076   2.808   5.290  0.0039  0.0869  0.6612
 3973TIP3    H233411   5.203   2.886   5.259  0.2123 -0.3384  0.4436
 3974TIP3   OH233412   0.353   3.755  14.046  0.1102 -0.1064  0.4901
 3974TIP3    H133413   0.264   3.719  14.040 -0.1215  0.6224 -0.8527
 3974TIP3    H233414   0.400   3.710  13.976 -0.4964  2.9302 -2.0868
 3975TIP3   OH233415   0.843   6.123   2.396 -0.0659  0.5998 -0.0536
 3975TIP3    H133416   0.841   6.028   2.406 -1.4523  0.5612 -0.4741
 3975TIP3    H233417   0.874   6.138   2.307 -0.7315  0.5008 -0.3077
 3976TIP3   OH233418   5.658   6.734   0.340 -0.5314  0.1447 -0.1312
 3976TIP3    H133419   5.611   6.739   0.423 -1.0489 -0.0341 -0.4107
 3976TIP3    H233420   5.708   6.653   0.347 -0.2142  0.3627  0.1889
 3977TIP3   OH233421   1.759   5.029  13.772 -0.0683 -0.1480  0.2148
 3977TIP3    H133422   1.777   4.937  13.751 -1.1309 -0.3143 -0.0495
 3977TIP3    H233423   1.832   5.078  13.733 -0.3913 -0.7309 -1.1774
 3978TIP3   OH233424   2.081   1.914   3.525 -0.2063  0.3916 -0.7089
 3978TIP3    H133425   2.092   1.822   3.501 -0.4493 -0.2868  1.5096
 3978TIP3    H233426   2.163   1.956   3.499 -0.1761 -0.4018 -1.9427
 3979TIP3   OH233427   6.783   1.480   2.338  0.3630 -0.2524  0.1757
 3979TIP3    H133428   6.812   1.526   2.417 -0.0894  1.6986 -0.7550
 3979TIP3    H233429   6.691   1.506   2.327  0.2623 -0.9403 -0.6978
 3980TIP3   OH233430   2.377   4.678   2.675 -0.0620 -0.3276  0.2792
 3980TIP3    H133431   2.444   4.615   2.703  0.7892  0.6285  0.4159
 3980TIP3    H233432   2.408   4.762   2.706 -0.6557  0.3283 -0.8439
 3981TIP3   OH233433   2.406   2.338  12.964 -0.2660  0.2019  0.0202
 3981TIP3    H133434   2.450   2.293  13.036 -0.5893  0.4346  0.3652
 3981TIP3    H233435   2.447   2.424  12.961  1.7894 -0.7495 -1.9453
 3982TIP3   OH233436   2.068   6.440  13.444  0.0213 -0.4470  0.5683
 3982TIP3    H133437   2.046   6.379  13.373  0.8183 -0.7806  0.5944
 3982TIP3    H233438   2.100   6.518  13.399  0.8034 -0.7671  0.5532
 3983TIP3   OH233439   6.080   2.346  16.704 -0.0606 -0.3925 -0.0124
 3983TIP3    H133440   6.144   2.295  16.655 -0.2576 -1.5083  0.8383
 3983TIP3    H233441   6.132   2.394  16.769  0.2695  1.5787 -1.6426
 3984TIP3   OH233442   3.612   1.846  11.394  0.4809 -0.4884  0.0816
 3984TIP3    H133443   3.530   1.844  11.346  1.4037 -1.5576 -1.5767
 3984TIP3    H233444   3.679   1.864  11.327  1.5155  1.4853  1.5490
 3985TIP3   OH233445   5.443   4.281   1.265  0.1212 -0.5529  0.3099
 3985TIP3    H133446   5.378   4.340   1.227  0.3752  0.4750  1.3944
 3985TIP3    H233447   5.527   4.323   1.246  0.2748 -0.2442  1.5634
 3986TIP3   OH233448   6.238   5.035  11.446  0.0814 -0.7137  0.5695
 3986TIP3    H133449   6.224   5.055  11.353 -1.6931 -1.2821  0.6699
 3986TIP3    H233450   6.265   4.943  11.446 -0.7328 -0.9632  0.6428
 3987TIP3   OH233451   2.032   6.683  14.719  0.3870  0.5044 -0.4193
 3987TIP3    H133452   1.942   6.701  14.747  0.5914 -0.3406  0.8317
 3987TIP3    H233453   2.073   6.770  14.714  0.3667  0.7174  2.0884
 3988TIP3   OH233454   5.582   3.873  15.273 -0.2599  0.5385 -0.0380
 3988TIP3    H133455   5.522   3.878  15.348 -0.4123 -3.1815  0.2815
 3988TIP3    H233456   5.527   3.892  15.197 -0.9373  0.9289  0.5420
 3989TIP3   OH233457   0.115   6.299  10.528 -0.1171 -0.4537  0.5456
 3989TIP3    H133458   0.048   6.345  10.578 -0.5603 -0.1719 -0.2920
 3989TIP3    H233459   0.066   6.237  10.475  0.1871  0.4896 -0.8725
 3990TIP3   OH233460   6.355   2.020  16.650  0.1383 -0.0819  0.4472
 3990TIP3    H133461   6.356   1.971  16.732 -0.7055  2.1608  1.9225
 3990TIP3    H233462   6.267   2.006  16.615  1.1950 -2.8793 -1.3864
 3991TIP3   OH233463   6.845   0.955  11.248  0.0546  0.3017 -0.0169
 3991TIP3    H133464   6.754   0.981  11.236  0.1260  0.2301 -0.7266
 3991TIP3    H233465   6.869   0.911  11.167  1.8881  3.7211 -1.5381
 3992TIP3   OH233466   2.874   4.210  12.176  0.8664 -0.1393  0.0535
 3992TIP3    H133467   2.926   4.237  12.101 -1.2919 -0.5593 -1.7252
 3992TIP3    H233468   2.817   4.285  12.194  0.9743 -0.2561  0.9205
 3993TIP3   OH233469   2.228   4.240  14.919  0.8613 -0.0641 -0.4082
 3993TIP3    H133470   2.301   4.288  14.879  1.0654 -1.4859 -1.8817
 3993TIP3    H233471   2.179   4.306  14.968  1.5412  1.4915 -1.7217
 3994TIP3   OH233472   2.871   2.904   5.921  0.3398  0.2996 -0.7250
 3994TIP3    H133473   2.806   2.916   5.991  0.1870  0.6611 -0.9274
 3994TIP3    H233474   2.928   2.834   5.953 -0.5168 -0.4600 -0.8118
 3995TIP3   OH233475   0.569   6.743   3.391 -0.4423 -0.0227 -0.1606
 3995TIP3    H133476   0.648   6.796   3.395  0.8616 -1.8959  0.0900
 3995TIP3    H233477   0.500   6.805   3.366  1.1038  1.6302 -0.5510
 3996TIP3   OH233478   2.683   1.393  13.827  0.2634  0.2591  0.3377
 3996TIP3    H133479   2.742   1.320  13.844  0.4700  0.3933  0.2049
 3996TIP3    H233480   2.680   1.399  13.731  1.6637  1.5518  0.3342
 3997TIP3   OH233481   0.258   0.857   1.312  0.0785  0.1722  0.4753
 3997TIP3    H133482   0.336   0.913   1.319  0.1286  0.4353 -1.5646
 3997TIP3    H233483   0.270   0.810   1.229 -1.6582 -0.2230  0.4153
 3998TIP3   OH233484   5.752   1.934  12.099  0.2958  0.1397  0.3186
 3998TIP3    H133485   5.762   1.988  12.177  1.1507  0.6202 -0.1075
 3998TIP3    H233486   5.809   1.975  12.034 -2.2035  1.2542 -1.3552
 3999TIP3   OH233487   5.341   5.844  14.207 -0.2855  0.3963  0.0185
 3999TIP3    H133488   5.334   5.881  14.119 -0.3519  0.5694  0.0956
 3999TIP3    H233489   5.273   5.776  14.210 -2.8988  2.8688  1.1590
 4000TIP3   OH233490   4.371   6.538  11.151 -0.5442  0.3310 -0.1734
 4000TIP3    H133491   4.422   6.457  11.149 -0.4730  0.3674  0.0692
 4000TIP3    H233492   4.281   6.511  11.133 -0.4750  0.2356 -0.3750
 4001TIP3   OH233493   2.278   4.396  11.380 -0.6278 -0.3046 -0.0533
 4001TIP3    H133494   2.306   4.469  11.325 -3.0950  0.2528 -0.6915
 4001TIP3    H233495   2.346   4.330  11.368  1.6523  1.7854  0.4693
 4002TIP3   OH233496   5.676   1.801  14.765  0.3071 -0.4092  0.0601
 4002TIP3    H133497   5.694   1.839  14.678 -1.6007  0.6042  0.0499
 4002TIP3    H233498   5.691   1.874  14.826 -4.4462  1.0055 -0.0438
 4003TIP3   OH233499   6.505   0.020   5.322 -0.3688  0.1504  0.5716
 4003TIP3    H133500   6.435  -0.045   5.326  0.0675 -0.2468  2.1789
 4003TIP3    H233501   6.478   0.079   5.251 -2.0753 -0.2848  0.8123
 4004TIP3   OH233502   3.433   4.287   1.252 -0.2912 -0.3441 -0.4111
 4004TIP3    H133503   3.469   4.285   1.341  0.0879 -1.3620 -0.5693
 4004TIP3    H233504   3.357   4.230   1.255 -0.6259  0.0851 -0.6046
 4005TIP3   OH233505   2.728   4.904  11.855 -0.4849  0.5137 -0.0176
 4005TIP3    H133506   2.731   4.965  11.929 -0.9518  1.8699 -1.0612
 4005TIP3    H233507   2.780   4.946  11.787  2.2788 -1.9879  0.3500
 4006TIP3   OH233508   0.971   4.277  16.814 -0.1167 -0.1437  0.3454
 4006TIP3    H133509   0.982   4.341  16.744  1.2278 -1.0674 -0.3494
 4006TIP3    H233510   0.993   4.325  16.894  0.4718  0.3822 -0.1172
 4007TIP3   OH233511   4.260   2.501  11.232  0.2214 -0.0379 -0.5417
 4007TIP3    H133512   4.170   2.469  11.228 -0.6247  2.1841 -0.4308
 4007TIP3    H233513   4.286   2.511  11.140  0.4420 -0.8339 -0.5751
 4008TIP3   OH233514   6.025   1.409  13.089 -0.1685 -0.1822  0.4703
 4008TIP3    H133515   6.045   1.486  13.035 -1.7067 -0.0008  0.1222
 4008TIP3    H233516   6.110   1.383  13.125  0.3823  1.7136  0.6615
 4009TIP3   OH233517   4.301   6.566  14.182 -0.3119  0.9102  0.1902
 4009TIP3    H133518   4.293   6.492  14.122 -0.4211  1.4719 -0.5001
 4009TIP3    H233519   4.305   6.526  14.269 -1.1052  0.1343 -0.1151
 4010TIP3   OH233520   5.038   4.830   5.591  0.2920 -0.3008  0.3855
 4010TIP3    H133521   4.970   4.849   5.526 -0.4277  0.3990  1.3040
 4010TIP3    H233522   5.002   4.759   5.643  0.9730 -1.0287 -0.1123
 4011TIP3   OH233523   2.929   2.754   4.403  0.2594 -0.0307 -0.7570
 4011TIP3    H133524   2.977   2.675   4.430 -0.2625 -0.5477 -1.3071
 4011TIP3    H233525   2.988   2.797   4.341  0.6063  0.0998 -0.3480
 4012TIP3   OH233526   1.019   4.940   6.086  0.3718 -0.1788  0.1339
 4012TIP3    H133527   0.936   4.982   6.109  1.5439  3.0929 -0.9749
 4012TIP3    H233528   1.076   4.959   6.160  0.5171 -1.2433  0.3034
 4013TIP3   OH233529   4.231   3.479   0.407  0.5127 -0.6500 -0.1194
 4013TIP3    H133530   4.257   3.427   0.330 -0.0776 -3.0868  1.2103
 4013TIP3    H233531   4.175   3.548   0.371 -0.7947 -2.4499 -1.8073
 4014TIP3   OH233532   0.371   3.477   1.425 -0.5717  0.6248  0.4334
 4014TIP3    H133533   0.405   3.417   1.491  0.4376  0.8692  0.1602
 4014TIP3    H233534   0.424   3.557   1.436  0.5656  0.2129 -1.5103
 4015TIP3   OH233535   4.095   0.904   4.612  0.4333  0.0735 -0.4071
 4015TIP3    H133536   4.038   0.928   4.685  2.6835 -0.1962  1.5903
 4015TIP3    H233537   4.111   0.810   4.624  2.3539  0.4031 -0.0170
 4016TIP3   OH233538   4.263   4.587   5.081  0.1762 -0.1926 -0.5937
 4016TIP3    H133539   4.213   4.667   5.064 -0.3925 -0.4493 -0.1579
 4016TIP3    H233540   4.311   4.606   5.162 -0.2565 -0.4224 -0.2774
 4017TIP3   OH233541   3.911   3.214   1.731  0.2410 -0.1241  0.7575
 4017TIP3    H133542   3.926   3.198   1.638  0.4301  0.7044  0.6356
 4017TIP3    H233543   3.971   3.155   1.776  0.6571 -0.0257  0.3369
 4018TIP3   OH233544   3.923   3.920   4.535 -0.0722  0.3077  0.0912
 4018TIP3    H133545   3.868   3.914   4.613  0.4724 -2.7136  0.3852
 4018TIP3    H233546   3.867   3.888   4.464  0.5779 -0.5875 -0.0297
 4019TIP3   OH233547   5.137   5.795  10.530 -1.1031  0.0495 -0.5648
 4019TIP3    H133548   5.067   5.796  10.464 -1.3352 -0.2011 -0.3234
 4019TIP3    H233549   5.092   5.811  10.613 -0.9406 -0.5854 -0.3490
 4020TIP3   OH233550   1.581   4.409  16.485  0.4650 -0.4073  0.0632
 4020TIP3    H133551   1.521   4.460  16.431  0.6561 -1.0381 -0.7605
 4020TIP3    H233552   1.528   4.381  16.560  0.1713  0.3797  0.1577
 4021TIP3   OH233553   5.373   5.418   2.050 -0.4269  0.1455  0.2012
 4021TIP3    H133554   5.342   5.488   1.993  0.5554  1.3906  1.1402
 4021TIP3    H233555   5.453   5.453   2.089  1.1298 -2.2067 -0.6813
 4022TIP3   OH233556   0.483   6.011   1.041 -0.0823 -0.2262 -0.8119
 4022TIP3    H133557   0.418   6.010   1.112 -0.3227 -0.9671 -1.0292
 4022TIP3    H233558   0.549   5.947   1.068  2.2558  2.6550  0.8976
 4023TIP3   OH233559   4.253   1.016  13.066  0.2469  0.4248  0.2467
 4023TIP3    H133560   4.283   0.925  13.060  1.2864  0.7787 -0.1694
 4023TIP3    H233561   4.218   1.036  12.979 -0.4937  0.2626  0.4987
 4024TIP3   OH233562   2.886   3.394   0.570  0.2021 -0.2542  0.1980
 4024TIP3    H133563   2.937   3.465   0.608  0.6994 -0.4135 -0.1549
 4024TIP3    H233564   2.865   3.424   0.482  0.6766 -0.6651 -0.0615
 4025TIP3   OH233565   5.114   0.348   0.449 -0.4535 -0.3710 -0.2272
 4025TIP3    H133566   5.176   0.284   0.412 -1.2408 -1.4077  0.1854
 4025TIP3    H233567   5.169   0.420   0.479  0.3727 -0.3270 -1.7149
 4026TIP3   OH233568   2.740   2.236  10.279 -0.4522 -0.1039 -0.0661
 4026TIP3    H133569   2.660   2.188  10.257 -0.5053 -0.6082  1.1265
 4026TIP3    H233570   2.793   2.173  10.328  0.1825  0.5667  0.1321
 4027TIP3   OH233571   5.247   6.510  10.733  0.6168 -0.4822  0.2574
 4027TIP3    H133572   5.337   6.514  10.702  0.7691  0.1357  0.7500
 4027TIP3    H233573   5.229   6.417  10.743  1.1464 -0.6136  0.0048
 4028TIP3   OH233574   1.937   1.648   4.465 -0.5865  0.1446 -0.2771
 4028TIP3    H133575   1.963   1.607   4.548 -2.6928 -0.5178  0.1077
 4028TIP3    H233576   2.016   1.646   4.412  0.1881 -1.6218  0.8421
 4029TIP3   OH233577   5.805   5.275   5.593 -0.3713  0.1515  0.4120
 4029TIP3    H133578   5.743   5.348   5.593 -0.7781 -0.1540 -1.1888
 4029TIP3    H233579   5.784   5.226   5.673 -2.7173 -0.3447 -0.4421
 4030TIP3   OH233580   0.516   6.785   3.801 -0.0321 -0.0977  0.2332
 4030TIP3    H133581   0.603   6.767   3.835 -0.6489 -2.2420  0.8763
 4030TIP3    H233582   0.488   6.865   3.846  1.6667  0.7967 -0.2133
 4031TIP3   OH233583   6.650   6.522   4.822 -0.0651 -0.0458  0.1935
 4031TIP3    H133584   6.675   6.524   4.914  0.2735 -0.8303  0.1338
 4031TIP3    H233585   6.733   6.517   4.775 -0.1482  2.0203 -0.2575
 4032TIP3   OH233586   2.099   0.722   4.429 -0.0310 -0.1459  0.2331
 4032TIP3    H133587   2.005   0.711   4.441  0.0582  1.0443  2.7028
 4032TIP3    H233588   2.139   0.660   4.490  0.7437  0.2396  0.1396
 4033TIP3   OH233589   4.270   6.588  11.768 -0.7798 -0.0917 -0.6561
 4033TIP3    H133590   4.228   6.566  11.685  0.2054 -0.0914 -1.1619
 4033TIP3    H233591   4.202   6.573  11.833 -1.1417 -1.4793 -1.3120
 4034TIP3   OH233592   3.333   3.116   4.805  0.1818 -0.2691  0.1329
 4034TIP3    H133593   3.241   3.106   4.782  0.0963  1.4114 -0.4562
 4034TIP3    H233594   3.381   3.087   4.727  0.1509 -0.8906  0.3413
 4035TIP3   OH233595   3.561   6.159  12.850 -0.5223 -0.0388  0.1799
 4035TIP3    H133596   3.544   6.212  12.928 -1.4957 -0.4556  0.2626
 4035TIP3    H233597   3.476   6.153  12.806  0.3400  1.7639 -1.9307
 4036TIP3   OH233598   0.900   0.519  11.475 -0.3906 -0.0501 -0.0306
 4036TIP3    H133599   0.880   0.428  11.452 -0.7801  0.1956 -0.6828
 4036TIP3    H233600   0.914   0.517  11.569  1.3564 -1.1143 -0.2699
 4037TIP3   OH233601   0.667   5.384  12.766  0.6992  0.2465  0.5093
 4037TIP3    H133602   0.616   5.450  12.813 -1.2846 -0.4831 -0.4779
 4037TIP3    H233603   0.699   5.326  12.835  2.3531  2.0772  1.3773
 4038TIP3   OH233604   6.689   4.940  14.848  0.5253 -0.1313  0.1114
 4038TIP3    H133605   6.772   4.960  14.805 -0.3058 -1.2340 -2.1688
 4038TIP3    H233606   6.697   4.848  14.875  0.4293  0.0811  0.9088
 4039TIP3   OH233607   4.520   6.336  13.134  0.1112 -0.1294 -0.5018
 4039TIP3    H133608   4.577   6.281  13.081 -1.3601 -0.4641 -1.8173
 4039TIP3    H233609   4.493   6.407  13.076 -2.0167 -0.8364 -0.4746
 4040TIP3   OH233610   6.802   1.182   2.374 -0.2621 -0.0502 -0.1615
 4040TIP3    H133611   6.794   1.153   2.465 -1.7073  0.7628  0.0072
 4040TIP3    H233612   6.785   1.276   2.378 -0.1732  0.0207 -1.2563
 4041TIP3   OH233613   5.627   3.851  14.537  0.0647  0.0950 -0.0617
 4041TIP3    H133614   5.705   3.798  14.552 -1.0817 -1.9992 -1.0653
 4041TIP3    H233615   5.627   3.868  14.443 -1.0818 -0.6401 -0.2198
 4042TIP3   OH233616   1.242   3.339  13.515  0.0337 -0.1403  0.8688
 4042TIP3    H133617   1.246   3.435  13.524  1.2045 -0.1619  0.7074
 4042TIP3    H233618   1.155   3.323  13.479  0.4918  1.0231 -0.8839
 4043TIP3   OH233619   1.695   2.998  11.302  0.2914  0.1725 -0.3171
 4043TIP3    H133620   1.686   2.906  11.278  0.9957  0.0728 -0.2332
 4043TIP3    H233621   1.635   3.045  11.245 -0.6888 -0.4241  0.2063
 4044TIP3   OH233622   4.773   5.599  12.283  0.0658  0.3289 -0.3113
 4044TIP3    H133623   4.812   5.678  12.245 -0.0009  0.6719  0.3183
 4044TIP3    H233624   4.780   5.612  12.377  0.0187 -0.4070 -0.2019
 4045TIP3   OH233625   2.024   6.825  11.591  0.5482  0.0442  0.2084
 4045TIP3    H133626   2.086   6.803  11.660  0.2610 -0.8849  0.1796
 4045TIP3    H233627   2.065   6.899  11.545  2.1852 -1.2433 -0.5122
 4046TIP3   OH233628   2.224   2.475   2.483  0.4538  0.0062  0.6075
 4046TIP3    H133629   2.297   2.536   2.499 -0.4218  0.6794  2.2760
 4046TIP3    H233630   2.146   2.528   2.495 -0.3248 -1.1173  0.6045
 4047TIP3   OH233631   3.368   1.068   3.365  0.4544 -0.0653  0.5996
 4047TIP3    H133632   3.298   1.067   3.431  0.9628 -0.9737  1.1550
 4047TIP3    H233633   3.366   1.157   3.329 -0.5363  0.1243  1.0887
 4048TIP3   OH233634   6.317   1.780   3.399  0.8233  0.0940 -0.5239
 4048TIP3    H133635   6.335   1.856   3.343 -0.0938 -0.9257 -2.3028
 4048TIP3    H233636   6.279   1.817   3.478  0.0017  1.4890 -1.5309
 4049TIP3   OH233637   5.581   3.472   4.369  0.0366 -0.0112  0.1826
 4049TIP3    H133638   5.606   3.459   4.461  1.0867  0.3758 -0.0273
 4049TIP3    H233639   5.508   3.533   4.373  0.8513  0.9743  0.7318
 4050TIP3   OH233640   0.949   0.851   1.391 -0.3891 -0.2748  0.3728
 4050TIP3    H133641   0.915   0.800   1.318 -2.1992 -0.8000  1.5287
 4050TIP3    H233642   0.967   0.938   1.354  0.6069 -1.0758 -1.1059
 4051TIP3   OH233643   5.232   2.832   2.531  0.3006 -0.0493  0.2804
 4051TIP3    H133644   5.259   2.813   2.441 -1.1759  0.5210 -0.3171
 4051TIP3    H233645   5.309   2.872   2.571  0.7458  0.4096 -0.9736
 4052TIP3   OH233646   1.947   3.588   4.450 -0.0325  0.2715 -0.4605
 4052TIP3    H133647   1.903   3.518   4.402  0.1805  1.0930 -1.9483
 4052TIP3    H233648   2.040   3.568   4.441  0.0110  0.4881 -0.5179
 4053TIP3   OH233649   2.238   3.192   6.310  0.3546 -0.6760  0.0545
 4053TIP3    H133650   2.175   3.197   6.239  1.0918  1.6017 -0.5119
 4053TIP3    H233651   2.322   3.180   6.267  0.7747  0.4316  0.5434
 4054TIP3   OH233652   4.950   5.886   0.578  0.3198 -0.1647  0.1123
 4054TIP3    H133653   4.882   5.948   0.552  0.0116 -0.3762  0.4083
 4054TIP3    H233654   4.906   5.825   0.638  0.7025 -0.4607  0.0992
 4055TIP3   OH233655   1.122   3.035   5.175  0.5610 -0.3355  0.5603
 4055TIP3    H133656   1.171   3.072   5.248  1.3678  0.8213 -0.5219
 4055TIP3    H233657   1.133   2.940   5.183  0.8637 -0.2052  1.7577
 4056TIP3   OH233658   3.107   1.474  11.708 -0.3968 -0.0529  0.2630
 4056TIP3    H133659   3.120   1.538  11.779 -0.1677  1.0961 -0.7790
 4056TIP3    H233660   3.134   1.391  11.746  2.4357  0.9580  0.7209
 4057TIP3   OH233661   1.665   3.913  10.656  0.5706  0.0843  0.6938
 4057TIP3    H133662   1.613   3.902  10.736 -0.7525  0.3138 -0.1169
 4057TIP3    H233663   1.654   3.832  10.608  0.3854  0.4013  0.1907
 4058TIP3   OH233664   5.435   1.640   3.874 -0.4526  0.7335 -0.3898
 4058TIP3    H133665   5.346   1.604   3.878 -0.8069  1.1288 -3.0478
 4058TIP3    H233666   5.424   1.728   3.840  0.9725  0.5270 -1.4921
 4059TIP3   OH233667   3.491   2.076  13.965  0.0736 -0.4398 -0.6819
 4059TIP3    H133668   3.427   2.011  13.935 -0.1671 -1.5882  2.0231
 4059TIP3    H233669   3.574   2.028  13.965  0.1985 -0.2240 -0.2834
 4060TIP3   OH233670   1.389   3.672   6.717 -0.0782 -0.4308  0.0168
 4060TIP3    H133671   1.302   3.670   6.756  0.2896 -0.0531  0.8685
 4060TIP3    H233672   1.395   3.589   6.669 -0.8740 -0.4868 -0.0040
 4061TIP3   OH233673   3.882   5.538  11.652 -0.1498 -0.5967  0.5070
 4061TIP3    H133674   3.924   5.556  11.568  0.0673 -0.4416  0.6500
 4061TIP3    H233675   3.934   5.586  11.716 -1.1957  0.5177  0.5566
 4062TIP3   OH233676   4.342   3.069   5.033 -0.3288 -0.8807  0.5673
 4062TIP3    H133677   4.436   3.051   5.040  0.3736  2.0964  0.1801
 4062TIP3    H233678   4.315   3.086   5.123 -0.6981 -2.3789  0.7653
 4063TIP3   OH233679   2.876   6.563  11.105  0.1254  1.0111  0.1128
 4063TIP3    H133680   2.785   6.594  11.112 -0.2819 -0.4601  2.1028
 4063TIP3    H233681   2.869   6.468  11.107  1.6154  0.7862 -1.9636
 4064TIP3   OH233682   2.287   2.969   0.476  0.1335 -0.6904  0.1559
 4064TIP3    H133683   2.289   3.028   0.401  0.0741 -0.7709  0.0905
 4064TIP3    H233684   2.222   3.007   0.534 -2.0911 -2.2476 -1.1773
 4065TIP3   OH233685   3.409   2.414  13.136 -0.7282 -0.1967  0.0923
 4065TIP3    H133686   3.467   2.365  13.077 -0.4943  0.3624 -0.1484
 4065TIP3    H233687   3.339   2.446  13.079  0.0743  1.2769 -0.1184
 4066TIP3   OH233688   4.998   5.303   4.986 -0.5907 -0.3846 -0.3242
 4066TIP3    H133689   4.947   5.230   4.952 -0.4136 -1.1985  1.0787
 4066TIP3    H233690   5.084   5.294   4.945 -0.3514 -1.4089  0.3537
 4067TIP3   OH233691   2.246   2.874  15.454  0.3273  0.5845 -0.7280
 4067TIP3    H133692   2.179   2.892  15.388  0.4024  2.5698 -0.3069
 4067TIP3    H233693   2.258   2.957  15.500  1.8439 -0.1865  0.3506
 4068TIP3   OH233694   0.754   1.961  11.529  0.3479  0.2169 -0.7701
 4068TIP3    H133695   0.763   1.934  11.621 -1.9453 -0.0780 -0.5578
 4068TIP3    H233696   0.718   2.050  11.534 -1.3427 -0.3886 -1.2925
 4069TIP3   OH233697   5.919   3.540  11.378  0.5520 -0.0850  0.3723
 4069TIP3    H133698   5.933   3.453  11.341  1.3474 -0.4302  1.4253
 4069TIP3    H233699   5.834   3.534  11.423 -0.2838  0.2571 -1.1013
 4070TIP3   OH233700   4.601   0.465  11.417  0.0857  0.4765  0.1115
 4070TIP3    H133701   4.546   0.479  11.494 -2.4010  2.0934 -1.7853
 4070TIP3    H233702   4.605   0.550  11.375 -0.0090 -0.6562 -2.3623
 4071TIP3   OH233703   6.472   3.583  15.567 -0.1149  0.3199 -0.8761
 4071TIP3    H133704   6.450   3.514  15.630 -0.2930  0.2683 -0.9916
 4071TIP3    H233705   6.477   3.663  15.619  0.1077  0.2172 -0.7389
 4072TIP3   OH233706   1.701   0.174   0.475  0.2852 -0.2141 -0.4202
 4072TIP3    H133707   1.685   0.084   0.506  0.6172  0.2300  1.1131
 4072TIP3    H233708   1.616   0.217   0.482  0.2077 -0.3035 -0.8015
 4073TIP3   OH233709   6.751   3.616   2.230 -0.7285 -0.2123  0.0801
 4073TIP3    H133710   6.846   3.605   2.219 -0.6697 -0.7331  0.9359
 4073TIP3    H233711   6.712   3.561   2.163 -0.4299  0.3543 -0.5671
 4074TIP3   OH233712   4.331   0.016  14.194 -0.1771 -0.1824 -0.3635
 4074TIP3    H133713   4.353   0.022  14.101  1.8252 -0.9284  0.0022
 4074TIP3    H233714   4.415  -0.004  14.237 -0.6883  1.9141  1.8106
 4075TIP3   OH233715   1.348   3.225   4.219  0.1171  0.1351 -0.1167
 4075TIP3    H133716   1.309   3.172   4.288  0.2949 -1.9466 -1.5235
 4075TIP3    H233717   1.440   3.232   4.244  0.0277  0.0350  0.2464
 4076TIP3   OH233718   5.635   1.416  11.950  0.2094  0.0088  0.1950
 4076TIP3    H133719   5.692   1.477  11.996  1.6154  1.2916 -2.9033
 4076TIP3    H233720   5.693   1.372  11.887 -1.8614  0.1238 -1.9455
 4077TIP3   OH233721   2.723   3.180  13.939 -0.0635 -0.1882 -0.1783
 4077TIP3    H133722   2.772   3.098  13.943  0.9811  0.4709  1.5351
 4077TIP3    H233723   2.683   3.188  14.026 -1.1957  0.5033 -0.7437
 4078TIP3   OH233724   1.665   1.119   0.504 -0.4921  0.0043  0.4308
 4078TIP3    H133725   1.754   1.155   0.507 -0.0748 -1.0417  1.3427
 4078TIP3    H233726   1.673   1.033   0.545 -1.8160 -0.3560 -0.0300
 4079TIP3   OH233727   6.351   1.140   3.431  0.1506  0.0988 -0.7934
 4079TIP3    H133728   6.408   1.184   3.494  2.9153 -1.0303 -2.2982
 4079TIP3    H233729   6.340   1.203   3.360 -0.4195  0.2720 -0.5576
 4080TIP3   OH233730   2.518   6.062   4.377  0.6807  0.1361  0.2871
 4080TIP3    H133731   2.495   6.062   4.470  0.1098 -0.9559  0.1628
 4080TIP3    H233732   2.613   6.069   4.375  0.6900  0.2068  0.9520
 4081TIP3   OH233733   6.100   3.898  10.875  0.0352  0.1915 -0.1537
 4081TIP3    H133734   6.194   3.883  10.887 -0.1513  0.4864  2.3341
 4081TIP3    H233735   6.061   3.812  10.892 -0.1525  0.0296 -1.3620
 4082TIP3   OH233736   2.842   0.823   3.881 -0.0080 -0.0141 -0.0168
 4082TIP3    H133737   2.897   0.746   3.893  0.0398  0.0586  0.2365
 4082TIP3    H233738   2.898   0.897   3.903 -0.3480  0.0293  0.7261
 4083TIP3   OH233739   3.366   6.657  11.733  0.2441 -0.2826  0.1478
 4083TIP3    H133740   3.351   6.563  11.725  0.5535 -0.3146 -0.0453
 4083TIP3    H233741   3.278   6.694  11.737  0.1184 -0.6094  0.5914
 4084TIP3   OH233742   1.936   0.306   5.252 -0.2451  0.1770 -0.2158
 4084TIP3    H133743   1.931   0.213   5.229  1.3954  0.0874 -0.2956
 4084TIP3    H233744   1.854   0.343   5.218 -0.4805 -1.0426 -1.0482
 4085TIP3   OH233745   0.439   3.954   4.663  0.1619 -0.3406  0.6738
 4085TIP3    H133746   0.378   3.900   4.613 -0.2038 -0.8263  1.6312
 4085TIP3    H233747   0.392   4.036   4.678 -0.0222 -0.4872  0.8939
 4086TIP3   OH233748   0.405   5.507  12.134  0.5661 -0.0731 -0.3394
 4086TIP3    H133749   0.406   5.539  12.224 -1.0814 -0.2197 -0.2344
 4086TIP3    H233750   0.384   5.414  12.141 -0.5938  0.1266 -0.8961
 4087TIP3   OH233751   4.421   4.239  15.543  0.0754 -0.6242 -0.1651
 4087TIP3    H133752   4.372   4.183  15.482  1.7908 -1.7384 -0.6062
 4087TIP3    H233753   4.513   4.223  15.521  0.7478 -0.5287  2.2559
 4088TIP3   OH233754   3.146   0.302  14.753  0.0511  0.1387  0.5627
 4088TIP3    H133755   3.228   0.311  14.704 -1.0971  0.0444 -1.4942
 4088TIP3    H233756   3.127   0.390  14.786  0.5632  0.3260  0.3654
 4089TIP3   OH233757   3.993   3.496  14.554  0.1925 -0.3451 -0.0593
 4089TIP3    H133758   3.930   3.483  14.483 -1.5630 -0.9099  1.5549
 4089TIP3    H233759   3.992   3.591  14.569 -2.2911 -0.5657  1.6582
 4090TIP3   OH233760   0.431   6.364   3.264  0.3228 -0.0752  0.4883
 4090TIP3    H133761   0.445   6.278   3.303  1.3642 -0.1381  0.0118
 4090TIP3    H233762   0.380   6.412   3.329 -1.1097 -1.3548  0.3541
 4091TIP3   OH233763   4.414   2.892   5.979 -0.3728  0.2750  0.4321
 4091TIP3    H133764   4.427   2.900   6.073  1.3478  0.9851  0.1660
 4091TIP3    H233765   4.460   2.812   5.955 -0.0393  0.5685  0.0758
 4092TIP3   OH233766   4.530   1.740   4.403 -0.1423 -0.1009  0.3009
 4092TIP3    H133767   4.532   1.835   4.392 -2.2667  0.2078  1.9649
 4092TIP3    H233768   4.473   1.709   4.333  1.2963 -0.3079 -0.8250
 4093TIP3   OH233769   1.716   1.797   4.444 -0.0540  0.0279 -0.0341
 4093TIP3    H133770   1.713   1.836   4.356  0.2402  1.0180  0.3759
 4093TIP3    H233771   1.778   1.725   4.437 -0.3475 -0.1698 -0.7339
 4094TIP3   OH233772   3.457   6.235  11.512  0.3872 -0.4641  0.5508
 4094TIP3    H133773   3.466   6.295  11.438  1.7090 -1.3279 -0.0249
 4094TIP3    H233774   3.370   6.253  11.547 -0.4497 -0.3656 -1.4891
 4095TIP3   OH233775   1.997   3.690  16.980 -0.4301 -0.8185 -0.0349
 4095TIP3    H133776   2.084   3.709  16.945  0.4799 -1.3672  1.7846
 4095TIP3    H233777   1.945   3.666  16.904  1.2752 -1.4505 -1.0555
 4096TIP3   OH233778   5.343   2.725  15.618 -0.1416 -0.2991 -0.1261
 4096TIP3    H133779   5.346   2.633  15.645  1.4314 -0.1131  0.4401
 4096TIP3    H233780   5.343   2.722  15.522  1.0210 -0.8865 -0.1193
 4097TIP3   OH233781   4.589   4.379  12.353 -0.1649  0.5676  0.2842
 4097TIP3    H133782   4.654   4.391  12.422 -0.4515 -1.2454  0.9050
 4097TIP3    H233783   4.508   4.414  12.390 -0.0897  0.5648  0.4529
 4098TIP3   OH233784   4.027   3.122   0.293 -0.5734 -0.8213  0.0990
 4098TIP3    H133785   3.953   3.063   0.278 -1.4287  0.1142  0.4962
 4098TIP3    H233786   3.994   3.187   0.356  0.7370 -0.6490  0.6406
 4099TIP3   OH233787   6.062   5.281  11.479  0.7522 -0.3531 -0.2190
 4099TIP3    H133788   5.993   5.323  11.530 -1.6349 -2.2635 -1.6939
 4099TIP3    H233789   6.111   5.229  11.542  0.1685  0.1537  0.6650
 4100TIP3   OH233790   4.278   4.478  15.345  0.4510  0.1722  0.2438
 4100TIP3    H133791   4.308   4.452  15.432  0.6775 -0.7304 -0.0834
 4100TIP3    H233792   4.198   4.427  15.331  1.0311 -0.5630 -0.5121
 4101TIP3   OH233793   3.394   1.884  16.998 -0.2583 -0.2781  0.2399
 4101TIP3    H133794   3.477   1.851  16.963  0.0034  1.7284 -1.2205
 4101TIP3    H233795   3.417   1.922  17.083  0.0489 -0.8915  0.4354
 4102TIP3   OH233796   0.487   6.393  12.908  0.1937 -0.0092 -0.2478
 4102TIP3    H133797   0.561   6.364  12.854  0.3112  0.9599 -0.6144
 4102TIP3    H233798   0.412   6.388  12.850  0.0743 -0.3423 -0.0702
 4103TIP3   OH233799   1.148   1.384  15.280  0.3164  0.1001 -0.0878
 4103TIP3    H133800   1.203   1.415  15.352 -0.5512  0.1331  0.5675
 4103TIP3    H233801   1.082   1.452  15.270 -0.8796 -0.9436  0.5565
 4104TIP3   OH233802   3.536   2.728   2.404  0.3546  0.0842  0.1309
 4104TIP3    H133803   3.515   2.819   2.385  0.4570  0.2078  0.6024
 4104TIP3    H233804   3.593   2.732   2.481 -1.8528 -0.5344  1.8708
 4105TIP3   OH233805   2.518   6.339  13.459  0.7100  0.5970 -0.2779
 4105TIP3    H133806   2.514   6.281  13.384 -1.1150 -0.8615  0.8730
 4105TIP3    H233807   2.580   6.297  13.519 -0.1790  0.0920  0.3126
 4106TIP3   OH233808   1.662   2.910   4.741  0.1093 -0.6321  0.5995
 4106TIP3    H133809   1.622   2.997   4.739 -0.8277 -1.0350  1.1001
 4106TIP3    H233810   1.698   2.899   4.653 -0.0194  0.1376  0.4354
 4107TIP3   OH233811   2.177   3.990   2.773 -0.7769 -0.1500 -0.2615
 4107TIP3    H133812   2.150   3.950   2.690 -2.6221 -0.0180  0.2164
 4107TIP3    H233813   2.096   4.026   2.809 -0.0356 -0.2967  1.6580
 4108TIP3   OH233814   1.520   5.576   6.020  0.1924 -0.0271  0.0062
 4108TIP3    H133815   1.438   5.621   5.999  0.6416  1.4235  1.1684
 4108TIP3    H233816   1.551   5.542   5.936 -0.4061  1.4799 -0.8657
 4109TIP3   OH233817   3.460   5.374  14.464 -0.1379 -0.2800  0.4312
 4109TIP3    H133818   3.424   5.418  14.386 -1.1106 -0.7269  0.6111
 4109TIP3    H233819   3.503   5.444  14.513  1.7052 -0.1977 -1.1455
 4110TIP3   OH233820   5.363   1.955  15.830  0.2709 -0.2604  0.5881
 4110TIP3    H133821   5.347   1.876  15.882  0.9551 -0.0142  1.1848
 4110TIP3    H233822   5.275   1.985  15.805  0.0097 -1.5610 -0.2133
 4111TIP3   OH233823   5.512   0.920  11.197  0.0029  0.0009  0.3422
 4111TIP3    H133824   5.442   0.970  11.155 -0.7464 -0.8774  0.5300
 4111TIP3    H233825   5.574   0.900  11.126 -2.0209 -2.8555 -0.8066
 4112TIP3   OH233826   1.482   1.849   0.466  0.4562  0.0196  0.7314
 4112TIP3    H133827   1.456   1.876   0.377  0.3240 -1.3299  0.3380
 4112TIP3    H233828   1.537   1.920   0.497  0.4553  0.5502 -0.4168
 4113TIP3   OH233829   1.920   4.689  14.489  0.2266 -0.0211 -0.0146
 4113TIP3    H133830   1.951   4.617  14.545 -0.0362  0.0682  0.2496
 4113TIP3    H233831   1.992   4.705  14.429  0.4162 -0.2900  0.1375
 4114TIP3   OH233832   1.317   1.704  16.514 -0.7816 -0.2012 -0.9292
 4114TIP3    H133833   1.340   1.615  16.488 -2.3881 -0.2637 -2.2719
 4114TIP3    H233834   1.295   1.749  16.432  0.5654  1.6309 -0.3536
 4115TIP3   OH233835   1.334   6.023   1.125  0.3711 -0.6527 -0.3616
 4115TIP3    H133836   1.304   5.932   1.123  1.3385 -1.0437  1.1405
 4115TIP3    H233837   1.297   6.059   1.205  0.8795 -0.0593 -0.3875
 4116TIP3   OH233838   3.185   0.527  13.424 -0.2980 -0.1741 -0.0490
 4116TIP3    H133839   3.256   0.579  13.386 -2.5364  1.8533 -1.7044
 4116TIP3    H233840   3.135   0.589  13.477  0.6763 -2.1745  3.5980
 4117TIP3   OH233841   4.338   5.819   3.021 -0.2137 -0.0022  0.0814
 4117TIP3    H133842   4.403   5.864   3.076 -0.6456  0.0591  0.5500
 4117TIP3    H233843   4.373   5.730   3.013 -0.0768  0.0239  0.3486
 4118TIP3   OH233844   1.865   0.914  15.600 -0.1712 -0.6136  0.0750
 4118TIP3    H133845   1.904   0.833  15.631 -0.0429 -0.5435  0.0980
 4118TIP3    H233846   1.844   0.963  15.679  0.5411 -0.2534  0.0488
 4119TIP3   OH233847   2.228   3.121  11.426  0.9609 -0.0836  0.1682
 4119TIP3    H133848   2.215   3.069  11.505 -1.7334  0.8326  0.4146
 4119TIP3    H233849   2.195   3.066  11.355  1.1771  0.0229 -0.0177
 4120TIP3   OH233850   1.510   3.466   4.511  0.0640 -0.2957  0.9239
 4120TIP3    H133851   1.605   3.453   4.502 -0.1648 -1.4244 -0.2560
 4120TIP3    H233852   1.484   3.503   4.427 -0.4967  0.3947  1.3959
 4121TIP3   OH233853   1.038   2.495   0.163  0.0458  0.2953  0.4088
 4121TIP3    H133854   1.058   2.543   0.083 -3.1263 -0.0495 -0.7517
 4121TIP3    H233855   1.048   2.559   0.233  0.1702  1.4091 -0.5994
 4122TIP3   OH233856   1.042   4.426   3.822 -0.2839 -0.1565  0.4312
 4122TIP3    H133857   1.031   4.521   3.825 -0.7347 -0.1376 -1.0973
 4122TIP3    H233858   1.126   4.410   3.865 -0.2747  0.9065  0.8375
 4123TIP3   OH233859   0.121   2.922  12.095 -0.1166  0.3175  0.4159
 4123TIP3    H133860   0.163   3.004  12.120  1.1057  0.0193 -0.5881
 4123TIP3    H233861   0.088   2.938  12.006 -1.6824  0.3678  0.9747
 4124TIP3   OH233862   5.007   5.167  14.428 -0.1109 -0.3019 -0.1508
 4124TIP3    H133863   4.975   5.116  14.353  1.0662  0.6572 -1.3500
 4124TIP3    H233864   4.999   5.258  14.400  1.2085  0.0392  0.5214
 4125TIP3   OH233865   1.707   4.300  14.284 -0.2223  0.1829  0.2155
 4125TIP3    H133866   1.718   4.215  14.242 -1.1628 -1.3594  2.8446
 4125TIP3    H233867   1.705   4.362  14.212 -0.8590 -2.1505 -1.9306
 4126TIP3   OH233868   4.158   1.585  15.194 -0.3730  0.0732 -0.1409
 4126TIP3    H133869   4.177   1.648  15.264  1.3443 -2.4164  1.8098
 4126TIP3    H233870   4.152   1.639  15.115  2.6451  2.5411  1.1026
 4127TIP3   OH233871   3.801   3.630  11.951  0.6776 -0.1923  0.0779
 4127TIP3    H133872   3.853   3.603  12.026  0.9438 -1.4935 -0.5542
 4127TIP3    H233873   3.717   3.587  11.963  0.2951  0.5701  0.2319
 4128TIP3   OH233874   1.935   5.538   4.512 -0.3022 -0.1820  0.4529
 4128TIP3    H133875   1.931   5.448   4.479  0.4590 -1.2076  2.9219
 4128TIP3    H233876   1.875   5.539   4.586  2.5391  0.1499  2.9161
 4129TIP3   OH233877   2.872   5.099  11.614  0.5334  0.0774  0.0718
 4129TIP3    H133878   2.923   5.045  11.673 -0.9750  0.9768  2.3174
 4129TIP3    H233879   2.927   5.176  11.597  0.6117  0.2635  1.1155
 4130TIP3   OH233880   1.528   4.263   5.947  0.3595 -0.4694  0.2536
 4130TIP3    H133881   1.491   4.277   6.034 -3.1107 -1.4129 -0.9424
 4130TIP3    H233882   1.553   4.351   5.918 -1.0627  0.2522  1.1173
 4131TIP3   OH233883   3.949   0.933   3.422 -0.7221 -0.1636 -0.1842
 4131TIP3    H133884   3.877   0.971   3.372 -0.8359  0.5698  0.5069
 4131TIP3    H233885   4.014   1.003   3.427  0.1723 -0.9103 -1.0396
 4132TIP3   OH233886   2.004   2.918  12.637  0.2557 -0.2218  0.2740
 4132TIP3    H133887   1.929   2.889  12.689 -0.3690 -0.7756 -0.9141
 4132TIP3    H233888   2.070   2.850  12.649 -0.5043 -1.2227 -0.9695
 4133TIP3   OH233889   3.719   5.997  13.718 -0.3311 -0.7307 -0.1202
 4133TIP3    H133890   3.777   6.018  13.646  0.1021 -1.0475  0.1307
 4133TIP3    H233891   3.689   5.908  13.700  0.9251 -1.3782  0.8205
 4134TIP3   OH233892   6.160   4.032   0.119 -0.1872  0.0910 -0.3625
 4134TIP3    H133893   6.158   3.976   0.041  1.2068  1.5920 -1.5497
 4134TIP3    H233894   6.204   4.111   0.090  4.7787 -0.9831  3.0677
 4135TIP3   OH233895   5.858   0.562  11.932  0.5300 -0.2055 -0.0456
 4135TIP3    H133896   5.903   0.647  11.938 -0.5484  0.3457  0.6185
 4135TIP3    H233897   5.910   0.504  11.988  1.9404 -0.3184 -1.4125
 4136TIP3   OH233898   1.669   1.487   1.619  0.0316  0.1847 -0.2038
 4136TIP3    H133899   1.753   1.470   1.662  1.7680  2.4463 -2.3437
 4136TIP3    H233900   1.606   1.495   1.690  1.5309 -1.8823  1.4852
 4137TIP3   OH233901   4.230   1.541  12.233 -0.3942  0.1038 -0.2915
 4137TIP3    H133902   4.272   1.542  12.319 -0.1159  2.6333 -0.3728
 4137TIP3    H233903   4.167   1.469  12.238 -0.9647  0.6643  2.3318
 4138TIP3   OH233904   3.621   5.864   4.462 -0.2201  0.5314 -0.2930
 4138TIP3    H133905   3.555   5.906   4.407 -0.5878 -0.4694 -0.6357
 4138TIP3    H233906   3.665   5.802   4.404  1.4883  1.6314 -0.2422
 4139TIP3   OH233907   3.980   1.130   3.087 -0.0518 -0.1507 -0.4624
 4139TIP3    H133908   3.973   1.200   3.152 -0.0857  0.6084 -1.2623
 4139TIP3    H233909   4.069   1.097   3.098 -0.8273 -1.8073  1.6954
 4140TIP3   OH233910   0.686   5.717   4.892  0.1876  0.0410  0.0508
 4140TIP3    H133911   0.756   5.779   4.915 -0.2112  0.7608 -0.6445
 4140TIP3    H233912   0.662   5.677   4.976  0.7930  0.4614  0.4344
 4141TIP3   OH233913   6.407   5.563  13.149 -0.1723 -0.1661  0.4203
 4141TIP3    H133914   6.486   5.569  13.095 -0.9181  0.4191 -0.6482
 4141TIP3    H233915   6.355   5.640  13.124  0.0591  0.9429  2.9975
 4142TIP3   OH233916   4.817   0.586  12.775 -0.3651 -0.1256 -0.0990
 4142TIP3    H133917   4.801   0.504  12.822  0.6534 -0.4116 -0.2155
 4142TIP3    H233918   4.898   0.619  12.813 -1.2217  1.3053  0.5627
 4143TIP3   OH233919   2.908   6.358  16.315 -0.9077 -0.6867 -0.7493
 4143TIP3    H133920   2.899   6.400  16.400 -1.4865 -0.6980 -0.8014
 4143TIP3    H233921   2.995   6.317  16.317 -0.7867 -0.4106 -0.2942
 4144TIP3   OH233922   2.121   3.354   2.630  0.2684  0.6009 -0.2551
 4144TIP3    H133923   2.087   3.442   2.614  0.2532  0.7878  0.7541
 4144TIP3    H233924   2.054   3.295   2.595 -0.8072  0.9668  1.0939
 4145TIP3   OH233925   2.999   3.142  17.001 -0.2125  0.2567 -0.3244
 4145TIP3    H133926   3.056   3.079  16.956 -0.2491 -0.6846  0.9026
 4145TIP3    H233927   3.030   3.142  17.091 -0.5452  1.6411 -0.1984
 4146TIP3   OH233928   6.806   0.106   4.473  0.2032 -0.1765 -0.3604
 4146TIP3    H133929   6.792   0.170   4.543  2.2285  0.7528 -0.7222
 4146TIP3    H233930   6.847   0.156   4.403  0.0347 -1.4999 -1.4428
 4147TIP3   OH233931   6.800   3.642  10.633  0.1965 -0.5338 -0.2968
 4147TIP3    H133932   6.893   3.666  10.629  0.6966 -2.3577 -3.9067
 4147TIP3    H233933   6.776   3.624  10.542 -3.6038 -0.6856  0.5603
 4148TIP3   OH233934   2.636   2.374   1.795  0.4858 -0.1390  0.1920
 4148TIP3    H133935   2.564   2.315   1.773 -0.8746  0.9848  1.4170
 4148TIP3    H233936   2.619   2.453   1.743  0.9053  0.0670  0.3649
 4149TIP3   OH233937   6.428   4.133  14.069  0.6607 -0.0315 -0.1391
 4149TIP3    H133938   6.349   4.081  14.087  0.7820 -1.0891 -2.2971
 4149TIP3    H233939   6.485   4.073  14.022  2.0785  1.2362 -0.1051
 4150TIP3   OH233940   5.011   4.935   3.497  0.1910 -0.1907 -0.3099
 4150TIP3    H133941   5.052   5.019   3.477  0.8778 -0.0780  1.4334
 4150TIP3    H233942   5.082   4.871   3.489  0.3581 -0.2091  1.1178
 4151TIP3   OH233943   3.682   3.196   3.543  0.3429  0.1555 -0.2809
 4151TIP3    H133944   3.675   3.105   3.573  0.7618  0.1449 -0.2201
 4151TIP3    H233945   3.770   3.203   3.506  0.4794  0.6596  0.1303
 4152TIP3   OH233946   3.848   0.049  13.468 -0.1341 -0.2793 -0.6040
 4152TIP3    H133947   3.783   0.109  13.506 -2.1517 -0.6439 -3.2091
 4152TIP3    H233948   3.928   0.101  13.462 -0.6885  0.8257  0.9055
 4153TIP3   OH233949   4.624   2.110  13.724  0.3481 -0.2364 -0.2058
 4153TIP3    H133950   4.683   2.086  13.795  2.0691  1.7471 -0.8409
 4153TIP3    H233951   4.661   2.066  13.647 -0.7593 -1.3454 -0.1263
 4154TIP3   OH233952   3.620   4.148   3.867 -0.1031 -0.6148 -0.6772
 4154TIP3    H133953   3.638   4.091   3.942 -1.8605  0.6839  0.8502
 4154TIP3    H233954   3.698   4.203   3.861 -0.6117  0.4684  1.4471
 4155TIP3   OH233955   6.423   6.675   4.625  0.3989 -0.3209 -0.1957
 4155TIP3    H133956   6.466   6.603   4.672 -1.6844 -1.1148  0.5888
 4155TIP3    H233957   6.338   6.639   4.599 -1.1506  2.1425  1.1069
 4156TIP3   OH233958   2.308   4.362  13.104 -0.1661 -0.1695 -0.2231
 4156TIP3    H133959   2.302   4.268  13.120  3.8899 -0.5767 -0.0462
 4156TIP3    H233960   2.372   4.393  13.168  0.3873  2.2191 -1.7943
 4157TIP3   OH233961   1.482   6.166  16.885 -0.3328  0.9633 -0.2023
 4157TIP3    H133962   1.472   6.236  16.949 -0.3159  0.7743  0.0081
 4157TIP3    H233963   1.392   6.144  16.859 -0.3292  1.1969 -0.4172
 4158TIP3   OH233964   4.299   1.046  15.737 -0.3541  0.4624 -0.1280
 4158TIP3    H133965   4.361   0.999  15.682 -1.4908  0.0637 -1.1140
 4158TIP3    H233966   4.291   0.992  15.816  0.8382  0.7375  0.2033
 4159TIP3   OH233967   4.550   0.271  12.711 -0.6999  0.2358  0.1945
 4159TIP3    H133968   4.536   0.218  12.789 -1.2649 -1.6017 -1.0910
 4159TIP3    H233969   4.464   0.279  12.671 -0.4220  1.1521 -0.2723
 4160TIP3   OH233970   4.584   4.820   4.160 -0.0468  0.0434 -0.4041
 4160TIP3    H133971   4.648   4.852   4.223 -0.6111  2.7811 -1.0888
 4160TIP3    H233972   4.623   4.839   4.074 -1.1040  0.3435 -0.8337
 4161TIP3   OH233973   2.559   0.673   4.509 -0.3095 -0.3319  0.1380
 4161TIP3    H133974   2.531   0.688   4.419 -0.1487  0.2734  0.1890
 4161TIP3    H233975   2.627   0.738   4.525  1.2369 -1.8470 -0.0181
 4162TIP3   OH233976   0.750   1.939   0.234  0.5085  0.1522  0.2248
 4162TIP3    H133977   0.745   2.031   0.208 -1.1454 -0.3543 -1.4658
 4162TIP3    H233978   0.776   1.893   0.154 -0.0390 -0.9806  0.6818
 4163TIP3   OH233979   5.334   1.416   1.030 -0.3213  0.0115  0.1436
 4163TIP3    H133980   5.397   1.422   0.958 -0.2936 -1.8761 -0.0285
 4163TIP3    H233981   5.380   1.368   1.098 -0.7315  0.8332  1.0297
 4164TIP3   OH233982   4.575   2.455   1.384 -0.5937 -0.0183 -0.8085
 4164TIP3    H133983   4.670   2.455   1.376 -0.3977 -2.1939  0.8067
 4164TIP3    H233984   4.545   2.392   1.319 -1.1207  1.8579 -2.4622
 4165TIP3   OH233985   2.626   5.133   1.811  0.2078  0.3749 -0.3916
 4165TIP3    H133986   2.665   5.219   1.827  1.7006 -0.6203  1.7750
 4165TIP3    H233987   2.566   5.120   1.885 -1.8430  0.4754 -1.9443
 4166TIP3   OH233988   3.045   1.158  11.945  0.4780 -0.2497  0.1160
 4166TIP3    H133989   3.030   1.247  11.978  1.3741 -0.1749  0.3695
 4166TIP3    H233990   3.090   1.171  11.862 -0.0024 -0.4620 -0.1774
 4167TIP3   OH233991   4.699   3.308   5.157  0.5044  0.0310  0.5228
 4167TIP3    H133992   4.649   3.268   5.228  1.1313  0.8110  1.4215
 4167TIP3    H233993   4.727   3.393   5.191  1.1525  0.2565 -0.5137
 4168TIP3   OH233994   5.545   5.734   1.206 -0.6958 -0.2842 -0.0587
 4168TIP3    H133995   5.549   5.824   1.173  4.4792  0.4581  1.7038
 4168TIP3    H233996   5.568   5.679   1.131  1.5256  0.4932 -0.0171
 4169TIP3   OH233997   3.713   0.668   6.410 -0.1335  0.1721 -0.4193
 4169TIP3    H133998   3.766   0.598   6.449 -1.3351  0.0445  1.1061
 4169TIP3    H233999   3.631   0.666   6.460 -0.1095  2.8556 -0.1062
 4170TIP3   OH234000   3.291   4.352  15.760  0.5130 -0.3226 -0.2572
 4170TIP3    H134001   3.252   4.343  15.847  0.3588 -3.0094 -0.5300
 4170TIP3    H234002   3.217   4.353  15.699  0.6512  0.9344 -0.4382
 4171TIP3   OH234003   4.343   6.070   0.828  0.4425  0.3580 -0.1508
 4171TIP3    H134004   4.253   6.036   0.831  1.0924 -1.5302 -0.6949
 4171TIP3    H234005   4.340   6.149   0.882 -1.1232 -0.6863  1.4276
 4172TIP3   OH234006   3.696   0.662   5.678  0.5431 -0.8463  0.4007
 4172TIP3    H134007   3.789   0.681   5.661  0.5195 -0.4420  0.7215
 4172TIP3    H234008   3.653   0.746   5.667  0.1231 -1.1481 -0.3451
 4173TIP3   OH234009   4.501   2.209   2.363  0.0491  0.6118 -0.2563
 4173TIP3    H134010   4.486   2.209   2.269  1.2692 -0.1767 -0.4802
 4173TIP3    H234011   4.455   2.131   2.395  0.9012  0.0056 -0.4570
 4174TIP3   OH234012   2.087   2.622  10.870  0.2381 -0.5108 -0.4539
 4174TIP3    H134013   2.131   2.550  10.825  1.1261 -0.4962  0.3634
 4174TIP3    H234014   2.007   2.584  10.904  0.1904 -0.8458 -0.9343
 4175TIP3   OH234015   6.760   1.288  11.874  0.5067 -0.2882 -0.4150
 4175TIP3    H134016   6.680   1.284  11.822  0.0961 -1.2503  0.2627
 4175TIP3    H234017   6.767   1.201  11.915  1.0461  0.2881  0.7757
 4176TIP3   OH234018   5.680   4.805  12.059 -0.2823 -0.7904 -0.9098
 4176TIP3    H134019   5.610   4.807  12.124 -2.4496 -0.9224 -3.1042
 4176TIP3    H234020   5.696   4.897  12.038 -0.0350 -0.7745 -0.6538
 4177TIP3   OH234021   0.846   3.055  13.651 -0.0439 -0.3763  0.2085
 4177TIP3    H134022   0.911   3.033  13.585 -0.8561 -1.9618 -0.1014
 4177TIP3    H234023   0.851   2.984  13.715 -1.6947 -0.7471 -0.0174
 4178TIP3   OH234024   5.477   4.745   4.450  0.2094  0.4477  0.1707
 4178TIP3    H134025   5.523   4.802   4.389 -1.1202  0.9887 -0.3564
 4178TIP3    H234026   5.431   4.805   4.509  0.6001 -0.0755  1.0250
 4179TIP3   OH234027   0.905   0.727   2.032 -0.1455  0.5231 -0.3188
 4179TIP3    H134028   0.846   0.654   2.050 -0.4274  1.0545  1.0460
 4179TIP3    H234029   0.981   0.686   1.990 -0.2465 -0.5748  0.5167
 4180TIP3   OH234030   1.773   0.643   3.790 -0.2124  0.1843  0.5545
 4180TIP3    H134031   1.693   0.688   3.763 -1.3665 -1.5620  0.8684
 4180TIP3    H234032   1.813   0.701   3.856  0.0294  2.1420 -1.2253
 4181TIP3   OH234033   5.572   2.468  13.436  0.3104  0.0780  0.0479
 4181TIP3    H134034   5.587   2.534  13.368  1.6883  0.0533  0.3158
 4181TIP3    H234035   5.504   2.412  13.399 -0.7505  1.4962 -0.2737
 4182TIP3   OH234036   3.578   5.622   2.954 -0.0530  0.1309  0.0175
 4182TIP3    H134037   3.581   5.711   2.918 -0.2854  0.3152  0.4419
 4182TIP3    H234038   3.565   5.635   3.048  0.3431 -0.3462  0.1417
 4183TIP3   OH234039   6.626   5.301   2.296 -0.4387 -0.7433 -0.4896
 4183TIP3    H134040   6.578   5.382   2.313  0.0526 -0.5246 -0.1187
 4183TIP3    H234041   6.653   5.270   2.383  1.0688 -0.2518 -0.7500
 4184TIP3   OH234042   2.832   4.914   6.147  0.3335 -0.5540  0.0579
 4184TIP3    H134043   2.926   4.902   6.136  0.0051 -1.0477 -3.1122
 4184TIP3    H234044   2.823   4.999   6.190  2.2054 -0.6533  0.7361
 4185TIP3   OH234045   3.916   0.443   4.673 -0.6284 -0.1149 -0.6439
 4185TIP3    H134046   3.916   0.516   4.611 -1.8041 -0.6114 -1.2622
 4185TIP3    H234047   3.984   0.383   4.639 -0.8005 -0.0705 -1.0785
 4186TIP3   OH234048   2.878   2.304  17.104  0.3308 -0.0718  0.3685
 4186TIP3    H134049   2.824   2.236  17.144  0.3411  0.5101  1.3915
 4186TIP3    H234050   2.905   2.267  17.020  1.5033 -1.9343  1.4925
 4187TIP3   OH234051   3.125   0.865   1.958  0.6013 -0.5440  0.2177
 4187TIP3    H134052   3.029   0.862   1.962  0.5319 -0.2067 -0.7970
 4187TIP3    H234053   3.146   0.958   1.947  1.0585 -0.6009  0.5758
 4188TIP3   OH234054   2.686   4.067  11.552 -0.0821 -0.5454 -0.2927
 4188TIP3    H134055   2.775   4.063  11.588  0.4063  2.2129 -1.0094
 4188TIP3    H234056   2.698   4.059  11.458 -0.2331  2.2763 -0.6401
 4189TIP3   OH234057   2.864   1.939  15.682 -0.1581 -0.2048  0.0894
 4189TIP3    H134058   2.877   1.992  15.760  0.2574 -1.1167  0.6653
 4189TIP3    H234059   2.948   1.943  15.636  0.8524 -2.5201  1.5407
 4190TIP3   OH234060   4.938   4.635  14.335 -0.0913  0.1339  0.8184
 4190TIP3    H134061   4.933   4.571  14.406 -0.0856 -0.7592  0.0346
 4190TIP3    H234062   4.940   4.582  14.255 -0.1957  1.1198  0.1445
 4191TIP3   OH234063   3.098   6.843   0.682  0.2020 -0.0643  0.0624
 4191TIP3    H134064   3.010   6.848   0.646  0.1813 -1.5362 -0.1745
 4191TIP3    H234065   3.154   6.878   0.613 -0.0530 -0.7613 -0.5165
 4192TIP3   OH234066   2.820   2.070   2.375 -0.0393 -0.8494 -0.1078
 4192TIP3    H134067   2.907   2.111   2.382 -0.7696  0.7846 -0.0597
 4192TIP3    H234068   2.809   2.023   2.458 -0.7500  2.2731  1.7517
 4193TIP3   OH234069   6.038   5.470  13.933 -0.4915 -0.1531 -0.8768
 4193TIP3    H134070   5.980   5.437  14.001  0.0064  2.9651  1.3101
 4193TIP3    H234071   6.126   5.458  13.968  0.0982 -2.1452 -2.8494
 4194TIP3   OH234072   3.831   6.844   4.742  0.1236 -0.5785 -0.1820
 4194TIP3    H134073   3.869   6.863   4.656  0.1371  0.0795 -0.0382
 4194TIP3    H234074   3.902   6.862   4.804  0.1333 -1.1123 -0.0326
 4195TIP3   OH234075   4.239   4.749  14.019 -0.2347  0.2186  0.0996
 4195TIP3    H134076   4.289   4.773  13.941 -0.6290 -0.3472 -0.3312
 4195TIP3    H234077   4.148   4.768  13.996 -0.4450 -0.7461  0.1141
 4196TIP3   OH234078   4.698   0.955  12.477  0.5668 -0.1312  0.2385
 4196TIP3    H134079   4.691   0.892  12.406  0.7733  0.5533 -0.4073
 4196TIP3    H234080   4.630   0.929  12.540  0.1521 -0.5351 -0.3717
 4197TIP3   OH234081   0.370   1.364   3.335 -0.0074  0.2529  0.3086
 4197TIP3    H134082   0.317   1.336   3.409  0.3158  1.6116  1.1008
 4197TIP3    H234083   0.357   1.459   3.331  2.2134  0.6228  0.4427
 4198TIP3   OH234084   2.461   5.062   6.551  0.0480 -0.2253  0.1642
 4198TIP3    H134085   2.463   5.020   6.637 -3.4350  3.2721  2.3202
 4198TIP3    H234086   2.477   5.155   6.570 -1.1719  0.7351 -2.8976
 4199TIP3   OH234087   5.309   1.862  10.507  0.3757  0.2264  0.1179
 4199TIP3    H134088   5.220   1.832  10.526  0.6473  0.6509  2.2764
 4199TIP3    H234089   5.362   1.782  10.506  0.0410 -0.0057 -0.9787
 4200TIP3   OH234090   0.723   0.957   1.684 -0.4305  0.0208  0.6097
 4200TIP3    H134091   0.745   1.012   1.608 -0.4641  0.0986  0.6564
 4200TIP3    H234092   0.629   0.939   1.674 -0.5273  0.3769  0.8566
 4201TIP3   OH234093   1.678   0.152   4.908 -0.0113 -0.1122 -0.0432
 4201TIP3    H134094   1.763   0.156   4.864  1.4809  2.0461  2.7410
 4201TIP3    H234095   1.616   0.184   4.843  1.7288  0.8328 -1.3084
 4202TIP3   OH234096   5.465   1.568  13.809  0.4119 -0.0184  0.3101
 4202TIP3    H134097   5.501   1.652  13.835 -0.9673  0.3051  1.2317
 4202TIP3    H234098   5.467   1.570  13.713 -0.3679  1.4044  0.3053
 4203TIP3   OH234099   1.529   2.887  12.711  0.0512 -0.1349 -0.1659
 4203TIP3    H134100   1.436   2.906  12.704  0.0034 -0.0287  0.7387
 4203TIP3    H234101   1.555   2.923  12.796  1.2251  1.1675 -1.0201
 4204TIP3   OH234102   0.343   3.552   4.376 -0.1673 -0.7844  0.8870
 4204TIP3    H134103   0.391   3.514   4.303 -0.5365  3.2517 -1.7824
 4204TIP3    H234104   0.262   3.501   4.380  1.0436 -2.8529  0.3833
 4205TIP3   OH234105   0.071   4.656  11.001  0.7177  0.4544 -0.2791
 4205TIP3    H134106   0.131   4.693  10.936  1.0462 -0.6513 -0.6308
 4205TIP3    H234107  -0.016   4.681  10.971  0.8981  0.3901 -0.8550
 4206TIP3   OH234108   0.331   5.216  14.983  0.5690  0.3226  0.0179
 4206TIP3    H134109   0.248   5.199  14.940 -0.3661  1.7342  1.1656
 4206TIP3    H234110   0.312   5.207  15.077  1.8240  0.2044  0.2841
 4207TIP3   OH234111   0.359   2.009  13.424  0.0411  0.3556 -0.4119
 4207TIP3    H134112   0.398   2.089  13.459 -1.1353  0.0403  1.7803
 4207TIP3    H234113   0.298   2.040  13.357  0.9321  1.1316 -0.8961
 4208TIP3   OH234114   3.782   0.479   1.888 -0.6977  0.0018 -0.0727
 4208TIP3    H134115   3.876   0.493   1.899 -0.7913 -0.7061  2.1470
 4208TIP3    H234116   3.761   0.408   1.949 -2.0024 -2.7909 -3.4295
 4209TIP3   OH234117   3.822   1.209   5.092 -0.1004  0.5849 -0.3331
 4209TIP3    H134118   3.864   1.291   5.065  1.8966 -1.0822 -2.7942
 4209TIP3    H234119   3.836   1.204   5.186  1.5493  2.1272 -0.4593
 4210TIP3   OH234120   1.756   3.275  13.478  0.0903  0.6898 -0.5702
 4210TIP3    H134121   1.821   3.344  13.464  1.1788 -0.1888 -0.0549
 4210TIP3    H234122   1.793   3.198  13.434  0.3177 -0.3062  1.2415
 4211TIP3   OH234123   0.611   2.162  14.103  0.0489 -0.3763 -0.0697
 4211TIP3    H134124   0.657   2.189  14.183  0.7057 -1.4098 -0.0885
 4211TIP3    H234125   0.612   2.239  14.047 -1.7537  0.8795  1.4894
 4212TIP3   OH234126   5.247   3.021   0.048  0.4414  0.3630 -0.2490
 4212TIP3    H134127   5.333   3.003   0.085 -0.0112 -2.8394 -0.4506
 4212TIP3    H234128   5.196   3.057   0.121  1.3315  0.1485  0.4929
 4213TIP3   OH234129   3.275   4.793   0.461 -0.0896 -0.3530 -0.1263
 4213TIP3    H134130   3.280   4.837   0.546 -0.0158 -0.7641  0.0837
 4213TIP3    H234131   3.275   4.864   0.398 -2.1935  0.0511  0.2737
 4214TIP3   OH234132   3.853   1.679   0.633  0.6102  0.0271  0.0304
 4214TIP3    H134133   3.785   1.712   0.573  1.8978  1.1361 -0.8833
 4214TIP3    H234134   3.837   1.725   0.715 -0.8311 -1.0820  0.4093
 4215TIP3   OH234135   1.832   0.553  16.312  0.0424  0.0033 -0.2839
 4215TIP3    H134136   1.829   0.484  16.246 -1.2848  1.1243 -1.4697
 4215TIP3    H234137   1.742   0.586  16.315  0.0166 -0.1217  2.2541
 4216TIP3   OH234138   6.120   1.046   1.191  0.0369  0.1872  0.4711
 4216TIP3    H134139   6.148   0.955   1.188 -0.9830 -0.1278 -1.9553
 4216TIP3    H234140   6.041   1.049   1.138 -0.3127  2.3994  0.9879
 4217TIP3   OH234141   2.329   0.461  14.554  0.2038 -0.0761 -0.4005
 4217TIP3    H134142   2.241   0.430  14.532  1.0021 -0.8812 -2.6926
 4217TIP3    H234143   2.367   0.486  14.470  2.2031  0.2004  0.5366
 4218TIP3   OH234144   0.781   6.117  13.665  0.1234 -0.3108  0.1529
 4218TIP3    H134145   0.691   6.139  13.640  0.1473 -0.5168 -0.1174
 4218TIP3    H234146   0.833   6.191  13.636  0.1306 -0.4813 -0.2804
 4219TIP3   OH234147   0.707   4.106   1.339  0.2007 -0.6529  0.0341
 4219TIP3    H134148   0.721   4.201   1.334  0.3503 -0.7084 -0.7790
 4219TIP3    H234149   0.775   4.075   1.399  0.4982 -0.3134 -0.1251
 4220TIP3   OH234150   3.537   0.225  15.779 -0.4752  0.3577 -0.0048
 4220TIP3    H134151   3.537   0.134  15.809  2.9120  0.8357  1.9008
 4220TIP3    H234152   3.612   0.231  15.720 -0.6048  1.9092 -0.0603
 4221TIP3   OH234153   0.067   0.449   1.586 -0.0289 -0.3019  0.7643
 4221TIP3    H134154  -0.022   0.485   1.583  0.3656  0.7015  0.7571
 4221TIP3    H234155   0.072   0.391   1.511 -0.6455 -0.2888  0.7081
 4222TIP3   OH234156   3.302   6.226  15.268 -0.4732  0.3538 -0.2716
 4222TIP3    H134157   3.233   6.219  15.201 -0.2373 -0.1950 -0.4595
 4222TIP3    H234158   3.369   6.163  15.241 -0.3588  0.1441  0.4630
 4223TIP3   OH234159   6.529   5.933  16.273  0.3122 -0.3360 -0.0849
 4223TIP3    H134160   6.605   5.991  16.265  0.9490 -1.1723 -0.3076
 4223TIP3    H234161   6.467   5.966  16.207 -0.8977  2.2956  2.1599
 4224TIP3   OH234162   6.058   0.187   1.246  0.6704 -0.5605 -0.0708
 4224TIP3    H134163   6.079   0.220   1.158  1.4846  0.2869  0.4147
 4224TIP3    H234164   5.977   0.138   1.235  2.2623 -3.0579 -1.8859
 4225TIP3   OH234165   0.497   3.495   5.679 -0.2979 -0.1977 -0.5703
 4225TIP3    H134166   0.551   3.473   5.602  1.1152 -1.4952  0.7226
 4225TIP3    H234167   0.552   3.553   5.731 -1.3767  0.9311 -0.6467
 4226TIP3   OH234168   3.843   2.974  12.477  0.3241 -0.1158 -0.2664
 4226TIP3    H134169   3.890   2.964  12.559  2.0248 -1.2787 -1.3171
 4226TIP3    H234170   3.754   3.000  12.503  1.2795  1.3647  1.8248
 4227TIP3   OH234171   1.583   5.193  15.836  0.0308  0.0094 -0.5939
 4227TIP3    H134172   1.572   5.157  15.924  0.3014 -1.7053 -1.2321
 4227TIP3    H234173   1.501   5.240  15.819 -0.1610  0.0735  0.4259
 4228TIP3   OH234174   5.532   2.241  12.305  0.6736  0.0366  1.1545
 4228TIP3    H134175   5.520   2.149  12.328 -0.6612 -0.2112 -0.3317
 4228TIP3    H234176   5.550   2.239  12.211  1.2684  1.2666  1.2284
 4229TIP3   OH234177   3.273   3.364  14.273 -0.4217  0.0031  0.0264
 4229TIP3    H134178   3.232   3.409  14.347 -1.4474  0.8137 -0.9795
 4229TIP3    H234179   3.266   3.427  14.201  1.1275 -0.5136 -0.6045
 4230TIP3   OH234180   2.774   2.540   2.933  0.6426  0.2273 -0.0985
 4230TIP3    H134181   2.851   2.522   2.880 -0.6544 -3.2771 -1.0865
 4230TIP3    H234182   2.700   2.528   2.873 -0.7680 -0.6536  1.6873
 4231TIP3   OH234183   6.629   3.130  10.610 -0.1851  0.2775 -0.1478
 4231TIP3    H134184   6.595   3.212  10.574 -0.8342 -0.7143 -1.9077
 4231TIP3    H234185   6.694   3.101  10.546 -0.0301 -0.6433  0.4095
 4232TIP3   OH234186   3.268   4.125   5.056  0.0832  0.0384  0.4141
 4232TIP3    H134187   3.183   4.112   5.015  0.9099 -1.8727 -0.8472
 4232TIP3    H234188   3.265   4.069   5.134  0.2409 -0.2189  0.2394
 4233TIP3   OH234189   1.722   2.647   4.134  0.5854  0.3310 -0.0088
 4233TIP3    H134190   1.660   2.629   4.205  0.2324 -1.5547 -0.7381
 4233TIP3    H234191   1.803   2.671   4.179 -0.5027  2.3874  0.9674
 4234TIP3   OH234192   2.694   4.858   2.385  0.2062 -0.0775  0.0254
 4234TIP3    H134193   2.612   4.864   2.434 -2.6091 -2.0335 -3.9174
 4234TIP3    H234194   2.682   4.915   2.309  3.7801  1.7286  0.5765
 4235TIP3   OH234195   2.985   6.430   2.373  0.0570  0.0503  0.0454
 4235TIP3    H134196   2.996   6.376   2.452 -0.3235 -2.2304 -1.3817
 4235TIP3    H234197   3.074   6.456   2.350  0.2010  0.4989  1.0388
 4236TIP3   OH234198   3.049   3.697   4.433 -0.2138 -0.4345  0.4562
 4236TIP3    H134199   3.104   3.738   4.366  0.2890 -2.7957 -0.6975
 4236TIP3    H234200   2.968   3.748   4.433  0.6324  0.9894 -0.3083
 4237TIP3   OH234201   5.423   4.367  13.213 -0.6072  0.0783  0.2358
 4237TIP3    H134202   5.461   4.284  13.240 -2.0156 -0.8663 -0.5915
 4237TIP3    H234203   5.496   4.429  13.215  0.5467 -1.2560  0.4764
 4238TIP3   OH234204   3.991   6.683  12.893 -0.6046  0.1039  0.4438
 4238TIP3    H134205   4.032   6.602  12.864 -0.3423  0.4015 -0.0436
 4238TIP3    H234206   4.064   6.744  12.905 -0.9128  0.8221 -1.0205
 4239TIP3   OH234207   2.121   0.311   1.999 -0.0323  0.0375 -0.1358
 4239TIP3    H134208   2.115   0.404   2.019 -1.4453  0.0238 -0.3916
 4239TIP3    H234209   2.061   0.269   2.061  1.1294 -0.7964  0.4602
 4240TIP3   OH234210   4.521   3.162   0.266 -0.5722 -0.0209 -0.4031
 4240TIP3    H134211   4.583   3.224   0.304  0.6514 -0.9984 -0.7851
 4240TIP3    H234212   4.525   3.085   0.322 -1.0919 -0.2768 -0.7071
 4241TIP3   OH234213   1.043   4.494  16.646  0.0852 -0.5874  0.4121
 4241TIP3    H134214   1.124   4.489  16.595  1.1415 -0.6660  2.0409
 4241TIP3    H234215   0.990   4.560  16.600  2.0379  1.2235  0.6076
 4242TIP3   OH234216   3.455   2.470   1.286  0.7878 -0.1592  0.5934
 4242TIP3    H134217   3.499   2.460   1.370  0.1541  0.5548  1.0250
 4242TIP3    H234218   3.490   2.400   1.231  1.3150 -0.5371  1.4073
 4243TIP3   OH234219   0.661   1.375  11.430  0.2598 -0.1718  0.2075
 4243TIP3    H134220   0.685   1.466  11.443  2.5766 -0.8499  1.2541
 4243TIP3    H234221   0.653   1.339  11.519 -0.5694 -1.0098 -0.1844
 4244TIP3   OH234222   6.422   0.250  11.419  0.2473  0.3255  0.1801
 4244TIP3    H134223   6.332   0.241  11.450  0.8960  0.0551  2.0752
 4244TIP3    H234224   6.451   0.161  11.402  1.0704  0.1053  2.4165
 4245TIP3   OH234225   2.823   5.525  13.768 -0.0746 -0.3905  0.0733
 4245TIP3    H134226   2.914   5.498  13.782 -0.1425 -0.3282  0.6660
 4245TIP3    H234227   2.790   5.544  13.856 -0.5984 -0.2113 -0.1581
 4246TIP3   OH234228   1.304   4.707   4.742 -0.1895  0.6428 -0.3410
 4246TIP3    H134229   1.255   4.685   4.821 -1.0165 -0.9085 -1.2323
 4246TIP3    H234230   1.260   4.786   4.708  0.3134  1.4452  0.8267
 4247TIP3   OH234231   5.087   4.718  13.379 -0.1422 -0.1641 -0.0031
 4247TIP3    H134232   5.031   4.794  13.369 -2.7050 -1.9424  0.0100
 4247TIP3    H234233   5.092   4.679  13.292  2.2617  0.6377 -0.3144
 4248TIP3   OH234234   5.245   0.778   4.561 -0.3674 -0.4918 -0.1854
 4248TIP3    H134235   5.292   0.710   4.513  0.1976 -0.3969  0.2199
 4248TIP3    H234236   5.311   0.817   4.618 -0.8800 -0.1684  0.1995
 4249TIP3   OH234237   6.718   1.657   0.288  0.0366  0.5095  0.3850
 4249TIP3    H134238   6.680   1.744   0.301  1.1023  0.9691  0.4978
 4249TIP3    H234239   6.806   1.664   0.323 -0.0227 -0.7641  0.8259
 4250TIP3   OH234240   2.706   0.736   5.671 -0.4036 -0.0431 -0.0675
 4250TIP3    H134241   2.616   0.719   5.698 -0.2887  2.1428  2.0975
 4250TIP3    H234242   2.704   0.824   5.634  0.8582  0.1142  0.1928
 4251TIP3   OH234243   1.258   2.243   2.927  0.0925 -1.0580 -0.4447
 4251TIP3    H134244   1.250   2.334   2.900  1.7866 -0.5915  0.5170
 4251TIP3    H234245   1.199   2.196   2.868 -0.7811  0.6328 -0.9872
 4252TIP3   OH234246   4.305   0.692   2.928 -0.2812  0.0171  0.3301
 4252TIP3    H134247   4.237   0.643   2.974 -0.8008 -0.9903 -1.3763
 4252TIP3    H234248   4.386   0.647   2.951 -0.2796  0.7020  1.7165
 4253TIP3   OH234249   1.920   5.047   2.676  0.1249 -0.0367  0.0456
 4253TIP3    H134250   1.989   5.042   2.610  0.0195  0.9281 -0.1495
 4253TIP3    H234251   1.942   5.125   2.728  0.4951 -1.0528  1.4806
 4254TIP3   OH234252   3.645   3.650   0.883 -0.3772  0.5292 -0.0679
 4254TIP3    H134253   3.647   3.554   0.876 -1.5589  0.4243  0.7676
 4254TIP3    H234254   3.728   3.672   0.925  0.7685  0.0709 -1.9315
 4255TIP3   OH234255   5.953   3.841   5.413  0.1837 -0.0736 -0.6836
 4255TIP3    H134256   5.920   3.931   5.417  0.5725  0.0232  1.5990
 4255TIP3    H234257   5.894   3.792   5.470  0.2413 -1.1991 -1.5650
 4256TIP3   OH234258   1.294   0.525  12.318  0.3625 -0.3209 -0.1546
 4256TIP3    H134259   1.348   0.598  12.349 -2.0167  2.2557 -1.5140
 4256TIP3    H234260   1.225   0.517  12.383 -0.4591  0.0156 -0.9492
 4257TIP3   OH234261   5.144   0.170   2.701 -0.2257 -0.4233 -0.0744
 4257TIP3    H134262   5.226   0.200   2.662 -0.3408 -2.0337 -1.6963
 4257TIP3    H234263   5.077   0.220   2.656 -0.1569  1.5790  1.9147
 4258TIP3   OH234264   6.022   6.428   2.939  0.1108  0.2423  0.0483
 4258TIP3    H134265   6.019   6.470   3.026  0.2208 -0.6735  0.5066
 4258TIP3    H234266   5.934   6.438   2.904  0.4123  1.8764 -0.3667
 4259TIP3   OH234267   0.483   1.329  15.451 -0.0241 -0.1278  0.8272
 4259TIP3    H134268   0.506   1.254  15.397  1.9830  1.0891 -0.1512
 4259TIP3    H234269   0.509   1.405  15.399 -0.5456  1.1960  2.4060
 4260TIP3   OH234270   5.855   6.205   3.151  0.1623 -0.2906  0.6611
 4260TIP3    H134271   5.950   6.201   3.135  0.3839  2.7090  0.6358
 4260TIP3    H234272   5.816   6.183   3.066  0.9829  1.3371 -0.2000
 4261TIP3   OH234273   5.555   5.786   0.526  0.3935 -0.2452  0.2057
 4261TIP3    H134274   5.589   5.849   0.463  1.2686 -0.0974  0.8020
 4261TIP3    H234275   5.465   5.771   0.499  0.8187 -0.3904 -1.2407
 4262TIP3   OH234276   3.930   5.175  15.675  0.5296 -0.8494  0.2043
 4262TIP3    H134277   3.984   5.124  15.736 -0.6729 -1.4018  0.8371
 4262TIP3    H234278   3.846   5.185  15.720  0.0073 -0.2382 -0.8776
 4263TIP3   OH234279   3.453   3.308  12.958 -0.4609  0.3834 -0.1164
 4263TIP3    H134280   3.460   3.308  12.862 -2.3010 -1.9675 -0.3418
 4263TIP3    H234281   3.537   3.342  12.988  0.9877 -0.7964 -2.5372
 4264TIP3   OH234282   1.113   5.098   6.664 -0.1817 -0.0496 -0.2358
 4264TIP3    H134283   1.147   5.124   6.749 -0.5610 -1.4843  0.3705
 4264TIP3    H234284   1.121   5.177   6.610 -2.8124  1.8950  1.9558
 4265TIP3   OH234285   2.357   0.262  16.946  0.0957  0.2291 -0.2750
 4265TIP3    H134286   2.279   0.235  16.994 -0.1356  0.4481 -0.5302
 4265TIP3    H234287   2.324   0.312  16.872  0.5318  1.3188  0.2518
 4266TIP3   OH234288   4.782   5.022   4.465  0.1496 -0.4468  0.2233
 4266TIP3    H134289   4.756   4.931   4.450  1.2725 -0.5058 -1.6088
 4266TIP3    H234290   4.699   5.068   4.480 -0.4045 -1.8064  1.5298
 4267TIP3   OH234291   2.950   0.710  14.457 -0.1810  0.2797  0.4163
 4267TIP3    H134292   2.867   0.703  14.408 -0.3993 -1.5397  0.9537
 4267TIP3    H234293   2.989   0.623  14.449  1.1535  0.7892  1.1219
 4268TIP3   OH234294   6.478   0.851   2.510  0.3186 -0.1820 -0.0409
 4268TIP3    H134295   6.394   0.816   2.479  0.0890 -0.6925  1.1310
 4268TIP3    H234296   6.513   0.898   2.434 -0.7971 -0.3694 -0.6985
 4269TIP3   OH234297   6.158   6.099   2.181  0.3972 -0.0627 -0.3507
 4269TIP3    H134298   6.134   6.173   2.125 -1.0850 -2.3373 -3.0275
 4269TIP3    H234299   6.181   6.138   2.265  0.2304  3.4211 -1.7591
 4270TIP3   OH234300   6.549   5.912   3.323  0.0340 -0.9086  0.2396
 4270TIP3    H134301   6.523   6.002   3.342 -1.4523 -1.2833  0.1480
 4270TIP3    H234302   6.572   5.913   3.230 -0.6834 -0.7611  0.0571
 4271TIP3   OH234303   2.205   5.033   2.910 -0.5790 -0.1477  0.2170
 4271TIP3    H134304   2.160   5.054   2.993  0.6686  1.3123  0.5735
 4271TIP3    H234305   2.197   5.113   2.858 -0.3627 -0.6723 -0.6389
 4272TIP3   OH234306   1.363   6.569   1.138 -0.6079  0.0783 -0.2918
 4272TIP3    H134307   1.390   6.489   1.183 -0.3980 -0.5379 -1.4819
 4272TIP3    H234308   1.434   6.631   1.156 -0.6921 -0.0340  0.4950
 4273TIP3   OH234309   5.375   0.973   0.328 -0.0964  0.2318  0.2382
 4273TIP3    H134310   5.431   1.041   0.291 -0.6857  0.3252 -0.5003
 4273TIP3    H234311   5.413   0.891   0.297  0.6950  0.2069  1.2408
 4274TIP3   OH234312   4.472   3.465   0.527 -0.1366  0.1764  0.1780
 4274TIP3    H134313   4.378   3.462   0.512 -0.6392  1.5036  2.5708
 4274TIP3    H234314   4.491   3.557   0.546  2.0535  0.3498 -2.2671
 4275TIP3   OH234315   6.551   0.642   2.706 -0.6756  0.2027  0.0157
 4275TIP3    H134316   6.543   0.728   2.665  1.2136 -0.5164 -2.0545
 4275TIP3    H234317   6.643   0.617   2.693 -1.7518 -3.4105 -2.2794
 4276TIP3   OH234318   0.645   5.708   5.644 -0.2359  0.3460  0.1256
 4276TIP3    H134319   0.563   5.689   5.598 -0.6751  0.7898  0.6993
 4276TIP3    H234320   0.666   5.798   5.618  0.4549 -0.0073 -0.5711
 4277TIP3   OH234321   2.861   0.837   6.210  0.5557 -0.3327 -0.2803
 4277TIP3    H134322   2.940   0.881   6.241 -0.1272  0.4509  0.3875
 4277TIP3    H234323   2.859   0.754   6.258  0.1636  0.3331  0.9047
 4278TIP3   OH234324   6.378   3.081  15.936 -0.5548 -0.3285 -0.0028
 4278TIP3    H134325   6.398   3.016  15.869 -1.8831  1.7430 -2.6136
 4278TIP3    H234326   6.434   3.058  16.010 -0.5556 -4.0196 -0.9798
 4279TIP3   OH234327   6.113   3.526   0.151  0.1610 -0.1310  0.1076
 4279TIP3    H134328   6.050   3.561   0.215 -1.0711 -0.4429 -0.8787
 4279TIP3    H234329   6.069   3.537   0.067  0.9728 -1.3772 -0.5019
 4280TIP3   OH234330   3.545   2.756   0.615 -0.2475  0.0201  0.3538
 4280TIP3    H134331   3.623   2.811   0.614 -0.5237  0.4327 -1.0058
 4280TIP3    H234332   3.563   2.688   0.680  1.1904  0.1650  0.1204
 4281TIP3   OH234333   3.882   4.752  13.846  0.0570 -0.4207 -0.2261
 4281TIP3    H134334   3.792   4.719  13.848 -0.3567  0.4632 -2.1317
 4281TIP3    H234335   3.890   4.804  13.926  0.1226 -3.3853  1.8763
 4282TIP3   OH234336   1.660   6.789   0.582 -0.3056  0.5221  0.0374
 4282TIP3    H134337   1.713   6.709   0.590  1.2237  1.4482 -0.3351
 4282TIP3    H234338   1.636   6.811   0.672  0.0889  0.1582  0.2356
 4283TIP3   OH234339   3.830   2.050   4.618  0.7164  0.1802 -0.0328
 4283TIP3    H134340   3.890   2.050   4.543  0.8133 -1.5972  0.0129
 4283TIP3    H234341   3.779   1.970   4.608 -0.0404  0.4807  1.2141
 4284TIP3   OH234342   4.219   0.869   0.536 -0.1612 -0.0297 -0.5967
 4284TIP3    H134343   4.297   0.925   0.542  0.2675 -0.7479  0.8623
 4284TIP3    H234344   4.160   0.903   0.603 -0.0082 -1.1488  0.1177
 4285TIP3   OH234345   5.210   1.988  15.424  0.1001  0.0476  0.0562
 4285TIP3    H134346   5.196   1.904  15.466 -0.8624  0.7283  1.1357
 4285TIP3    H234347   5.212   1.968  15.330  1.8796 -1.4339  0.3586
 4286TIP3   OH234348   3.276   1.794  13.177 -0.5361  0.1084 -0.3076
 4286TIP3    H134349   3.183   1.817  13.180 -0.7694 -0.6932 -1.0011
 4286TIP3    H234350   3.309   1.816  13.264 -1.7926 -1.3268  0.5920
 4287TIP3   OH234351   0.948   0.798   2.353 -0.3180 -0.6526  0.2378
 4287TIP3    H134352   1.029   0.760   2.386  0.0020  0.4930  0.8529
 4287TIP3    H234353   0.917   0.736   2.287  0.8471 -1.3069  0.2760
 4288TIP3   OH234354   4.388   1.060   0.510 -0.4739  0.1702 -0.3060
 4288TIP3    H134355   4.420   1.130   0.567  1.5545  0.3084 -1.5182
 4288TIP3    H234356   4.389   1.097   0.422 -1.3443 -0.7529 -0.7324
 4289TIP3   OH234357   6.485   6.070   4.780  0.9926 -0.5638 -0.0715
 4289TIP3    H134358   6.440   6.014   4.716  1.7777 -0.5683 -0.6322
 4289TIP3    H234359   6.438   6.055   4.861 -3.0047  2.8174 -1.4230
 4290TIP3   OH234360   1.888   1.393  13.522 -0.2143 -0.2918  0.3898
 4290TIP3    H134361   1.846   1.478  13.534 -2.2228 -1.3384  1.2833
 4290TIP3    H234362   1.840   1.352  13.450  1.5828 -0.2111 -0.9178
 4291TIP3   OH234363   2.102   0.892  15.955 -0.1468 -0.2415  0.1126
 4291TIP3    H134364   2.157   0.814  15.964 -0.3854 -0.2495  1.7231
 4291TIP3    H234365   2.020   0.869  15.999 -1.8424 -0.5333 -2.8982
 4292TIP3   OH234366   3.624   1.035   4.988  0.2087  0.1318  0.2757
 4292TIP3    H134367   3.696   1.094   5.012  1.1784 -0.6203 -0.6719
 4292TIP3    H234368   3.663   0.948   4.993 -1.0326 -0.3990  1.0523
 4293TIP3   OH234369   5.792   5.719   3.589 -0.1834 -0.0601 -0.1446
 4293TIP3    H134370   5.791   5.669   3.507  0.6016  0.3802 -0.4250
 4293TIP3    H234371   5.725   5.677   3.642 -0.8821 -0.1987 -1.1021
 4294TIP3   OH234372   0.644   5.059   5.221  0.2624  0.4657  0.3392
 4294TIP3    H134373   0.593   5.018   5.290  0.1434  1.7028  1.0184
 4294TIP3    H234374   0.622   5.010   5.142  0.8593 -1.3706  1.2436
 4295TIP3   OH234375   2.483   2.896   5.457  0.4628 -0.3297  0.4454
 4295TIP3    H134376   2.558   2.853   5.497  0.7857 -0.1144  0.0788
 4295TIP3    H234377   2.411   2.881   5.518  1.3804  1.7275  2.1599
 4296TIP3   OH234378   0.075   6.273   4.476 -0.2634  0.6695 -0.1371
 4296TIP3    H134379   0.053   6.284   4.569 -0.7190  0.5871 -0.2327
 4296TIP3    H234380   0.125   6.192   4.473 -1.2084  0.0653 -0.1059
 4297TIP3   OH234381   0.880   0.293  14.064 -0.4640 -0.1105 -0.4182
 4297TIP3    H134382   0.884   0.279  13.969 -2.6031  0.1630 -0.6006
 4297TIP3    H234383   0.885   0.205  14.101  0.5645 -0.2067 -0.7661
 4298TIP3   OH234384   3.617   4.738   1.685  0.3275 -0.0809  0.3030
 4298TIP3    H134385   3.622   4.823   1.729 -2.7069 -0.9865  2.7708
 4298TIP3    H234386   3.600   4.760   1.594 -0.8398  2.0249  0.9451
 4299TIP3   OH234387   0.585   0.704   1.811 -0.2585 -0.4218  0.0665
 4299TIP3    H134388   0.641   0.684   1.736 -0.9450 -0.5129 -0.4289
 4299TIP3    H234389   0.529   0.627   1.820  0.5474 -0.8832  1.3608
 4300TIP3   OH234390   6.625   0.482   4.298 -0.4180 -0.1453  0.1194
 4300TIP3    H134391   6.704   0.498   4.349  1.2009 -1.9242 -1.6798
 4300TIP3    H234392   6.554   0.514   4.354  1.5770  2.5486  1.3587
 4301TIP3   OH234393   1.625   5.985  13.201  0.3903 -0.3719  0.3100
 4301TIP3    H134394   1.611   5.979  13.295 -1.1787 -0.6155  0.0845
 4301TIP3    H234395   1.549   5.941  13.162  0.7516  0.1683 -1.0746
 4302TIP3   OH234396   4.840   4.640  15.822  0.1692 -1.1370 -0.1706
 4302TIP3    H134397   4.889   4.592  15.890 -0.1336  1.0886  1.7383
 4302TIP3    H234398   4.879   4.611  15.740  1.9331 -2.4622  1.0499
 4303TIP3   OH234399   0.729   4.117   3.385 -0.2658  1.1355  0.6771
 4303TIP3    H134400   0.713   4.035   3.338  0.9163 -0.0231  2.2238
 4303TIP3    H234401   0.780   4.170   3.323 -0.1788  0.3263  0.0384
 4304TIP3   OH234402   2.462   1.929   0.021  0.2545 -0.2194  0.0320
 4304TIP3    H134403   2.479   1.834   0.021  1.1538 -0.0699 -0.7421
 4304TIP3    H234404   2.416   1.945   0.104  1.2900 -1.1211  0.8105
 4305TIP3   OH234405   1.512   3.292   3.401 -0.2898  0.2977 -1.0187
 4305TIP3    H134406   1.538   3.221   3.460 -1.2728 -0.1237 -1.0718
 4305TIP3    H234407   1.418   3.278   3.387 -0.3981  1.3357 -1.4103
 4306TIP3   OH234408   0.737   3.240   4.255 -0.1647  0.2170 -0.1172
 4306TIP3    H134409   0.810   3.218   4.314 -0.0087  0.2868 -0.2822
 4306TIP3    H234410   0.710   3.156   4.218  0.0661  0.2348 -0.3258
 4307TIP3   OH234411   4.550   4.045   1.782 -0.7886  1.2262  0.5519
 4307TIP3    H134412   4.642   4.021   1.769 -1.5978 -1.4219 -1.1799
 4307TIP3    H234413   4.545   4.069   1.875  1.4030  0.0761  1.0452
 4308TIP3   OH234414   2.662   1.704   0.687  0.3651  0.1095  0.1793
 4308TIP3    H134415   2.640   1.797   0.677 -0.7393  0.0222  1.4690
 4308TIP3    H234416   2.654   1.688   0.781 -0.0420 -1.4304 -0.0996
 4309TIP3   OH234417   4.608   1.570  15.223  0.7374 -0.0154 -0.1769
 4309TIP3    H134418   4.552   1.547  15.149 -0.3312 -1.8526  1.1279
 4309TIP3    H234419   4.551   1.568  15.299  1.8381  1.6952  0.7735
 4310TIP3   OH234420   3.396   2.908  14.032 -0.0609 -0.7156 -0.6473
 4310TIP3    H134421   3.320   2.952  13.995 -0.3309 -0.7392 -0.1219
 4310TIP3    H234422   3.470   2.941  13.980  0.2409  2.8974  1.6954
 4311TIP3   OH234423   4.892   5.449   5.467 -0.0665  0.8022  0.3485
 4311TIP3    H134424   4.963   5.422   5.408  0.1663 -2.8850  2.0294
 4311TIP3    H234425   4.935   5.502   5.534  1.0601 -0.7655  0.9307
 4312TIP3   OH234426   0.677   1.098   1.931 -0.6594  0.0197 -0.4863
 4312TIP3    H134427   0.699   1.029   1.868  0.8105  0.3593 -0.3913
 4312TIP3    H234428   0.594   1.134   1.899 -1.6242 -1.9686 -0.3477
 4313TIP3   OH234429   1.150   0.327  12.165  0.5150 -0.0079 -0.3265
 4313TIP3    H134430   1.198   0.408  12.186  2.3413 -0.9429 -0.7093
 4313TIP3    H234431   1.200   0.287  12.094 -0.6428 -1.2423 -0.4893
 4314TIP3   OH234432   0.078   0.084   5.781  0.5673 -0.0406 -0.1735
 4314TIP3    H134433   0.121  -0.002   5.789  0.5886 -0.1505 -1.3686
 4314TIP3    H234434  -0.015   0.064   5.778  0.3501  0.1936  2.3279
 4315TIP3   OH234435   1.159   0.506   2.260 -0.2107 -0.1927  0.5053
 4315TIP3    H134436   1.081   0.461   2.294 -0.9877 -1.2605 -2.3800
 4315TIP3    H234437   1.181   0.570   2.327 -3.3460 -0.1331  1.6308
 4316TIP3   OH234438   6.238   1.106  15.421  0.0848  0.0868 -0.3239
 4316TIP3    H134439   6.329   1.133  15.428  0.2308 -0.3654 -0.4023
 4316TIP3    H234440   6.227   1.081  15.329  0.1071 -0.6120 -0.1443
 4317TIP3   OH234441   3.171   4.782  11.361  0.2034  1.1203  0.0252
 4317TIP3    H134442   3.113   4.858  11.351 -2.3785 -0.7621 -0.3406
 4317TIP3    H234443   3.148   4.726  11.287 -0.0251 -1.2371  1.7936
 4318TIP3   OH234444   5.538   2.223  15.907 -0.1951 -0.0997  0.4756
 4318TIP3    H134445   5.517   2.147  15.853 -1.0902 -1.5760  2.7583
 4318TIP3    H234446   5.634   2.224  15.912 -0.1498 -0.6246 -0.1860
 4319TIP3   OH234447   0.224   6.527   3.433 -0.8275  0.2570 -0.2167
 4319TIP3    H134448   0.194   6.457   3.492 -0.4864  1.7509  1.8369
 4319TIP3    H234449   0.265   6.591   3.491  0.6079  1.2794 -2.2529
 4320TIP3   OH234450   2.155   5.649   5.368 -0.2494  0.5392  0.8150
 4320TIP3    H134451   2.090   5.656   5.298  0.8682 -0.9425 -0.4612
 4320TIP3    H234452   2.157   5.736   5.408 -2.9939  0.6261  0.9354
 4321TIP3   OH234453   4.477   1.051  11.178  0.1701 -0.0482  0.3444
 4321TIP3    H134454   4.436   0.965  11.177  1.3152 -0.6203  1.0011
 4321TIP3    H234455   4.482   1.074  11.271 -1.6422  1.4962  0.1163
 4322TIP3   OH234456   2.355   6.563  12.021  0.4965 -0.4150  0.1605
 4322TIP3    H134457   2.350   6.470  12.043  0.9244 -0.4708  0.0340
 4322TIP3    H234458   2.329   6.566  11.929 -0.8098 -0.2428  0.5196
 4323TIP3   OH234459   6.321   1.604   3.194  0.5272 -0.3376  0.1612
 4323TIP3    H134460   6.392   1.643   3.143 -0.2818 -0.2897 -0.9741
 4323TIP3    H234461   6.316   1.658   3.273  1.3018  0.0756 -0.0604
 4324TIP3   OH234462   3.078   0.993  11.502 -0.1784 -0.8139 -0.2104
 4324TIP3    H134463   3.049   0.955  11.419  1.2122 -0.3023 -0.9609
 4324TIP3    H234464   3.170   0.968  11.509  0.4063  1.2495 -0.0637
 4325TIP3   OH234465   5.868   0.651   1.517 -0.4155  0.3195  0.0927
 4325TIP3    H134466   5.923   0.583   1.477  1.0487  0.9693  0.9026
 4325TIP3    H234467   5.786   0.607   1.538  0.2115 -0.9974 -0.1116
 4326TIP3   OH234468   2.935   2.180   4.915  0.4021 -0.7224  0.1914
 4326TIP3    H134469   2.914   2.206   4.825 -1.7434  2.2470  1.3838
 4326TIP3    H234470   2.869   2.114   4.936  1.0192 -1.5586 -0.4280
 4327TIP3   OH234471   0.582   0.297  11.144 -0.7337  0.4162  0.3186
 4327TIP3    H134472   0.672   0.268  11.163  0.0755  2.5674  0.0527
 4327TIP3    H234473   0.562   0.258  11.059  0.2745  0.5220  0.0139
 4328TIP3   OH234474   1.505   2.964  15.906  0.1152  0.2344  0.7186
 4328TIP3    H134475   1.500   2.903  15.980 -0.1270  1.0860  1.4274
 4328TIP3    H234476   1.569   2.924  15.846  0.3856 -0.4261  1.4211
 4329TIP3   OH234477   3.472   3.424   4.776  0.6448  1.1738  0.1739
 4329TIP3    H134478   3.481   3.478   4.854 -0.3892  1.2189  0.2796
 4329TIP3    H234479   3.393   3.372   4.791  1.8033 -0.6483  0.2232
 4330TIP3   OH234480   6.110   2.837   3.210 -0.0472  0.6318  0.2125
 4330TIP3    H134481   6.092   2.753   3.167 -0.3745  0.7282  0.1524
 4330TIP3    H234482   6.055   2.900   3.162 -0.2161  0.7849  0.6061
 4331TIP3   OH234483   1.808   3.855  15.474  0.3643  0.0458 -0.6092
 4331TIP3    H134484   1.816   3.946  15.499 -1.0014  1.2949 -4.0546
 4331TIP3    H234485   1.731   3.823  15.522 -0.3971  1.3617 -0.9094
 4332TIP3   OH234486   1.843   5.937   2.469  0.4698  0.4316 -0.2506
 4332TIP3    H134487   1.899   5.921   2.394  1.1088  1.3946  0.0117
 4332TIP3    H234488   1.865   6.025   2.498 -1.6120  1.0900 -0.5173
 4333TIP3   OH234489   5.356   6.532   3.531 -0.3674  0.1377 -0.1192
 4333TIP3    H134490   5.417   6.487   3.588  0.9411  1.4857 -0.3877
 4333TIP3    H234491   5.402   6.540   3.448 -1.6697 -0.4830 -0.9299
 4334TIP3   OH234492   6.695   3.312  13.544 -0.3209  0.1202  0.0150
 4334TIP3    H134493   6.782   3.296  13.510  0.3734  2.7380  0.3478
 4334TIP3    H234494   6.668   3.228  13.582  1.2391 -1.2432 -1.7380
 4335TIP3   OH234495   6.375   5.870   6.576 -0.0659  0.4395  0.4475
 4335TIP3    H134496   6.366   5.956   6.617 -1.1959  0.2001  0.7120
 4335TIP3    H234497   6.413   5.815   6.644 -0.9748  0.3011  0.8541
 4336TIP3   OH234498   2.308   1.520   0.914  0.2111 -0.2518 -0.1107
 4336TIP3    H134499   2.275   1.557   0.832 -1.0610  1.1626  0.9517
 4336TIP3    H234500   2.258   1.566   0.982 -0.9468 -3.4391  1.3973
 4337TIP3   OH234501   3.034   0.328   1.964 -0.2817  0.1777  0.0312
 4337TIP3    H134502   3.013   0.344   1.872  0.2823  0.5344 -0.0437
 4337TIP3    H234503   3.009   0.409   2.009  0.2154  0.3223  0.0555
 4338TIP3   OH234504   4.099   4.553  11.677 -0.2232  0.3307  0.0090
 4338TIP3    H134505   4.007   4.570  11.656 -0.0775  1.4268  0.1685
 4338TIP3    H234506   4.147   4.597  11.607  0.1890  0.7449  0.5434
 4339TIP3   OH234507   3.248   1.561   6.093 -0.0089 -0.3131  0.5355
 4339TIP3    H134508   3.275   1.472   6.072  1.4418  0.2925 -0.2139
 4339TIP3    H234509   3.245   1.563   6.189  1.8233 -0.6546  0.6292
 4340TIP3   OH234510   3.150   5.274   3.753  0.0665  0.0573 -0.4147
 4340TIP3    H134511   3.243   5.264   3.737 -0.2577 -0.6812 -2.0011
 4340TIP3    H234512   3.134   5.226   3.834  0.8235 -1.0594 -0.9116
 4341TIP3   OH234513   2.797   5.206  12.730  0.0325  0.5801  0.8313
 4341TIP3    H134514   2.753   5.122  12.725  0.7982  0.1583  1.0681
 4341TIP3    H234515   2.890   5.185  12.735  0.4661  1.4920 -1.8141
 4342TIP3   OH234516   6.375   3.561  12.127 -0.0510 -0.3950 -0.1847
 4342TIP3    H134517   6.467   3.564  12.101  0.1011 -0.1864  0.3604
 4342TIP3    H234518   6.327   3.591  12.049  0.4085  0.3963 -0.1780
 4343TIP3   OH234519   5.836   3.897   3.535  0.3503  0.7641 -0.2483
 4343TIP3    H134520   5.930   3.912   3.542  0.0346  2.8055  0.3185
 4343TIP3    H234521   5.811   3.939   3.452 -0.2182  1.2005  0.1375
 4344TIP3   OH234522   0.998   2.813  16.444  0.5301  0.8631  0.5488
 4344TIP3    H134523   0.912   2.780  16.473 -0.1936  1.3791 -0.9234
 4344TIP3    H234524   1.057   2.789  16.515 -0.6308 -0.4338  1.1421
 4345TIP3   OH234525   1.292   2.376  13.352 -0.2468  0.3347 -0.1861
 4345TIP3    H134526   1.314   2.419  13.435 -1.5583  0.4497  0.1259
 4345TIP3    H234527   1.272   2.286  13.377  1.0332 -0.0948 -0.6353
 4346TIP3   OH234528   1.933   2.796  16.529  0.1505 -0.4476 -0.4969
 4346TIP3    H134529   1.935   2.754  16.614  2.4061  0.4758 -0.0251
 4346TIP3    H234530   2.022   2.788  16.495  0.6019  3.2114 -0.6551
 4347TIP3   OH234531   0.595   2.306   5.420  0.0043  0.3713  0.1428
 4347TIP3    H134532   0.640   2.260   5.492  1.1166 -0.1046 -0.8283
 4347TIP3    H234533   0.525   2.355   5.464  0.4411 -0.1659  1.5151
 4348TIP3   OH234534   4.391   0.634  14.459 -0.3583 -0.4015 -0.9226
 4348TIP3    H134535   4.342   0.632  14.542  1.2628 -2.5969  0.0856
 4348TIP3    H234536   4.435   0.719  14.459 -0.0094 -0.5504  0.7363
 4349TIP3   OH234537   6.744   0.015   0.193  0.2102 -0.0913  0.5642
 4349TIP3    H134538   6.676   0.082   0.193 -0.1264 -0.4069 -0.9688
 4349TIP3    H234539   6.701  -0.064   0.161  1.9121  0.5043 -3.9045
 4350TIP3   OH234540   1.022   0.562   5.699 -0.1240 -0.0107  0.2112
 4350TIP3    H134541   1.074   0.641   5.711 -1.5747  1.4130 -1.9780
 4350TIP3    H234542   1.086   0.492   5.690  1.2455  1.0300  1.3856
 4351TIP3   OH234543   0.266   0.867  13.221 -0.0475 -0.1381  0.1275
 4351TIP3    H134544   0.259   0.911  13.136  1.1486 -1.5637 -0.7657
 4351TIP3    H234545   0.260   0.937  13.285 -0.7922  1.0001 -1.1369
 4352TIP3   OH234546   3.456   2.137   1.588  0.0717 -0.4151 -0.3815
 4352TIP3    H134547   3.551   2.136   1.598  0.0425  0.3253  0.0399
 4352TIP3    H234548   3.430   2.226   1.611 -0.4951  0.1073 -2.7911
 4353TIP3   OH234549   3.170   6.574  15.639 -0.0839  0.8400 -0.6315
 4353TIP3    H134550   3.126   6.505  15.590  0.1768  0.8651 -0.9013
 4353TIP3    H234551   3.244   6.531  15.682 -0.5840  0.7163  0.1387
 4354TIP3   OH234552   5.440   2.622  12.231  0.0306 -0.2519  0.0401
 4354TIP3    H134553   5.427   2.709  12.194 -2.5110 -0.5859 -0.0543
 4354TIP3    H234554   5.440   2.563  12.154  0.1459 -0.4769  0.2102
 4355TIP3   OH234555   3.308   2.784   2.103  0.1976 -0.0880  0.0635
 4355TIP3    H134556   3.267   2.803   2.187 -2.2177 -2.1399 -0.5082
 4355TIP3    H234557   3.294   2.862   2.050 -1.5467 -0.0695  0.4797
 4356TIP3   OH234558   1.213   5.422   5.942 -0.0013  0.1367  0.0192
 4356TIP3    H134559   1.228   5.435   5.848  0.3219 -0.3513  0.0005
 4356TIP3    H234560   1.160   5.342   5.946  1.5188 -0.8944  0.3386
 4357TIP3   OH234561   0.410   2.049   4.976 -0.2301 -0.1876  0.4212
 4357TIP3    H134562   0.422   2.080   5.066  1.8651  2.7934 -0.7088
 4357TIP3    H234563   0.353   2.116   4.935  0.0637 -0.6773 -0.8354
 4358TIP3   OH234564   4.000   1.077  12.282  0.3808 -0.0084 -0.3645
 4358TIP3    H134565   3.931   1.095  12.218 -0.6533 -0.8881  0.4429
 4358TIP3    H234566   4.039   0.994  12.253 -0.4268 -0.6728  0.3698
 4359TIP3   OH234567   4.550   2.188  12.391  0.1489 -0.5741 -0.1999
 4359TIP3    H134568   4.632   2.231  12.367 -0.0091 -0.0774  0.1314
 4359TIP3    H234569   4.498   2.190  12.311 -0.5067  1.3839  0.2295
 4360TIP3   OH234570   5.653   3.199   1.657  0.5693 -0.1723 -0.2609
 4360TIP3    H134571   5.697   3.170   1.577 -0.6317  1.1499 -1.4623
 4360TIP3    H234572   5.568   3.155   1.653  0.2787  0.3668 -0.0210
 4361TIP3   OH234573   6.754   6.090  14.153 -0.1340  0.4407  0.0351
 4361TIP3    H134574   6.732   6.028  14.223 -0.4378  0.9853  0.4299
 4361TIP3    H234575   6.773   6.172  14.198  0.1341  0.6739 -0.4906
 4362TIP3   OH234576   4.099   1.148   3.488 -0.2551  0.0373  0.1466
 4362TIP3    H134577   4.075   1.153   3.580 -2.4682  1.7109 -0.4488
 4362TIP3    H234578   4.189   1.180   3.485 -0.3090  0.3962  1.6709
 4363TIP3   OH234579   0.289   0.831  10.775 -0.3419 -0.6191  0.0446
 4363TIP3    H134580   0.379   0.810  10.751 -0.5705 -0.3791 -1.0798
 4363TIP3    H234581   0.277   0.922  10.746 -0.9987 -0.7054  0.0289
 4364TIP3   OH234582   0.397   3.382  16.640  0.1208  0.8038 -0.3734
 4364TIP3    H134583   0.441   3.466  16.658  2.4785  0.0388 -2.0101
 4364TIP3    H234584   0.413   3.367  16.547  0.1189 -1.6555 -0.0193
 4365TIP3   OH234585   4.024   4.681  17.032 -0.0040  0.4585  0.3203
 4365TIP3    H134586   3.986   4.614  16.976  0.0981  0.6650  0.0016
 4365TIP3    H234587   4.074   4.632  17.097 -1.2502  0.1576  1.0882
 4366TIP3   OH234588   5.554   6.146   3.851  0.5056  0.2258 -0.1491
 4366TIP3    H134589   5.462   6.143   3.825  0.3959  0.6622  0.1750
 4366TIP3    H234590   5.556   6.109   3.939  0.4210  1.4341  0.3925
 4367TIP3   OH234591   6.828   5.864   3.357  0.1110 -0.0793  0.3475
 4367TIP3    H134592   6.901   5.865   3.295  0.0617 -0.0284  0.2898
 4367TIP3    H234593   6.758   5.817   3.311 -0.3693  1.0729 -0.1489
 4368TIP3   OH234594   4.488   0.543   3.433  0.5271 -0.3831  0.0369
 4368TIP3    H134595   4.419   0.607   3.419 -0.0156 -1.2998 -1.7397
 4368TIP3    H234596   4.494   0.535   3.528 -1.6995 -0.1681  0.2526
 4369TIP3   OH234597   4.222   0.515  10.903  0.4243  0.1313 -0.0490
 4369TIP3    H134598   4.282   0.468  10.844 -0.3602 -0.1948 -0.6000
 4369TIP3    H234599   4.177   0.578  10.846  0.9826  1.1154  0.5585
 4370TIP3   OH234600   2.403   6.064   3.597  0.0485 -0.1150 -0.2042
 4370TIP3    H134601   2.417   6.044   3.505  0.5897 -1.2846  0.0993
 4370TIP3    H234602   2.396   6.159   3.601 -0.6407 -0.0875 -1.5242
 4371TIP3   OH234603   2.723   3.522  11.374  0.3906 -0.3044  0.5364
 4371TIP3    H134604   2.733   3.433  11.406 -0.3062 -0.2016  1.0624
 4371TIP3    H234605   2.665   3.514  11.298  1.1163 -0.4073 -0.0204
 4372TIP3   OH234606   6.360   1.776   2.297 -0.4415  0.5050 -0.1256
 4372TIP3    H134607   6.276   1.788   2.253 -0.5639  1.3894  0.3312
 4372TIP3    H234608   6.414   1.849   2.267 -0.1905  0.5420  0.3962
 4373TIP3   OH234609   2.659   0.552   4.859 -0.8432 -0.6871  0.5242
 4373TIP3    H134610   2.612   0.632   4.881  0.8618  0.5988 -0.3052
 4373TIP3    H234611   2.687   0.516   4.944 -0.0107  0.6396  0.8348
 4374TIP3   OH234612   4.101   5.371  16.825  0.2066 -0.1710  0.1560
 4374TIP3    H134613   4.191   5.384  16.855 -0.0814 -0.1382  1.0265
 4374TIP3    H234614   4.052   5.444  16.862 -0.6373 -1.4747  1.7575
 4375TIP3   OH234615   6.649   2.824  12.360 -0.5140  0.3241  0.5059
 4375TIP3    H134616   6.727   2.878  12.348 -0.5049  0.1240 -0.4208
 4375TIP3    H234617   6.592   2.877  12.416  0.5842  0.1415  1.8463
 4376TIP3   OH234618   4.008   6.770   5.609  0.0645  0.3618  0.5251
 4376TIP3    H134619   4.030   6.775   5.702  0.8488  0.3774  0.3473
 4376TIP3    H234620   4.012   6.861   5.579  1.2412  0.2049  0.1698
 4377TIP3   OH234621   3.791   1.380   2.053 -0.0825  0.4958 -0.1778
 4377TIP3    H134622   3.717   1.441   2.053  0.1812  0.8158 -0.0086
 4377TIP3    H234623   3.760   1.306   2.000 -1.2985 -0.3099  1.5461
 4378TIP3   OH234624   3.337   1.889  13.743  0.1326  0.4124 -0.0683
 4378TIP3    H134625   3.245   1.911  13.763 -2.2124 -2.7356 -5.2216
 4378TIP3    H234626   3.367   1.962  13.688  0.2981  0.8069  0.5310
 4379TIP3   OH234627   3.151   3.472   4.533  0.1084 -0.4966  0.3853
 4379TIP3    H134628   3.076   3.418   4.506  1.0621 -2.4589  1.4303
 4379TIP3    H234629   3.132   3.559   4.498 -1.4699 -1.5116 -1.4774
 4380TIP3   OH234630   6.543   4.462  13.451 -0.2499 -0.1414  0.0628
 4380TIP3    H134631   6.450   4.479  13.467 -0.2554 -1.6548  1.8655
 4380TIP3    H234632   6.564   4.386  13.504  2.9649  2.3777  2.8879
 4381TIP3   OH234633   4.819   5.184  12.396  0.1586  0.2465  0.4836
 4381TIP3    H134634   4.798   5.244  12.469 -0.5682 -0.8661  1.2302
 4381TIP3    H234635   4.744   5.192  12.337  0.2238  0.3428  0.4157
 4382TIP3   OH234636   2.002   1.156  12.293  0.8177 -0.7569 -0.1148
 4382TIP3    H134637   2.073   1.207  12.254 -0.4587  0.4750 -0.9231
 4382TIP3    H234638   2.021   1.158  12.387  0.9387  1.0813 -0.1299
 4383TIP3   OH234639   2.634   3.806  14.406  0.3924  0.1038 -0.0958
 4383TIP3    H134640   2.658   3.896  14.383 -2.3704  1.0242  0.2795
 4383TIP3    H234641   2.718   3.762  14.421  1.8286  2.6355 -0.1555
 4384TIP3   OH234642   5.167   0.532  15.374  0.3626 -0.0459  0.4718
 4384TIP3    H134643   5.167   0.569  15.286  1.2275 -1.5740 -0.2077
 4384TIP3    H234644   5.255   0.551  15.408  0.0434  0.5113  1.0133
 4385TIP3   OH234645   5.568   4.117  11.118  0.2827  0.3103 -0.0378
 4385TIP3    H134646   5.587   4.056  11.047  1.6072  1.5419 -0.7908
 4385TIP3    H234647   5.650   4.122  11.168 -0.1852  0.5569  0.7233
 4386TIP3   OH234648   5.785   1.699  10.806  0.1624 -0.7670  0.0541
 4386TIP3    H134649   5.711   1.757  10.825  1.5462  1.2608 -0.4471
 4386TIP3    H234650   5.828   1.740  10.731  1.8906 -1.8158  0.4406
 4387TIP3   OH234651   1.950   4.663  12.576 -0.1985  0.4743  1.1995
 4387TIP3    H134652   1.948   4.570  12.601  2.7954 -0.4326 -1.2621
 4387TIP3    H234653   2.038   4.692  12.599  0.8351  1.0642 -2.7898
 4388TIP3   OH234654   4.173   1.230   0.927 -0.0907 -0.1119  0.0283
 4388TIP3    H134655   4.127   1.313   0.942 -1.3080 -0.9469  1.1568
 4388TIP3    H234656   4.177   1.189   1.013  1.8109 -0.5976 -0.2566
 4389TIP3   OH234657   5.949   5.332  15.942  0.3520 -0.2984  0.1424
 4389TIP3    H134658   5.906   5.260  15.896 -2.2873 -0.0197  1.9393
 4389TIP3    H234659   5.885   5.361  16.007  3.2604  0.3405  2.9779
 4390TIP3   OH234660   1.554   6.548  13.008 -0.1376 -0.2465 -0.4585
 4390TIP3    H134661   1.597   6.634  13.016  1.1724 -0.8879 -0.2786
 4390TIP3    H234662   1.521   6.547  12.918 -0.4168  0.5559 -0.3758
 4391TIP3   OH234663   6.618   5.506   3.068 -0.1373  0.3587 -0.8716
 4391TIP3    H134664   6.607   5.600   3.052 -1.4851  0.9915  2.7145
 4391TIP3    H234665   6.542   5.482   3.120 -0.2640 -3.0082 -2.3632
 4392TIP3   OH234666   4.432   4.692  12.193 -0.3763 -0.7495  0.1841
 4392TIP3    H134667   4.458   4.775  12.232 -0.1413 -1.5882  1.8825
 4392TIP3    H234668   4.340   4.682  12.216 -0.7458 -0.4171 -1.0604
 4393TIP3   OH234669   1.025   4.744   3.859  0.5368  0.1564 -0.2394
 4393TIP3    H134670   1.112   4.741   3.819  0.7550  0.5449  0.1960
 4393TIP3    H234671   1.042   4.761   3.952  0.0577 -1.1055  0.0955
 4394TIP3   OH234672   1.326   1.394   1.060 -0.4319 -0.4238 -0.0019
 4394TIP3    H134673   1.396   1.329   1.069 -1.4082 -1.4666  0.2876
 4394TIP3    H234674   1.372   1.478   1.057  0.7981 -1.0350  0.7941
 4395TIP3   OH234675   4.455   3.911   2.804 -0.4595 -0.5160  0.1683
 4395TIP3    H134676   4.463   4.006   2.810  0.5337 -0.1685 -3.7519
 4395TIP3    H234677   4.532   3.877   2.849  0.3586  0.6662 -0.2922
 4396TIP3   OH234678   1.351   2.611  16.305  0.4468 -0.1425 -0.2854
 4396TIP3    H134679   1.324   2.703  16.300  3.3833  0.9268  1.1559
 4396TIP3    H234680   1.325   2.574  16.221 -0.4841  2.0945 -1.0652
 4397TIP3   OH234681   3.595   1.115  13.229 -0.2035 -0.2393 -0.3583
 4397TIP3    H134682   3.688   1.091  13.229 -0.0708  0.1062 -2.2403
 4397TIP3    H234683   3.595   1.210  13.229 -0.6269 -0.2068  1.1671
 4398TIP3   OH234684   4.843   3.741   1.818 -0.0950 -0.1483 -0.3877
 4398TIP3    H134685   4.757   3.767   1.852 -0.1924 -0.7769 -0.1326
 4398TIP3    H234686   4.860   3.801   1.745 -0.8876 -0.2223 -0.6352
 4399TIP3   OH234687   0.128   4.987   4.276 -0.2765  0.0329 -0.3578
 4399TIP3    H134688   0.037   4.989   4.307 -0.6712  0.9367 -1.4995
 4399TIP3    H234689   0.175   4.938   4.343 -1.6491 -0.6673  0.1423
 4400TIP3   OH234690   3.564   4.078  13.167  0.0676  0.4322 -0.2701
 4400TIP3    H134691   3.648   4.088  13.124  0.3710  0.2245  0.2589
 4400TIP3    H234692   3.570   3.995  13.214 -0.6236  0.1594 -0.6471
 4401TIP3   OH234693   4.184   3.572  10.695 -0.0159 -0.1657 -0.2529
 4401TIP3    H134694   4.279   3.579  10.708  0.1644 -1.2133 -0.9220
 4401TIP3    H234695   4.153   3.663  10.697  1.0806  0.2311 -0.6231
 4402TIP3   OH234696   0.086   6.399   3.649  0.8622 -0.8229 -0.5775
 4402TIP3    H134697   0.030   6.343   3.704  1.7604 -0.1309  1.1138
 4402TIP3    H234698   0.050   6.487   3.660  1.9522 -0.4446  0.1447
 4403TIP3   OH234699   3.180   3.130   0.512 -0.5279 -0.6244  0.4994
 4403TIP3    H134700   3.262   3.098   0.548  1.1897  2.3095 -0.4210
 4403TIP3    H234701   3.142   3.184   0.582 -1.6627 -1.8540  0.8726
 4404TIP3   OH234702   4.906   1.321  16.366  0.1600  0.0543 -0.4440
 4404TIP3    H134703   4.919   1.342  16.273  0.1771  0.8225 -0.2760
 4404TIP3    H234704   4.957   1.387  16.412 -1.7632  1.1805  0.1695
 4405TIP3   OH234705   6.319   5.153   0.560  0.1817 -0.6862 -0.5168
 4405TIP3    H134706   6.227   5.177   0.569  0.6405  1.2574 -0.4626
 4405TIP3    H234707   6.350   5.208   0.488  1.2595 -1.4532 -0.6542
 4406TIP3   OH234708   4.704   3.116  14.403 -0.3516 -0.0168  0.6119
 4406TIP3    H134709   4.634   3.058  14.373 -0.1403 -0.0645  0.1924
 4406TIP3    H234710   4.753   3.137  14.323 -1.7895  2.5943  0.3109
 4407TIP3   OH234711   4.713   1.810  15.101 -0.5584  0.0411  0.2359
 4407TIP3    H134712   4.775   1.861  15.153 -0.2009 -0.0255 -0.1198
 4407TIP3    H234713   4.672   1.750  15.164 -0.3677  0.1847  0.4974
 4408TIP3   OH234714   6.044   0.877   2.977 -0.2574  0.1717  0.7309
 4408TIP3    H134715   5.966   0.829   3.005  0.3095 -0.5454  1.0848
 4408TIP3    H234716   6.099   0.812   2.934  0.2653  0.6154  0.7126
 4409TIP3   OH234717   0.970   1.881   5.105  0.6723  0.2882  0.3189
 4409TIP3    H134718   0.892   1.855   5.055  1.1872 -0.5689 -0.0697
 4409TIP3    H234719   1.044   1.848   5.054  1.2539  0.2153  1.1768
 4410TIP3   OH234720   3.969   3.980   1.708  0.0551  0.8383 -0.0427
 4410TIP3    H134721   3.919   4.046   1.661  0.1297  1.6512  0.9883
 4410TIP3    H234722   3.943   3.991   1.800  1.6733  0.8848  0.4326
 4411TIP3   OH234723   5.655   3.317   0.358  0.3460 -0.9938 -0.1307
 4411TIP3    H134724   5.744   3.345   0.377 -0.2839  1.4426 -0.5109
 4411TIP3    H234725   5.649   3.320   0.262 -0.8493  1.5014 -0.0568
 4412TIP3   OH234726   1.126   2.221   4.182 -0.4674  0.2367  0.3618
 4412TIP3    H134727   1.098   2.130   4.169 -0.1141 -0.0127  1.2759
 4412TIP3    H234728   1.057   2.273   4.140 -0.9823 -0.4346  0.3558
 4413TIP3   OH234729   5.640   2.237  12.997 -0.0183 -0.0499  0.2161
 4413TIP3    H134730   5.680   2.304  12.941  1.7535 -1.5836 -0.4654
 4413TIP3    H234731   5.598   2.286  13.067  0.3197  1.8083 -0.8107
 4414TIP3   OH234732   0.496   5.548  16.397 -0.3031 -0.1637 -0.0508
 4414TIP3    H134733   0.526   5.555  16.487  0.1038  3.2010 -0.3402
 4414TIP3    H234734   0.400   5.550  16.403 -0.4026 -2.6950  0.3686
 4415TIP3   OH234735   1.432   5.374  15.581 -0.6133 -0.0016 -0.1182
 4415TIP3    H134736   1.419   5.447  15.521 -1.7003  0.3618  0.5141
 4415TIP3    H234737   1.482   5.411  15.654 -2.8097  0.7194  1.1517
 4416TIP3   OH234738   2.470   1.015  13.489  0.4414  0.1880  0.2157
 4416TIP3    H134739   2.563   1.034  13.500  0.5148  0.4111 -0.7189
 4416TIP3    H234740   2.456   1.018  13.394 -0.0146 -2.1369  0.1379
 4417TIP3   OH234741   6.145   0.510   4.381  0.1954 -0.5404  0.1824
 4417TIP3    H134742   6.217   0.570   4.362  1.5774 -1.8145  1.1680
 4417TIP3    H234743   6.115   0.481   4.295  0.8824 -0.0120 -0.2478
 4418TIP3   OH234744   5.264   2.915  12.246  0.3056 -0.1347  0.2382
 4418TIP3    H134745   5.311   2.879  12.170 -0.2976  0.3181 -0.3650
 4418TIP3    H234746   5.286   3.008  12.246 -0.2116 -0.0066  0.2233
 4419TIP3   OH234747   1.095   2.635  13.759 -0.2387 -0.4283  0.0636
 4419TIP3    H134748   1.110   2.729  13.749  0.2358 -0.7520 -3.6022
 4419TIP3    H234749   1.041   2.611  13.685  0.0540 -3.1535  0.6144
 4420TIP3   OH234750   6.387   1.237  16.950  0.3473  0.0057 -0.0031
 4420TIP3    H134751   6.337   1.204  17.025  2.6710 -0.7171  1.3341
 4420TIP3    H234752   6.382   1.168  16.884  0.4400 -0.5148  0.5333
 4421TIP3   OH234753   3.077   2.214   4.500 -0.4342 -0.1762  0.0734
 4421TIP3    H134754   3.160   2.258   4.518  0.8013 -2.3845  0.1757
 4421TIP3    H234755   3.078   2.197   4.406  0.3797 -2.1902  0.3787
 4422TIP3   OH234756   4.562   6.350  14.313 -0.5735  0.4929  0.2876
 4422TIP3    H134757   4.651   6.317  14.297 -0.4121  1.5349 -1.1670
 4422TIP3    H234758   4.507   6.272  14.315 -0.2306  0.0158 -3.1292
 4423TIP3   OH234759   1.840   3.524   4.114  0.1956  0.0452  0.4524
 4423TIP3    H134760   1.827   3.614   4.145  0.4075 -0.0751  0.8894
 4423TIP3    H234761   1.883   3.534   4.029 -0.2367  0.3711  0.2677
 4424TIP3   OH234762   0.990   5.185   3.362  0.0589 -0.3525  0.5625
 4424TIP3    H134763   0.916   5.128   3.344 -0.9893  0.1245  3.0231
 4424TIP3    H234764   0.975   5.263   3.308  0.3055 -1.3870 -1.0685
 4425TIP3   OH234765   2.801   0.121  13.373 -0.5452 -0.6005  0.5757
 4425TIP3    H134766   2.725   0.179  13.374 -0.0809  0.0103  1.0479
 4425TIP3    H234767   2.869   0.170  13.420  0.3378 -0.8605 -0.3950
 4426TIP3   OH234768   0.484   1.697   3.644  0.5912  0.1433 -0.5136
 4426TIP3    H134769   0.442   1.772   3.601  0.1029 -0.1680 -0.5822
 4426TIP3    H234770   0.429   1.622   3.622 -0.0219  0.0620  1.1396
 4427TIP3   OH234771   5.992   4.196  11.693 -0.0030  0.2457 -0.4381
 4427TIP3    H134772   5.988   4.239  11.607  0.6829  2.1709  0.4307
 4427TIP3    H234773   6.068   4.235  11.736  0.0442 -1.1554  0.8188
 4428TIP3   OH234774   5.840   1.417  10.080  0.4691 -0.6435  0.6362
 4428TIP3    H134775   5.828   1.485  10.146 -1.0888 -0.9715  0.7152
 4428TIP3    H234776   5.931   1.389  10.091  0.9012  0.8631  1.1212
 4429TIP3   OH234777   1.332   6.351   2.307 -0.2217 -0.3879 -0.0489
 4429TIP3    H134778   1.323   6.414   2.379  0.6928 -1.2187  0.8261
 4429TIP3    H234779   1.268   6.283   2.327  0.9570 -1.3129  0.7775
 4430TIP3   OH234780   6.279   6.224   2.395  0.1051  0.0530  0.4164
 4430TIP3    H134781   6.281   6.213   2.490  1.5892 -1.6821  0.2353
 4430TIP3    H234782   6.366   6.258   2.373  0.0112 -0.2061 -0.3965
 4431TIP3   OH234783   4.717   3.668   2.250  0.1442  0.4739 -0.1046
 4431TIP3    H134784   4.726   3.575   2.230 -0.6324  0.5673 -0.9423
 4431TIP3    H234785   4.623   3.681   2.263  0.3813  0.8850  1.3852
 4432TIP3   OH234786   0.074   4.154  11.229 -0.0535 -0.2612  0.3338
 4432TIP3    H134787   0.035   4.103  11.158 -2.8340  0.7783  0.9835
 4432TIP3    H234788   0.086   4.242  11.192  0.2020 -0.1665  0.6341
 4433TIP3   OH234789   4.273   1.188  13.744  0.0962  0.7107 -0.8748
 4433TIP3    H134790   4.359   1.156  13.770 -0.1226  1.6129  1.1680
 4433TIP3    H234791   4.284   1.214  13.652  1.3795 -1.1804 -1.3212
 4434TIP3   OH234792   0.030   4.694   2.312 -0.4177 -0.5862  0.0967
 4434TIP3    H134793   0.038   4.762   2.245 -1.4113  0.6347  1.1437
 4434TIP3    H234794  -0.052   4.650   2.292 -0.1890 -0.9200 -0.1021
 4435TIP3   OH234795   4.227   1.759  17.061 -0.1047  0.4727 -0.4671
 4435TIP3    H134796   4.142   1.778  17.102 -0.0514 -0.9357  0.3898
 4435TIP3    H234797   4.288   1.757  17.134  0.6669  1.4291 -1.0755
 4436TIP3   OH234798   5.179   1.236  12.432  0.3057  0.0181  0.3278
 4436TIP3    H134799   5.115   1.297  12.395 -0.6439 -0.6792  0.7879
 4436TIP3    H234800   5.252   1.239  12.371  0.9305  2.7061  1.0751
 4437TIP3   OH234801   4.178   5.383  11.211  0.0864  0.4218  0.1387
 4437TIP3    H134802   4.127   5.327  11.153 -0.1921  1.3217 -0.5110
 4437TIP3    H234803   4.179   5.468  11.167  3.4735  0.1083 -0.7129
 4438TIP3   OH234804   0.637   6.559   1.026 -0.3573  0.6747  0.5298
 4438TIP3    H134805   0.564   6.498   1.018  0.4743 -0.1577 -1.3399
 4438TIP3    H234806   0.705   6.510   1.071  0.4331  0.0185 -1.2716
 4439TIP3   OH234807   1.810   1.682  16.875  0.2633 -0.3728  0.1501
 4439TIP3    H134808   1.880   1.742  16.897  0.0591 -0.3199  0.6732
 4439TIP3    H234809   1.819   1.610  16.938 -0.6159  0.0045  0.7179
 4440TIP3   OH234810   6.024   6.082   2.982 -0.4333 -0.1251  0.1367
 4440TIP3    H134811   6.078   6.031   2.922  1.3815  1.8958 -0.1048
 4440TIP3    H234812   5.947   6.107   2.931  0.4699  0.4853 -0.9736
 4441TIP3   OH234813   5.943   6.543  16.763  0.0773  0.0977  0.1778
 4441TIP3    H134814   5.995   6.605  16.814 -1.1306  0.9199  0.4441
 4441TIP3    H234815   5.951   6.574  16.673  0.9721 -0.4614  0.0551
 4442TIP3   OH234816   2.585   5.864   0.255  0.3078 -0.7492  0.6260
 4442TIP3    H134817   2.601   5.778   0.214  0.4926 -0.8410  0.8897
 4442TIP3    H234818   2.579   5.925   0.181  1.3261 -0.8071  0.4887
 4443TIP3   OH234819   4.150   3.057   3.751 -0.1012  0.1737  0.0467
 4443TIP3    H134820   4.126   3.101   3.832 -0.8767  0.6466 -0.4190
 4443TIP3    H234821   4.072   3.065   3.696  1.3134  2.3231 -1.8004
 4444TIP3   OH234822   5.164   2.369   5.421 -0.1631 -0.1061  0.2496
 4444TIP3    H134823   5.083   2.330   5.454 -0.2639 -0.4634 -0.3991
 4444TIP3    H234824   5.233   2.323   5.468 -0.3369  1.9546  2.7322
 4445TIP3   OH234825   1.742   5.345   1.343 -0.2327  0.0216 -0.1749
 4445TIP3    H134826   1.768   5.436   1.328  0.2619  0.1389  1.2764
 4445TIP3    H234827   1.718   5.312   1.256  2.0472  0.7813 -1.1638
 4446TIP3   OH234828   0.154   0.962   2.732  0.2667  0.5178 -0.2452
 4446TIP3    H134829   0.216   0.903   2.688 -0.9372 -2.3520  1.6144
 4446TIP3    H234830   0.201   0.990   2.811  0.5687  1.5558 -0.7726
 4447TIP3   OH234831   2.545   3.146  12.337  0.1977  0.2047 -0.2127
 4447TIP3    H134832   2.567   3.203  12.264  0.9634 -0.1993 -0.3036
 4447TIP3    H234833   2.488   3.079  12.300 -1.4192  1.3859  0.0681
 4448TIP3   OH234834   4.799   2.895   4.546 -0.3384 -0.0797  0.0878
 4448TIP3    H134835   4.732   2.886   4.613  0.0590 -1.2088  0.3507
 4448TIP3    H234836   4.872   2.937   4.591  0.9306 -3.1439  1.1602
 4449TIP3   OH234837   2.420   6.838   5.907  0.1716  0.1726 -1.2440
 4449TIP3    H134838   2.455   6.755   5.939  1.7215  1.2720  0.0894
 4449TIP3    H234839   2.363   6.869   5.978  1.3141  1.2345 -0.7428
 4450TIP3   OH234840   4.667   4.770   4.440  0.5033 -0.2189 -0.4379
 4450TIP3    H134841   4.571   4.768   4.442  0.5150 -0.5612 -0.0413
 4450TIP3    H234842   4.692   4.759   4.532  0.9185  0.1912 -0.4997
 4451TIP3   OH234843   2.725   3.501   4.956 -0.3759 -0.5020  0.2007
 4451TIP3    H134844   2.735   3.596   4.955  0.3374 -0.5725 -0.9981
 4451TIP3    H234845   2.755   3.475   5.043  0.9449  0.2248 -0.0109
 4452TIP3   OH234846   6.171   4.482  12.281  0.0045 -0.2890  0.0356
 4452TIP3    H134847   6.107   4.411  12.277  0.3472 -0.7473  1.7536
 4452TIP3    H234848   6.242   4.453  12.224 -1.2901  0.2434 -1.9197
 4453TIP3   OH234849   1.783   4.112  12.996  0.0011  0.3505 -0.0895
 4453TIP3    H134850   1.708   4.128  13.054 -0.7932 -3.5940  0.2179
 4453TIP3    H234851   1.743   4.083  12.913  1.1193 -1.5620 -0.0084
 4454TIP3   OH234852   5.024   4.133   4.792 -0.4728  0.4575  0.3234
 4454TIP3    H134853   5.003   4.047   4.755  3.8515 -1.1256  0.9910
 4454TIP3    H234854   5.053   4.184   4.717 -2.8572  1.3893 -0.0421
 4455TIP3   OH234855   4.496   3.628  11.428 -0.0213  0.5432 -0.2529
 4455TIP3    H134856   4.432   3.571  11.386  1.5708 -1.3562 -0.2416
 4455TIP3    H234857   4.507   3.591  11.516 -0.0760  1.8247  0.3146
 4456TIP3   OH234858   5.637   2.461   4.655  0.2097  0.4534 -0.1378
 4456TIP3    H134859   5.614   2.387   4.598 -0.1837  0.5137 -0.0625
 4456TIP3    H234860   5.673   2.527   4.596 -0.3860  0.5978 -0.3546
 4457TIP3   OH234861   0.468   0.832   4.702  0.1646  0.5090  0.2818
 4457TIP3    H134862   0.440   0.870   4.786 -2.9114 -1.5247  0.3063
 4457TIP3    H234863   0.511   0.750   4.726 -0.4683  0.0611 -0.0864
 4458TIP3   OH234864   6.755   4.113   1.986  0.2461 -0.3333  0.1039
 4458TIP3    H134865   6.668   4.100   1.947  0.7224  0.4777 -1.3046
 4458TIP3    H234866   6.814   4.065   1.928  0.9949  1.0021 -0.2729
 4459TIP3   OH234867   4.535   1.490   4.812  0.0769 -0.6024  0.2068
 4459TIP3    H134868   4.564   1.561   4.869 -3.5221  0.3165  1.1374
 4459TIP3    H234869   4.529   1.529   4.725 -2.4689  0.5391  0.8220
 4460TIP3   OH234870   3.045   3.534   4.156 -0.4378  0.3434 -0.3385
 4460TIP3    H134871   2.978   3.582   4.205 -1.5904  0.2937 -1.7867
 4460TIP3    H234872   3.001   3.508   4.075  1.0201 -0.6787 -0.8417
 4461TIP3   OH234873   6.203   5.901   1.331  0.1919 -0.4858 -0.2841
 4461TIP3    H134874   6.244   5.819   1.308  0.0379  0.3064 -3.9912
 4461TIP3    H234875   6.272   5.967   1.322 -0.3096  0.0893 -0.0553
 4462TIP3   OH234876   3.083   5.747  15.015  0.6649 -0.1338  0.0369
 4462TIP3    H134877   3.109   5.707  14.932 -1.8902  1.5863 -1.7392
 4462TIP3    H234878   2.993   5.717  15.029  1.1653 -0.6857  2.4423
 4463TIP3   OH234879   3.924   5.276   3.535 -0.0345  0.2809 -0.1391
 4463TIP3    H134880   3.917   5.371   3.534  2.4455  0.5309 -2.3098
 4463TIP3    H234881   4.018   5.258   3.540 -0.3251 -2.0183 -1.5105
 4464TIP3   OH234882   5.586   4.055  11.934 -0.0578 -0.1020 -0.3129
 4464TIP3    H134883   5.563   4.017  11.849  1.2552 -0.8166 -0.3804
 4464TIP3    H234884   5.637   4.133  11.912 -0.2401  0.0559 -0.1748
 4465TIP3   OH234885   2.365   4.046   3.234  0.7807  0.5747  0.1525
 4465TIP3    H134886   2.460   4.059   3.225  0.9609 -1.1652 -1.0305
 4465TIP3    H234887   2.343   3.984   3.164 -1.6170  2.5260 -0.9807
 4466TIP3   OH234888   1.699   5.058  16.668 -0.4176  0.3582  0.2978
 4466TIP3    H134889   1.736   4.972  16.651 -0.7137 -0.4014  2.9864
 4466TIP3    H234890   1.775   5.113  16.689 -0.4171 -0.3326  2.4327
 4467TIP3   OH234891   1.899   1.131  13.023 -0.2298 -0.5005 -0.2110
 4467TIP3    H134892   1.951   1.179  13.087  1.3914 -2.3344 -0.0614
 4467TIP3    H234893   1.808   1.148  13.049  0.1310  3.0863 -0.6979
 4468TIP3   OH234894   3.926   5.557   5.537 -0.2188  0.5162 -0.4532
 4468TIP3    H134895   3.927   5.541   5.631 -2.1654  0.4513 -0.4095
 4468TIP3    H234896   4.009   5.601   5.519  0.1729  0.5353  1.2884
 4469TIP3   OH234897   5.611   3.662   1.787 -0.3859  0.4243  0.0909
 4469TIP3    H134898   5.551   3.597   1.750  0.2494 -0.0769 -0.0643
 4469TIP3    H234899   5.580   3.673   1.877  1.7366 -3.0118  1.4583
 4470TIP3   OH234900   2.419   4.423  11.833  0.0399 -0.0981 -0.4552
 4470TIP3    H134901   2.501   4.437  11.881 -0.6594 -0.1964  0.8078
 4470TIP3    H234902   2.367   4.367  11.891 -1.3075  0.7617 -0.8109
 4471TIP3   OH234903   3.227   6.165  12.152  0.1919  0.1088  0.3202
 4471TIP3    H134904   3.305   6.184  12.205  0.0867 -1.7740  1.2060
 4471TIP3    H234905   3.262   6.133  12.069  0.3475  0.3164  0.3028
 4472TIP3   OH234906   1.618   6.672  12.745 -0.2102 -0.4061 -0.0211
 4472TIP3    H134907   1.687   6.613  12.773 -1.5406 -2.2009 -0.3696
 4472TIP3    H234908   1.632   6.681  12.651 -0.6252 -1.0262 -0.1464
 4473TIP3   OH234909   3.142   6.334  12.637  0.0202 -0.1377  0.5305
 4473TIP3    H134910   3.098   6.266  12.585  0.7624  0.3393 -0.7658
 4473TIP3    H234911   3.087   6.411  12.627  1.4463  0.6876 -1.7486
 4474TIP3   OH234912   4.670   0.513   3.227  0.4012 -0.2610  0.1575
 4474TIP3    H134913   4.742   0.524   3.289 -0.3110 -0.0229  0.9606
 4474TIP3    H234914   4.591   0.530   3.278 -0.1672  1.0056 -1.0702
 4475TIP3   OH234915   4.485   5.480   0.695 -0.0637  0.0843  0.2454
 4475TIP3    H134916   4.419   5.439   0.750 -0.4352 -1.7075 -1.4341
 4475TIP3    H234917   4.568   5.468   0.742 -0.4877 -0.5570  0.8375
 4476TIP3   OH234918   3.736   3.650  11.313  0.3686 -0.3118  0.8706
 4476TIP3    H134919   3.752   3.737  11.276  1.1844 -0.8286 -0.0434
 4476TIP3    H234920   3.696   3.667  11.398  1.1285  0.9707  0.9913
 4477TIP3   OH234921   0.234   4.831  16.273  0.3336 -0.3814  0.0443
 4477TIP3    H134922   0.228   4.855  16.365 -1.5412  0.9717 -0.3753
 4477TIP3    H234923   0.282   4.903  16.232 -0.5271  0.0124 -0.3148
 4478TIP3   OH234924   0.330   4.129  10.715 -0.4345 -0.0315 -0.4778
 4478TIP3    H134925   0.415   4.103  10.679 -0.4921 -0.6846 -0.1684
 4478TIP3    H234926   0.266   4.095  10.652 -0.5466 -1.3880  0.3289
 4479TIP3   OH234927   5.227   2.901   4.410  0.2495  0.1093  0.2086
 4479TIP3    H134928   5.143   2.877   4.371  1.9239 -2.0631 -2.3374
 4479TIP3    H234929   5.285   2.828   4.391  3.0767  2.0059  0.8684
 4480TIP3   OH234930   4.417   4.499   6.079 -0.2000 -0.1840  0.1796
 4480TIP3    H134931   4.448   4.584   6.050 -1.3905  0.2931  0.2251
 4480TIP3    H234932   4.372   4.462   6.002 -1.7357  0.2764  0.8095
 4481TIP3   OH234933   0.494   6.307   1.021  0.2658 -0.5990  0.5044
 4481TIP3    H134934   0.507   6.216   1.045 -1.1487 -0.5649  1.5492
 4481TIP3    H234935   0.411   6.331   1.063 -0.3299  0.6300 -1.2360
 4482TIP3   OH234936   6.337   5.182   5.492  0.1187  0.6985  0.5976
 4482TIP3    H134937   6.266   5.118   5.492 -1.6492  2.5501  1.5525
 4482TIP3    H234938   6.335   5.221   5.580  0.6862  2.4906 -0.1246
 4483TIP3   OH234939   1.168   2.123   4.872  0.0994  0.6284 -0.1346
 4483TIP3    H134940   1.201   2.106   4.961  1.2781  0.0239 -0.6617
 4483TIP3    H234941   1.093   2.181   4.885 -0.6804 -0.6201  1.3755
 4484TIP3   OH234942   6.429   5.519  13.423  0.1682  0.3131  0.1965
 4484TIP3    H134943   6.428   5.516  13.327 -0.3980  0.5152  0.1914
 4484TIP3    H234944   6.516   5.487  13.447  0.1359 -0.2193 -0.3660
 4485TIP3   OH234945   2.863   6.280  12.759  0.0894 -0.6372 -0.2754
 4485TIP3    H134946   2.865   6.356  12.817 -0.8064 -0.9026  0.1151
 4485TIP3    H234947   2.776   6.242  12.771  0.6034 -1.8769 -0.2734
 4486TIP3   OH234948   0.680   5.051  14.038  0.2238 -0.3884  0.5902
 4486TIP3    H134949   0.722   5.116  13.981 -0.0106  2.0187  2.9717
 4486TIP3    H234950   0.717   4.968  14.010  0.8446  0.7499 -2.3811
 4487TIP3   OH234951   3.060   0.962  15.107  0.3841  0.0426  0.1506
 4487TIP3    H134952   3.003   0.981  15.182  0.0648  0.8545 -0.2924
 4487TIP3    H234953   3.140   1.011  15.124  0.3469  0.1530  0.0138
 4488TIP3   OH234954   6.086   1.905   2.457 -0.1596  0.1891 -0.0571
 4488TIP3    H134955   6.161   1.873   2.407  1.7321  0.3209  2.4869
 4488TIP3    H234956   6.058   1.829   2.508 -0.8814  0.5166  0.0349
 4489TIP3   OH234957   4.957   4.357   2.713  0.0969  0.4249 -0.0283
 4489TIP3    H134958   5.043   4.350   2.755 -0.1604  0.4272  0.5048
 4489TIP3    H234959   4.898   4.308   2.771 -0.5592  1.7324  0.4662
 4490TIP3   OH234960   2.713   2.772   3.087  0.6787 -0.1121 -0.0961
 4490TIP3    H134961   2.651   2.834   3.050  0.2281 -0.7428 -0.4208
 4490TIP3    H234962   2.716   2.701   3.023  0.6795 -0.7335  0.5807
 4491TIP3   OH234963   1.484   6.406  17.026 -0.0228  0.0918  0.0785
 4491TIP3    H134964   1.462   6.358  17.106 -0.1056 -0.8869 -0.5099
 4491TIP3    H234965   1.539   6.478  17.056 -1.9264  1.1257  1.2904
 4492TIP3   OH234966   0.521   4.023   1.132 -0.1502  0.0567 -0.2523
 4492TIP3    H134967   0.573   4.029   1.213 -1.8697 -0.7841  0.9849
 4492TIP3    H234968   0.569   3.961   1.077  0.5089 -0.1928  0.5882
 4493TIP3   OH234969   1.652   6.357   1.698 -0.5724  0.5062 -0.6039
 4493TIP3    H134970   1.576   6.340   1.643 -0.2626 -0.9329 -0.6203
 4493TIP3    H234971   1.634   6.308   1.778 -0.9709  2.4726  0.5921
 4494TIP3   OH234972   1.622   5.650  14.154  0.3373  0.1419  0.2375
 4494TIP3    H134973   1.614   5.647  14.250  2.8384  1.2533  0.5873
 4494TIP3    H234974   1.557   5.589  14.122 -0.0392 -0.8698  2.7021
 4495TIP3   OH234975   2.734   5.033   4.471 -0.2708  0.3214  0.6452
 4495TIP3    H134976   2.775   5.117   4.492  1.0593 -0.6204  1.9893
 4495TIP3    H234977   2.785   4.999   4.398  0.0986  0.0549  1.0223
 4496TIP3   OH234978   6.343   1.152  14.672  0.1947 -0.1792  0.7825
 4496TIP3    H134979   6.348   1.163  14.767  1.6051 -2.1725  0.9963
 4496TIP3    H234980   6.311   1.063  14.660 -2.3445  0.8128 -0.6948
 4497TIP3   OH234981   0.096   0.939   6.036  0.2037  0.4225  0.1506
 4497TIP3    H134982   0.163   0.997   6.072 -0.2762  1.0008  0.1276
 4497TIP3    H234983   0.129   0.851   6.054  0.8827  0.6965  0.2985
 4498TIP3   OH234984   4.245   1.577  14.045 -0.2440 -0.0182  0.4794
 4498TIP3    H134985   4.335   1.596  14.071 -0.3677 -0.9776  1.6700
 4498TIP3    H234986   4.194   1.585  14.126 -1.4406  1.6065 -0.3602
 4499TIP3   OH234987   3.595   4.523   1.896  0.3123  0.1717  0.2503
 4499TIP3    H134988   3.598   4.588   1.825 -1.1486  0.0025 -0.0051
 4499TIP3    H234989   3.551   4.568   1.968  2.2471  0.5077  1.2659
 4500TIP3   OH234990   0.429   5.338  15.563 -0.3968 -0.0610 -0.1816
 4500TIP3    H134991   0.417   5.388  15.644 -5.1362 -1.5924  0.3866
 4500TIP3    H234992   0.397   5.396  15.494  1.0660  0.2529 -0.6252
 4501TIP3   OH234993   3.869   4.215   2.909  0.3639  0.1587 -0.5463
 4501TIP3    H134994   3.860   4.194   3.001 -0.5183 -1.9363 -1.0665
 4501TIP3    H234995   3.958   4.186   2.886 -0.9192 -3.6312 -1.3143
 4502TIP3   OH234996   0.083   4.559  13.207  0.7994 -0.5270 -0.4432
 4502TIP3    H134997   0.153   4.606  13.251 -0.3865  0.7264  0.1877
 4502TIP3    H234998   0.066   4.483  13.263  0.5085  0.0934  0.3305
 4503TIP3   OH234999   1.719   0.053   5.497 -0.3760  0.0221 -0.4024
 4503TIP3    H135000   1.760  -0.033   5.495 -1.4467 -0.7148  2.9289
 4503TIP3    H235001   1.792   0.114   5.507  0.2225 -0.7422 -0.0747
 4504TIP3   OH235002   6.376   3.888   2.664 -0.0264  0.4124 -0.2481
 4504TIP3    H135003   6.426   3.864   2.587 -0.3030  1.1701 -0.6755
 4504TIP3    H235004   6.297   3.834   2.659 -0.5417  1.2258 -1.0786
 4505TIP3   OH235005   2.288   5.111   4.564  0.0357 -0.3475 -0.3639
 4505TIP3    H135006   2.357   5.044   4.568  0.8107  0.4288 -0.4995
 4505TIP3    H235007   2.307   5.160   4.484  1.0105  1.6438  1.0211
 4506TIP3   OH235008   3.749   2.069   6.352 -0.0704  0.3899 -0.2157
 4506TIP3    H135009   3.808   2.094   6.280  1.4513 -0.7782  0.5606
 4506TIP3    H235010   3.784   2.115   6.428 -0.9081  0.6205  0.0434
 4507TIP3   OH235011   1.382   0.280  14.602  0.0795  0.1084  0.6056
 4507TIP3    H135012   1.402   0.348  14.666  1.1486 -1.0736  1.5881
 4507TIP3    H235013   1.311   0.230  14.641 -0.6976  0.6374 -0.1092
 4508TIP3   OH235014   2.002   1.235  11.069  0.3100  0.7812  0.2975
 4508TIP3    H135015   2.013   1.214  11.162 -0.0472 -0.5912  0.0534
 4508TIP3    H235016   2.084   1.277  11.045  1.9691 -2.0847  0.4185
 4509TIP3   OH235017   0.603   3.076  10.364 -0.0257  0.5667 -0.6401
 4509TIP3    H135018   0.555   3.015  10.308 -2.1396 -0.0401  1.6394
 4509TIP3    H235019   0.550   3.155  10.366 -0.2788  0.4012  0.8077
 4510TIP3   OH235020   6.625   2.060  11.874  0.1076 -0.0569 -0.5431
 4510TIP3    H135021   6.710   2.030  11.844 -0.0887  0.4377 -1.6605
 4510TIP3    H235022   6.637   2.153  11.892  0.0632 -0.2144  0.3728
 4511TIP3   OH235023   3.127   3.590  12.371 -0.3530 -0.8375  0.0711
 4511TIP3    H135024   3.042   3.553  12.396 -1.2425  0.4239 -0.9428
 4511TIP3    H235025   3.136   3.567  12.278 -0.5115  0.6625 -0.3424
 4512TIP3   OH235026   3.214   4.649  16.968  0.3627  0.3279 -0.1419
 4512TIP3    H135027   3.290   4.670  17.022  0.9142  0.2404 -0.8646
 4512TIP3    H235028   3.140   4.652  17.028  1.2204 -2.1981  1.1630
 4513TIP3   OH235029   3.577   3.063   5.308 -0.3623 -0.0999  0.3750
 4513TIP3    H135030   3.495   3.086   5.265  0.3747  0.4912 -0.7654
 4513TIP3    H235031   3.583   3.125   5.381 -0.1822  0.9154 -0.4823
 4514TIP3   OH235032   0.503   1.291  10.895 -0.4932  0.3221  0.0928
 4514TIP3    H135033   0.413   1.283  10.926  0.1570 -0.6103  1.9185
 4514TIP3    H235034   0.516   1.215  10.838 -0.1121 -1.1486  2.0131
 4515TIP3   OH235035   6.387   4.592   3.437  0.1077  0.3955  0.2692
 4515TIP3    H135036   6.423   4.679   3.418 -1.4711  0.5853 -2.2243
 4515TIP3    H235037   6.302   4.611   3.478 -0.6318  0.0764 -1.0766
 4516TIP3   OH235038   0.572   2.257  15.187 -0.3588 -0.0964 -0.3033
 4516TIP3    H135039   0.557   2.312  15.264 -1.7366 -1.6668  0.6302
 4516TIP3    H235040   0.602   2.318  15.119 -1.6738  1.7720  0.6976
 4517TIP3   OH235041   6.362   6.304   2.089 -0.3699  0.7063  0.1689
 4517TIP3    H135042   6.316   6.380   2.125 -0.9174 -0.1019  1.2623
 4517TIP3    H235043   6.358   6.316   1.995 -1.8663  1.2490  0.2650
 4518TIP3   OH235044   3.679   0.113  15.349 -0.2288 -0.1805 -0.0920
 4518TIP3    H135045   3.596   0.125  15.395  0.4964  0.1990  1.1616
 4518TIP3    H235046   3.657   0.120  15.256 -1.4220  1.0707  0.2575
 4519TIP3   OH235047   0.640   1.648  12.548 -1.1305  0.4188  0.6059
 4519TIP3    H135048   0.634   1.578  12.483 -0.3086  0.7647  0.1381
 4519TIP3    H235049   0.594   1.722  12.508 -0.2184  0.7796  0.1971
 4520TIP3   OH235050   1.336   1.188   2.717 -0.7537  0.0627  0.3439
 4520TIP3    H135051   1.395   1.236   2.775  1.1492  1.0242 -2.1888
 4520TIP3    H235052   1.261   1.245   2.705  0.7076  1.7872 -1.2640
 4521TIP3   OH235053   0.903   1.277   4.128  0.1198  0.0256  0.2020
 4521TIP3    H135054   0.880   1.193   4.168 -2.4578  0.2286 -0.6538
 4521TIP3    H235055   0.870   1.271   4.038  0.6425  1.6465 -0.1309
 4522TIP3   OH235056   6.207   1.626  14.458  0.2674  0.1627 -0.3721
 4522TIP3    H135057   6.200   1.646  14.551 -0.8766  0.5655 -0.5254
 4522TIP3    H235058   6.119   1.600  14.433  0.5850 -0.0239 -1.3255
 4523TIP3   OH235059   2.765   0.381  14.899 -0.5797 -0.0595  0.2523
 4523TIP3    H135060   2.743   0.289  14.916 -0.4655 -0.0980  0.1923
 4523TIP3    H235061   2.855   0.390  14.928  0.4513 -0.7226 -2.4621
 4524TIP3   OH235062   6.048   2.554  11.459  0.4791 -0.0084 -0.5411
 4524TIP3    H135063   6.012   2.585  11.542  1.8745  0.4621 -0.0816
 4524TIP3    H235064   6.070   2.462  11.476  0.6298  0.0469 -0.4345
 4525TIP3   OH235065   0.636   0.346  17.050 -1.5200 -0.6007 -0.2001
 4525TIP3    H135066   0.587   0.265  17.042 -2.6302  0.2372 -3.0608
 4525TIP3    H235067   0.639   0.382  16.961  1.8834  0.8333  0.3030
 4526TIP3   OH235068   0.260   4.809  14.513  0.3911  0.0703  0.4244
 4526TIP3    H135069   0.251   4.719  14.482  3.8289  0.0153 -0.8558
 4526TIP3    H235070   0.253   4.863  14.434  1.2272  0.6385  0.7196
 4527TIP3   OH235071   0.932   4.934  11.863  0.0391 -0.3670 -0.2629
 4527TIP3    H135072   0.893   5.021  11.868  0.6125 -0.1842  1.4617
 4527TIP3    H235073   0.961   4.927  11.771 -1.4717  0.5820 -0.8484
 4528TIP3   OH235074   2.493   1.817  12.790 -0.0808  0.1327 -0.1238
 4528TIP3    H135075   2.432   1.889  12.775 -0.5693 -0.1512  0.4338
 4528TIP3    H235076   2.534   1.802  12.705  0.7727  1.7193 -0.0200
 4529TIP3   OH235077   5.854   5.421  14.548 -1.0959  0.0281 -0.2877
 4529TIP3    H135078   5.835   5.380  14.463  0.4149 -1.4779  0.0591
 4529TIP3    H235079   5.921   5.365  14.587  0.3882  2.3212  0.6356
 4530TIP3   OH235080   6.014   3.138  12.754  0.2759  0.0187  0.2216
 4530TIP3    H135081   6.037   3.179  12.671 -0.6382  0.4865  0.1831
 4530TIP3    H235082   6.067   3.184  12.819  2.1280 -1.3412 -0.2206
 4531TIP3   OH235083   5.923   2.276   0.335  0.1152 -0.2753 -0.5544
 4531TIP3    H135084   5.842   2.287   0.285 -0.6745  1.1143  0.9227
 4531TIP3    H235085   5.901   2.214   0.404 -0.3279  1.5452  1.0176
 4532TIP3   OH235086   2.752   5.769  13.240  0.2776 -0.5236  0.1695
 4532TIP3    H135087   2.679   5.819  13.277 -1.9420 -2.9401 -0.5982
 4532TIP3    H235088   2.822   5.778  13.304 -0.7837  1.6211  1.1372
 4533TIP3   OH235089   5.561   5.202   6.419  0.5664  0.2967  0.1615
 4533TIP3    H135090   5.479   5.164   6.452  0.1871  1.5343  0.6749
 4533TIP3    H235091   5.542   5.295   6.408  2.0828  0.7161  0.8534
 4534TIP3   OH235092   4.952   5.683  13.104  0.0169 -0.2560  0.6448
 4534TIP3    H135093   4.857   5.691  13.104  0.0890  1.1617 -0.4336
 4534TIP3    H235094   4.970   5.609  13.161 -1.6630  0.1357  1.7715
 4535TIP3   OH235095   1.048   6.333  12.285  0.3094 -0.6028 -0.1350
 4535TIP3    H135096   0.964   6.370  12.257  1.0476  1.6929  0.5101
 4535TIP3    H235097   1.092   6.310  12.203 -0.1129  0.1029 -0.5701
 4536TIP3   OH235098   6.471   1.509  14.509 -0.1033  0.8751  0.5415
 4536TIP3    H135099   6.532   1.570  14.467  0.1698  0.5637  0.4810
 4536TIP3    H235100   6.385   1.552  14.502  0.1121  1.3307  0.6562
 4537TIP3   OH235101   5.566   2.418   2.230  0.0631 -0.3163 -0.2312
 4537TIP3    H135102   5.539   2.413   2.138  0.5918  0.7485 -0.4539
 4537TIP3    H235103   5.613   2.501   2.237  0.7962 -0.7962  0.7966
 4538TIP3   OH235104   2.959   5.024  12.873  0.6803  0.2144 -0.3516
 4538TIP3    H135105   3.007   5.100  12.905  1.8313 -0.1252 -1.1908
 4538TIP3    H235106   2.889   5.011  12.937  1.7600  0.6702  0.9678
 4539TIP3   OH235107   5.209   2.252  16.576  0.2229  0.7704  0.0037
 4539TIP3    H135108   5.163   2.261  16.660 -1.6708 -1.1196 -0.7465
 4539TIP3    H235109   5.166   2.313  16.517 -0.6599 -0.2356 -0.4181
 4540TIP3   OH235110   2.840   3.472  14.837  0.5214 -0.4192 -0.1435
 4540TIP3    H135111   2.857   3.464  14.743  2.4643  0.5000  0.0746
 4540TIP3    H235112   2.911   3.527  14.869  0.5601 -1.6424  2.0703
 4541TIP3   OH235113   1.986   5.439  11.754 -0.6974 -0.3338 -0.0085
 4541TIP3    H135114   1.956   5.395  11.675  1.2167  1.1215 -1.6438
 4541TIP3    H235115   2.068   5.481  11.729  0.4337 -0.5149  3.0105
 4542TIP3   OH235116   4.253   5.616   3.880 -0.1652 -0.6929  0.2035
 4542TIP3    H135117   4.173   5.578   3.843 -0.6673  0.0259  0.5414
 4542TIP3    H235118   4.228   5.704   3.908  0.9556 -0.1558 -0.4294
 4543TIP3   OH235119   4.165   2.463  10.402  0.0419 -1.2828 -0.8828
 4543TIP3    H135120   4.143   2.547  10.441 -0.3986 -0.8201 -2.0884
 4543TIP3    H235121   4.216   2.418  10.469  3.3260  1.3076 -1.3717
 4544TIP3   OH235122   5.411   6.837  15.140  0.5262 -0.2149  0.2036
 4544TIP3    H135123   5.404   6.901  15.069  1.6133  0.0958  0.3555
 4544TIP3    H235124   5.368   6.759  15.106  0.0261  0.2887 -0.3547
 4545TIP3   OH235125   0.630   0.737  15.566 -0.5795 -0.0305  0.4506
 4545TIP3    H135126   0.679   0.657  15.550  0.4803  0.5128  0.8376
 4545TIP3    H235127   0.622   0.742  15.661 -1.0312  0.0924  0.4067
 4546TIP3   OH235128   3.448   4.705  12.571  0.8052 -0.0693 -0.6488
 4546TIP3    H135129   3.432   4.687  12.664 -2.2488  1.0037 -0.8678
 4546TIP3    H235130   3.463   4.619  12.532  0.4800 -0.7008  0.5627
 4547TIP3   OH235131   3.415   0.404  13.737 -0.1728 -0.0261  0.0527
 4547TIP3    H135132   3.408   0.464  13.663  0.4850 -0.6283 -0.5009
 4547TIP3    H235133   3.441   0.460  13.810 -0.2320  0.4754 -0.3043
 4548TIP3   OH235134   5.045   5.693   1.189 -0.0536 -0.5253 -0.0834
 4548TIP3    H135135   5.122   5.729   1.146 -0.4146  0.1500 -0.1790
 4548TIP3    H235136   4.991   5.660   1.118 -0.3586  0.0171 -0.1127
 4549TIP3   OH235137   5.895   4.125  14.120  0.0427 -0.6806  0.0407
 4549TIP3    H135138   5.936   4.212  14.117 -2.9968  0.8895 -0.1493
 4549TIP3    H235139   5.817   4.137  14.173 -1.5412 -2.7810 -1.6071
 4550TIP3   OH235140   2.536   1.166  12.546  0.4563 -0.1073  0.3696
 4550TIP3    H135141   2.626   1.192  12.569  0.8099  0.1299 -1.1867
 4550TIP3    H235142   2.529   1.075  12.575  2.0284 -0.9317 -1.5918
 4551TIP3   OH235143   2.229   2.072  11.864  0.3125 -0.2659  0.1304
 4551TIP3    H135144   2.195   2.079  11.775  1.9053 -0.1187 -0.5109
 4551TIP3    H235145   2.281   2.152  11.876 -1.0769  0.4633  1.7745
 4552TIP3   OH235146   0.076   5.388   4.650 -0.5017  0.2911  0.4443
 4552TIP3    H135147   0.136   5.344   4.711 -2.1246 -0.6269  1.4582
 4552TIP3    H235148   0.103   5.357   4.564  0.8633  0.3978  0.7978
 4553TIP3   OH235149   4.856   3.394  14.949  0.5343 -0.3261 -0.2617
 4553TIP3    H135150   4.863   3.484  14.918  1.2249 -0.8489 -1.7506
 4553TIP3    H235151   4.941   3.354  14.928 -0.0366 -1.5316 -0.3898
 4554TIP3   OH235152   1.989   0.250  14.172 -0.1186 -0.2188 -0.1749
 4554TIP3    H135153   2.011   0.159  14.194 -0.5132 -1.6224 -4.5772
 4554TIP3    H235154   2.069   0.299  14.192  1.2187 -2.1364 -0.5012
 4555TIP3   OH235155   5.539   1.270   5.323 -0.2837  0.3495  0.6279
 4555TIP3    H135156   5.477   1.198   5.331 -0.1028  0.1172  0.0008
 4555TIP3    H235157   5.591   1.266   5.403 -0.5678  0.0655  0.7986
 4556TIP3   OH235158   6.154   4.747  12.952 -0.2439 -0.4022 -0.3761
 4556TIP3    H135159   6.198   4.823  12.991 -1.2039  0.2464 -0.5069
 4556TIP3    H235160   6.079   4.731  13.010  0.2979 -1.6577  0.0010
 4557TIP3   OH235161   0.923   4.458   0.192 -0.4935  0.0679 -0.4609
 4557TIP3    H135162   0.860   4.415   0.251 -1.6774  2.3206  0.0112
 4557TIP3    H235163   1.008   4.443   0.234 -0.8296 -1.7902 -0.3451
 4558TIP3   OH235164   6.628   0.144  15.117  0.4535  0.4369  0.8652
 4558TIP3    H135165   6.696   0.211  15.122  0.9403 -0.0821  1.2947
 4558TIP3    H235166   6.562   0.173  15.181  1.4299 -0.3342  2.2479
 4559TIP3   OH235167   1.006   1.270  12.211  0.0306  0.0332  0.1018
 4559TIP3    H135168   1.091   1.314  12.218 -0.6857  1.3457  0.8788
 4559TIP3    H235169   0.946   1.340  12.185 -0.8952 -0.7891  0.0137
 4560TIP3   OH235170   0.846   3.823  11.819 -0.5960 -0.7249 -0.1481
 4560TIP3    H135171   0.759   3.789  11.839 -0.8917  0.2921  0.3402
 4560TIP3    H235172   0.898   3.802  11.897 -0.7378 -0.2311  0.0866
 4561TIP3   OH235173   5.999   1.683   1.631  0.2085  0.3054 -0.1095
 4561TIP3    H135174   6.082   1.656   1.592 -0.6576 -0.1922 -1.6793
 4561TIP3    H235175   6.006   1.778   1.641  0.5390  0.4124 -1.3046
 4562TIP3   OH235176   4.751   0.339   3.016  0.3833 -0.1428  0.2343
 4562TIP3    H135177   4.716   0.405   3.076 -1.9394 -0.7553 -0.3428
 4562TIP3    H235178   4.718   0.256   3.049 -1.1888 -0.4777 -1.9319
 4563TIP3   OH235179   2.990   0.982  14.393 -0.1450  0.0440 -0.0253
 4563TIP3    H135180   2.953   0.896  14.412 -0.7112  0.8534  3.0628
 4563TIP3    H235181   2.926   1.024  14.335 -1.3942 -0.5462  0.8806
 4564TIP3   OH235182   1.294   4.751  16.608 -0.4719  0.7368 -0.2787
 4564TIP3    H135183   1.372   4.801  16.583 -1.2644  3.9915  2.8476
 4564TIP3    H235184   1.311   4.662  16.577  4.4164  1.2767  0.0774
 4565TIP3   OH235185   6.319   0.883   6.403  0.1599 -0.1132  0.8114
 4565TIP3    H135186   6.366   0.919   6.479  0.1628 -0.9283  1.1997
 4565TIP3    H235187   6.227   0.885   6.429  0.0681  0.4559  0.4725
 4566TIP3   OH235188   2.416   3.298   3.795  0.1015 -0.3326  0.2312
 4566TIP3    H135189   2.491   3.240   3.804  1.5659  1.5957  0.8574
 4566TIP3    H235190   2.403   3.306   3.700  1.3732  0.1392  0.0822
 4567TIP3   OH235191   4.766   3.975   2.811 -0.1294  0.3773  0.0241
 4567TIP3    H135192   4.826   3.920   2.761  1.1523  1.4427  0.3229
 4567TIP3    H235193   4.764   3.936   2.899 -0.1551  0.1419 -0.0808
 4568TIP3   OH235194   0.064   2.649   0.120  0.2521 -0.5870 -0.2588
 4568TIP3    H135195   0.077   2.741   0.098 -0.4227 -0.5320 -0.4432
 4568TIP3    H235196   0.030   2.609   0.040 -1.5420 -0.5298  0.4417
 4569TIP3   OH235197   2.692   5.628   2.719 -0.2425 -0.3656  0.0630
 4569TIP3    H135198   2.621   5.632   2.655  2.8708 -0.4621 -3.7252
 4569TIP3    H235199   2.725   5.718   2.725  0.8540 -0.7347 -0.1785
 4570TIP3   OH235200   6.446   2.921  15.303 -0.5084  0.0713  0.2750
 4570TIP3    H135201   6.462   2.918  15.397  0.2350 -1.7217  0.1341
 4570TIP3    H235202   6.380   2.854  15.288 -0.9158  0.6198 -0.4419
 4571TIP3   OH235203   4.865   6.582  16.385 -0.4454 -0.4449 -0.0964
 4571TIP3    H135204   4.842   6.675  16.380  0.3957 -0.0213  2.5934
 4571TIP3    H235205   4.872   6.555  16.293 -0.7522  2.1216 -0.9687
 4572TIP3   OH235206   2.547   1.140   3.904 -0.2612  0.4940  0.3489
 4572TIP3    H135207   2.454   1.160   3.890 -0.6916 -1.1024  0.6884
 4572TIP3    H235208   2.559   1.152   3.999 -1.1267 -2.8252  1.0060
 4573TIP3   OH235209   4.044   4.115  10.783 -0.0044  0.1925 -0.3873
 4573TIP3    H135210   4.008   4.026  10.792 -1.2511  0.5905 -1.2095
 4573TIP3    H235211   4.036   4.135  10.690  0.3197  1.1448 -0.2208
 4574TIP3   OH235212   5.490   2.989   0.228 -0.1849  0.4126 -0.3497
 4574TIP3    H135213   5.471   2.999   0.321 -1.9232  1.5134 -0.7779
 4574TIP3    H235214   5.577   2.950   0.226 -0.8265 -1.3465  1.7612
 4575TIP3   OH235215   3.211   0.570   6.407 -0.0399 -0.0334 -0.0695
 4575TIP3    H135216   3.162   0.648   6.433 -1.3321 -0.4916 -1.0274
 4575TIP3    H235217   3.169   0.498   6.454  1.6332 -0.1093  1.4145
 4576TIP3   OH235218   5.929   4.667  11.297  0.1522  0.9402  0.1184
 4576TIP3    H135219   5.912   4.589  11.244  0.3338  0.4403  0.7721
 4576TIP3    H235220   5.846   4.716  11.295  0.2246  1.0365 -0.7868
 4577TIP3   OH235221   4.330   6.219  15.568 -0.1008  0.2975 -0.7817
 4577TIP3    H135222   4.242   6.232  15.604 -0.7459  0.7979 -2.4337
 4577TIP3    H235223   4.318   6.151  15.501  0.9659 -0.2904 -0.3908
 4578TIP3   OH235224   3.550   5.750   3.963  0.2067 -0.2412  0.5387
 4578TIP3    H135225   3.494   5.683   3.925 -1.3938  0.3734  1.7184
 4578TIP3    H235226   3.494   5.827   3.972  1.6790  0.9176  0.2843
 4579TIP3   OH235227   2.932   6.286  11.784  0.1277  0.3072  0.0064
 4579TIP3    H135228   2.910   6.231  11.859 -2.2791  1.8862  0.5603
 4579TIP3    H235229   2.893   6.371  11.804  0.5094  1.1495 -2.4917
 4580TIP3   OH235230   0.694   0.863  15.225  0.2778 -0.3844  0.1274
 4580TIP3    H135231   0.606   0.856  15.261  0.2248 -3.1062 -0.3405
 4580TIP3    H235232   0.684   0.844  15.132  1.2410  0.2156 -0.1170
 4581TIP3   OH235233   6.463   3.751  10.855 -0.6290  0.2516 -0.3730
 4581TIP3    H135234   6.544   3.758  10.906 -1.2230 -1.3567  0.8959
 4581TIP3    H235235   6.419   3.835  10.868  1.5879  1.8889 -2.5786
 4582TIP3   OH235236   2.648   1.386  16.364  0.0699  0.1526  0.2055
 4582TIP3    H135237   2.668   1.477  16.345 -1.3360  0.6892  1.1060
 4582TIP3    H235238   2.605   1.353  16.285 -0.5045  0.6352  0.3127
 4583TIP3   OH235239   6.409   6.634   5.978 -0.5746  0.3948  0.5655
 4583TIP3    H135240   6.484   6.688   6.004 -0.6079 -0.1434  1.8353
 4583TIP3    H235241   6.366   6.685   5.909 -0.2389  1.7174  1.2821
 4584TIP3   OH235242   2.638   1.054   6.111 -0.2057 -0.3402  0.7530
 4584TIP3    H135243   2.687   1.115   6.057 -2.3437  0.2324 -0.6630
 4584TIP3    H235244   2.622   1.101   6.192 -0.0237  0.1615  0.5023
 4585TIP3   OH235245   5.168   3.224  10.866 -0.0004  0.3614 -0.0231
 4585TIP3    H135246   5.210   3.138  10.874 -1.8825 -0.7956 -1.5747
 4585TIP3    H235247   5.095   3.221  10.929 -0.7029  0.3887 -0.8196
 4586TIP3   OH235248   2.383   5.512   0.973  0.0845 -0.2750  0.4286
 4586TIP3    H135249   2.361   5.560   0.893 -0.2568  0.7073  1.0859
 4586TIP3    H235250   2.424   5.577   1.029 -0.7914 -0.6396  1.5236
 4587TIP3   OH235251   3.154   0.244   2.625  0.4611  0.3686  0.4364
 4587TIP3    H135252   3.094   0.317   2.612 -0.4925 -0.3912  0.3940
 4587TIP3    H235253   3.148   0.193   2.544 -1.4460 -1.5142  1.6396
 4588TIP3   OH235254   2.749   5.375   1.802 -0.1434  0.0495 -0.1393
 4588TIP3    H135255   2.691   5.424   1.744 -0.3603 -0.4140 -0.3199
 4588TIP3    H235256   2.801   5.442   1.847  2.2122  0.3874 -3.0735
 4589TIP3   OH235257   6.145   2.166   2.308 -0.0696 -0.2987 -0.4962
 4589TIP3    H135258   6.149   2.138   2.216 -1.5449 -0.3303 -0.5757
 4589TIP3    H235259   6.126   2.086   2.357 -0.8778 -0.0368 -0.3568
 4590TIP3   OH235260   3.409   3.272  12.258  0.1198  0.0262  0.2027
 4590TIP3    H135261   3.380   3.331  12.328  0.1861  0.9308 -0.5085
 4590TIP3    H235262   3.345   3.285  12.188  0.3152 -0.5260 -0.0828
 4591TIP3   OH235263   0.537   1.850   0.923  0.7660 -0.7091  0.6270
 4591TIP3    H135264   0.606   1.916   0.916  0.2055 -0.0978  0.7242
 4591TIP3    H235265   0.528   1.834   1.017  2.0223 -2.1553  0.5353
 4592TIP3   OH235266   5.788   1.515  15.455  0.3315  0.4196  0.2289
 4592TIP3    H135267   5.774   1.474  15.541 -2.6459 -0.9766 -0.7768
 4592TIP3    H235268   5.822   1.445  15.400  0.6595  0.8632 -0.1426
 4593TIP3   OH235269   5.350   2.473  14.904 -0.0931 -0.4176  0.1743
 4593TIP3    H135270   5.385   2.509  14.985 -0.0543  1.3882 -0.6007
 4593TIP3    H235271   5.427   2.458  14.849 -0.2045 -0.6587  0.0819
 4594TIP3   OH235272   2.072   2.259   2.852 -0.0336 -0.4851  0.5258
 4594TIP3    H135273   2.052   2.241   2.760 -1.5224  0.1715  0.7037
 4594TIP3    H235274   2.076   2.173   2.893 -0.4954 -0.7287  0.0742
 4595TIP3   OH235275   3.647   0.211  12.529  0.1649  0.1765 -0.1880
 4595TIP3    H135276   3.681   0.298  12.508  2.9125 -0.3968  1.4777
 4595TIP3    H235277   3.607   0.220  12.615 -0.7089  0.0290 -0.5631
 4596TIP3   OH235278   1.516   6.700  14.197 -0.5878 -0.1178  0.2797
 4596TIP3    H135279   1.448   6.731  14.256 -0.0407 -1.4026  1.6656
 4596TIP3    H235280   1.504   6.605  14.194  2.3490 -0.6990  2.2878
 4597TIP3   OH235281   3.570   4.894  15.350  0.3699  0.3590 -0.4838
 4597TIP3    H135282   3.603   4.983  15.364  0.3273  0.3804 -0.5148
 4597TIP3    H235283   3.486   4.893  15.395  0.4412  0.2867 -0.3534
 4598TIP3   OH235284   2.823   4.937   3.428  0.7517  0.7309 -0.6201
 4598TIP3    H135285   2.743   4.899   3.394  0.5137  0.2681  0.4044
 4598TIP3    H235286   2.799   4.970   3.515  1.7958  0.0705 -0.0574
 4599TIP3   OH235287   0.817   2.815  13.319  0.0133  0.4292 -0.4911
 4599TIP3    H135288   0.879   2.882  13.348 -0.9522  0.5134  1.5847
 4599TIP3    H235289   0.840   2.738  13.370 -2.9845  1.1336  2.2694
 4600TIP3   OH235290   5.015   1.970   5.619 -0.1428  0.5747 -0.2035
 4600TIP3    H135291   4.982   1.902   5.678  1.2808 -0.2953 -0.3829
 4600TIP3    H235292   5.033   1.924   5.537  2.8348  0.6615  0.2929
 4601TIP3   OH235293   3.641   6.721   4.097 -0.1160  0.4137  0.1793
 4601TIP3    H135294   3.551   6.696   4.117 -0.2261 -1.0108 -1.9041
 4601TIP3    H235295   3.642   6.816   4.107 -1.8980  0.4759  0.0251
 4602TIP3   OH235296   3.340   3.385   2.080  0.5852 -0.7439  0.4578
 4602TIP3    H135297   3.391   3.391   1.999  0.3320  0.5199  0.3629
 4602TIP3    H235298   3.405   3.374   2.149  1.0377  0.9099  0.3438
 4603TIP3   OH235299   6.311   1.507   5.318  0.2858 -0.1230  0.5307
 4603TIP3    H135300   6.366   1.497   5.397  0.4458  0.9908  0.5855
 4603TIP3    H235301   6.313   1.601   5.301 -0.5042 -0.2503 -0.2772
 4604TIP3   OH235302   3.641   1.044   0.431  0.0812  0.1891 -0.6039
 4604TIP3    H135303   3.557   1.047   0.385  0.2078 -0.2331 -0.8613
 4604TIP3    H235304   3.690   0.975   0.388  0.9582  1.1071 -1.1266
 4605TIP3   OH235305   5.594   0.656   3.579 -0.4928  0.0606  0.4693
 4605TIP3    H135306   5.559   0.593   3.516 -1.6978 -0.1449  1.3146
 4605TIP3    H235307   5.589   0.611   3.664  1.0399  0.3531  0.7491
 4606TIP3   OH235308   2.767   2.731  14.656 -0.4121  0.0303  0.2026
 4606TIP3    H135309   2.755   2.780  14.738  0.9567 -0.0560  0.4765
 4606TIP3    H235310   2.689   2.676  14.650 -1.4444  1.3934  0.4741
 4607TIP3   OH235311   2.092   1.157   2.302  0.3550  0.4900 -0.1159
 4607TIP3    H135312   2.107   1.098   2.375  0.8327 -0.3054 -0.8284
 4607TIP3    H235313   2.003   1.190   2.315  0.4702  0.4416  0.8608
 4608TIP3   OH235314   0.258   5.065  16.723 -0.0429  0.6291 -0.1059
 4608TIP3    H135315   0.300   5.151  16.723  1.0896  0.1048  1.0320
 4608TIP3    H235316   0.297   5.019  16.797 -0.3546 -1.0180 -0.9198
 4609TIP3   OH235317   3.593   5.433   4.593  0.5292 -0.3454 -0.2965
 4609TIP3    H135318   3.660   5.430   4.524  1.3055  0.2709  0.4168
 4609TIP3    H235319   3.518   5.388   4.554  1.6040 -1.7591 -0.8364
 4610TIP3   OH235320   3.878   4.932   4.377 -0.3910  0.2161 -0.4340
 4610TIP3    H135321   3.807   4.933   4.313  1.2820 -1.3554 -2.4624
 4610TIP3    H235322   3.884   4.841   4.405  0.5740  0.3795 -0.0437
 4611TIP3   OH235323   2.806   1.505   4.165 -1.4987 -0.3951  0.4521
 4611TIP3    H135324   2.842   1.465   4.085  0.3527  0.9022  0.5908
 4611TIP3    H235325   2.834   1.596   4.161 -0.7482 -0.4609  2.9264
 4612TIP3   OH235326   6.744   3.000  12.934  0.6382  0.0609 -0.4859
 4612TIP3    H135327   6.763   2.932  12.998 -0.0244  0.4458  0.1365
 4612TIP3    H235328   6.749   2.955  12.850  1.3721 -0.4841 -0.1638
 4613TIP3   OH235329   3.531   1.976   6.080  0.1796 -0.1418 -0.2751
 4613TIP3    H135330   3.604   1.936   6.034  0.7388  0.9768 -0.4020
 4613TIP3    H235331   3.550   2.070   6.079 -0.7075  0.0733  0.6546
 4614TIP3   OH235332   1.554   3.452   2.559  0.2744 -0.3250 -0.3453
 4614TIP3    H135333   1.495   3.467   2.633 -1.4415  0.4917 -1.7907
 4614TIP3    H235334   1.622   3.519   2.568  0.3960 -0.5722  0.7470
 4615TIP3   OH235335   5.536   3.679  13.049  0.1211  0.1335 -0.5064
 4615TIP3    H135336   5.555   3.764  13.089 -2.0989 -0.3256  1.7266
 4615TIP3    H235337   5.460   3.696  12.993  1.0140  0.0197 -1.7889
 4616TIP3   OH235338   2.987   0.942  15.957 -0.6675 -0.0961 -0.1039
 4616TIP3    H135339   3.021   1.031  15.963 -1.4692  0.2311 -0.2839
 4616TIP3    H235340   3.006   0.914  15.868 -1.6658  0.4326 -0.5047
 4617TIP3   OH235341   0.934   4.217   2.936  0.4243  0.6016  0.5442
 4617TIP3    H135342   0.965   4.268   2.861  1.1148  1.0438  1.1135
 4617TIP3    H235343   0.842   4.199   2.917  0.3392  1.5122  0.0345
 4618TIP3   OH235344   1.249   5.145   0.980 -0.4824 -0.0858  0.3013
 4618TIP3    H135345   1.219   5.186   0.899  1.8570  2.2892  0.4845
 4618TIP3    H235346   1.243   5.214   1.046  1.8884 -0.4889  1.0626
 4619TIP3   OH235347   6.477   0.952  10.877  0.2495  0.2072 -0.3349
 4619TIP3    H135348   6.480   0.895  10.800 -0.6826 -0.2895 -0.0100
 4619TIP3    H235349   6.397   1.003  10.866 -0.6789 -0.8908  0.9946
 4620TIP3   OH235350   3.392   2.109   4.318 -0.0710  0.3917 -0.4545
 4620TIP3    H135351   3.426   2.020   4.312 -1.3859 -0.0545 -1.9521
 4620TIP3    H235352   3.428   2.143   4.400  2.2119 -0.7448 -0.9187
 4621TIP3   OH235353   6.596   0.953   4.990  0.5372 -0.0068  0.3901
 4621TIP3    H135354   6.520   0.968   5.046 -0.1148 -1.7640  0.0489
 4621TIP3    H235355   6.618   1.039   4.955 -0.0446  0.8536  2.0669
 4622TIP3   OH235356   2.183   4.432   6.797  0.0118 -0.0533 -0.2935
 4622TIP3    H135357   2.124   4.363   6.826 -0.5177  0.3985 -0.2829
 4622TIP3    H235358   2.158   4.448   6.706  0.1332  0.1263 -0.2959
 4623TIP3   OH235359   4.242   0.660  12.514 -0.4138 -0.2346 -0.3318
 4623TIP3    H135360   4.212   0.590  12.573 -0.6803 -2.0908 -2.5172
 4623TIP3    H235361   4.172   0.725  12.518  0.6329  0.9195  3.0939
 4624TIP3   OH235362   3.667   3.862   5.279  0.1130 -0.4135 -0.0031
 4624TIP3    H135363   3.757   3.827   5.276  0.4027  0.3158  0.0143
 4624TIP3    H235364   3.655   3.906   5.195  0.1104  0.2852  0.3524
 4625TIP3   OH235365   3.810   3.542  12.653  0.3204 -0.4533  0.6892
 4625TIP3    H135366   3.879   3.505  12.598 -0.2708 -1.4721  0.6094
 4625TIP3    H235367   3.797   3.478  12.722 -1.5368 -1.0151 -0.1027
 4626TIP3   OH235368   1.931   1.927   0.088 -0.0235  0.4000  0.4484
 4626TIP3    H135369   1.906   1.981   0.013 -0.4391 -1.8564 -1.1228
 4626TIP3    H235370   1.916   1.984   0.164 -2.9857  1.6582 -0.9087
 4627TIP3   OH235371   0.260   0.712  11.627  0.9326 -0.2027 -0.4738
 4627TIP3    H135372   0.273   0.750  11.540  0.2977  1.7545  0.2324
 4627TIP3    H235373   0.170   0.738  11.651  0.6770 -1.7005  0.2982
 4628TIP3   OH235374   6.261   2.172   1.172  0.0154  0.6208 -0.1767
 4628TIP3    H135375   6.347   2.209   1.191  0.2379  1.1599 -1.9792
 4628TIP3    H235376   6.203   2.249   1.164 -0.2700  0.3661 -0.5883
 4629TIP3   OH235377   2.133   3.651   4.685  0.5729  0.6361  0.1106
 4629TIP3    H135378   2.066   3.598   4.641  0.0182  1.6756 -0.3395
 4629TIP3    H235379   2.205   3.656   4.622  0.9897 -0.2546  0.4873
 4630TIP3   OH235380   2.704   0.982   5.539  0.2829  0.1567 -0.0585
 4630TIP3    H135381   2.718   1.077   5.547  0.9406 -0.0489  1.4267
 4630TIP3    H235382   2.753   0.958   5.460 -0.6901  1.1822 -1.0293
 4631TIP3   OH235383   5.567   1.140   5.607 -0.3717  1.0139  0.1468
 4631TIP3    H135384   5.595   1.051   5.629  0.6868  1.1991 -0.3960
 4631TIP3    H235385   5.474   1.130   5.584  0.1135 -0.2552 -1.5233
 4632TIP3   OH235386   3.209   3.696  14.810  0.2602  0.1535  0.4918
 4632TIP3    H135387   3.215   3.781  14.854 -0.3955  0.9286 -0.8594
 4632TIP3    H235388   3.257   3.708  14.728 -0.1149 -0.6823  0.1432
 4633TIP3   OH235389   5.971   0.158   3.539  0.0258  0.0813 -0.0013
 4633TIP3    H135390   5.884   0.146   3.500 -0.9156 -3.5614  2.6635
 4633TIP3    H235391   6.031   0.119   3.476 -0.0943  2.9503 -2.0376
 4634TIP3   OH235392   5.412   5.135   5.417  0.3565 -0.5756  0.2034
 4634TIP3    H135393   5.395   5.077   5.344 -0.0374 -0.4676  0.2052
 4634TIP3    H235394   5.349   5.206   5.406 -0.3526 -1.0336  1.1672
 4635TIP3   OH235395   4.118   5.086  15.880 -0.2322 -0.0532  0.2754
 4635TIP3    H135396   4.034   5.063  15.919 -0.6738  1.6675  0.4251
 4635TIP3    H235397   4.180   5.083  15.952 -0.3622 -0.3170  0.3765
 4636TIP3   OH235398   1.677   1.908   4.196 -0.0979 -0.2002 -0.0998
 4636TIP3    H135399   1.768   1.939   4.194  0.4297 -1.6787 -0.5096
 4636TIP3    H235400   1.627   1.978   4.154  1.4324 -1.0887 -3.8210
 4637TIP3   OH235401   4.251   0.256   3.354  0.1498 -0.1002 -0.7184
 4637TIP3    H135402   4.345   0.268   3.365  0.1798 -0.2997 -0.7520
 4637TIP3    H235403   4.215   0.345   3.356  0.4715  0.0802 -2.0701
 4638TIP3   OH235404   5.063   5.132  13.437 -0.2877  0.2141 -0.2882
 4638TIP3    H135405   5.008   5.211  13.433 -0.0797  0.3580 -0.3275
 4638TIP3    H235406   5.137   5.158  13.492 -0.5994 -0.1874  0.3323
 4639TIP3   OH235407   1.599   5.765  15.930 -0.1712 -0.0882  0.0590
 4639TIP3    H135408   1.610   5.756  16.024 -1.2724  1.4505  0.3878
 4639TIP3    H235409   1.528   5.829  15.920 -0.6791 -0.8525 -1.8144
 4640TIP3   OH235410   0.983   6.692   5.449 -0.4428 -0.1380 -0.4038
 4640TIP3    H135411   0.957   6.735   5.530 -0.8689 -0.0710 -0.5767
 4640TIP3    H235412   0.981   6.761   5.383 -0.4740 -0.2762 -0.5496
 4641TIP3   OH235413   6.504   6.707  15.393  0.2792 -0.3701 -0.5470
 4641TIP3    H135414   6.444   6.672  15.459  0.3976  0.2474 -0.0990
 4641TIP3    H235415   6.564   6.763  15.443 -0.3342  1.0186 -1.2982
 4642TIP3   OH235416   6.607   3.562   3.388 -0.1560 -0.2332  0.3873
 4642TIP3    H135417   6.618   3.527   3.300 -0.6467 -0.2302  0.3208
 4642TIP3    H235418   6.554   3.641   3.376 -2.0434 -1.3560  0.8743
 4643TIP3   OH235419   5.317   2.206   4.242 -0.1165 -0.1936  0.4147
 4643TIP3    H135420   5.309   2.147   4.317 -2.6421  0.0799  0.4427
 4643TIP3    H235421   5.283   2.290   4.274 -0.1708  0.2284 -0.7142
 4644TIP3   OH235422   5.411   3.296  11.418  0.2316  0.1042  0.1715
 4644TIP3    H135423   5.474   3.258  11.480  0.4350  0.9968  0.5338
 4644TIP3    H235424   5.389   3.224  11.359 -0.6328 -1.0412  1.7902
 4645TIP3   OH235425   6.456   5.042  11.687  0.2745 -0.2683  0.2807
 4645TIP3    H135426   6.451   5.091  11.605  1.0803 -1.8357 -0.7621
 4645TIP3    H235427   6.374   4.993  11.690  0.0138  0.1903  0.6879
 4646TIP3   OH235428   1.164   1.826   4.844  0.6377 -0.2668  0.7261
 4646TIP3    H135429   1.241   1.852   4.894  1.7674  0.1107 -1.1030
 4646TIP3    H235430   1.161   1.888   4.771 -1.5197 -0.1771  0.8414
 4647TIP3   OH235431   4.917   6.222  11.838  0.1797 -0.1716 -0.2682
 4647TIP3    H135432   4.892   6.313  11.854 -0.9941 -0.1138 -2.0826
 4647TIP3    H235433   5.013   6.223  11.840  0.1750  0.9652  0.3854
 4648TIP3   OH235434   3.810   1.899  16.540 -0.5339  0.0978 -0.2563
 4648TIP3    H135435   3.902   1.925  16.543 -0.7393  1.0403 -1.7402
 4648TIP3    H235436   3.796   1.855  16.624  1.0676  0.5935  0.3122
 4649TIP3   OH235437   0.901   4.190   6.870 -0.3258  0.4345  0.0480
 4649TIP3    H135438   0.969   4.232   6.817 -0.2807 -0.0761 -0.3098
 4649TIP3    H235439   0.941   4.109   6.900 -0.2492  0.8496  1.1167
 4650TIP3   OH235440   0.409   1.061  13.968  0.0618  0.0315 -0.1119
 4650TIP3    H135441   0.500   1.073  13.994 -0.6337 -0.0751  2.7959
 4650TIP3    H235442   0.360   1.124  14.022 -1.6169  0.1069 -1.6086
 4651TIP3   OH235443   3.973   6.227   4.842 -0.1366  0.3411  0.2376
 4651TIP3    H135444   3.984   6.194   4.931  1.3974 -0.0827 -0.0724
 4651TIP3    H235445   3.919   6.305   4.851  2.5553  2.1739  1.9885
 4652TIP3   OH235446   4.373   1.100  16.047  0.4865  0.3200 -0.4912
 4652TIP3    H135447   4.462   1.128  16.025  0.6544  1.4219  1.3568
 4652TIP3    H235448   4.346   1.160  16.117 -1.1700 -0.9144 -0.0142
 4653TIP3   OH235449   4.126   2.711   0.433 -0.0479 -0.2087 -0.7192
 4653TIP3    H135450   4.096   2.770   0.364  1.7779  1.4631 -0.1794
 4653TIP3    H235451   4.050   2.656   0.453 -0.3812 -1.5246 -4.7379
 4654TIP3   OH235452   4.786   2.272  11.508 -0.4639 -0.0608 -0.2284
 4654TIP3    H135453   4.816   2.181  11.511 -1.9572 -0.5539  1.4991
 4654TIP3    H235454   4.691   2.266  11.517 -0.5314  1.6979  0.5172
 4655TIP3   OH235455   3.059   4.860   3.959  0.4401  0.0601 -0.3076
 4655TIP3    H135456   3.063   4.952   3.932 -0.9038  0.8913  2.0243
 4655TIP3    H235457   2.966   4.839   3.957  0.8157 -1.6970 -1.9624
 4656TIP3   OH235458   4.621   4.658  11.843  0.3718  0.7700  0.5298
 4656TIP3    H135459   4.597   4.569  11.821 -0.7146  0.9548  0.8808
 4656TIP3    H235460   4.706   4.650  11.887  0.8469  0.0521 -0.4956
 4657TIP3   OH235461   2.391   4.648   3.640  0.5132  0.1202  0.5745
 4657TIP3    H135462   2.448   4.644   3.563 -0.4171 -1.3572 -0.0719
 4657TIP3    H235463   2.449   4.630   3.714  0.8493 -1.7892 -0.1136
 4658TIP3   OH235464   2.782   5.473   3.274  0.3598 -0.3103  0.0962
 4658TIP3    H135465   2.875   5.483   3.256  0.6761  0.0072  1.7661
 4658TIP3    H235466   2.764   5.538   3.342 -1.4329  0.7488 -1.2877
 4659TIP3   OH235467   2.070   0.796  11.996 -0.1459 -0.5560  0.7777
 4659TIP3    H135468   1.990   0.746  11.978  0.0031 -0.2461 -0.9306
 4659TIP3    H235469   2.039   0.877  12.037 -1.0738  0.8017 -2.2841
 4660TIP3   OH235470   3.167   5.527   2.230 -0.2696 -0.2031  0.3523
 4660TIP3    H135471   3.077   5.498   2.217 -0.1165 -1.1135  1.1895
 4660TIP3    H235472   3.166   5.573   2.314 -0.2932  1.3866 -0.4701
 4661TIP3   OH235473   1.979   2.300   2.102 -0.0921 -0.1217 -0.7105
 4661TIP3    H135474   1.938   2.249   2.032  0.0754 -1.2913  0.0075
 4661TIP3    H235475   1.920   2.290   2.176  0.4325 -0.0855 -0.2786
 4662TIP3   OH235476   5.088   1.057   4.550  0.0724  0.2580 -0.0835
 4662TIP3    H135477   5.159   0.995   4.569  0.3627  1.1031  1.8455
 4662TIP3    H235478   5.072   1.101   4.633 -2.6241  0.2405 -0.5096
 4663TIP3   OH235479   4.399   0.677   1.138  0.3204 -0.1220 -0.1296
 4663TIP3    H135480   4.472   0.712   1.087  1.0768  0.3520  1.2264
 4663TIP3    H235481   4.320   0.710   1.095  0.9097 -0.3171 -1.3866
 4664TIP3   OH235482   1.589   2.584  14.847 -0.4298 -0.2804  0.3822
 4664TIP3    H135483   1.634   2.590  14.763 -0.3848  1.1841  0.4878
 4664TIP3    H235484   1.613   2.498  14.882  1.8692  0.2466  0.2132
 4665TIP3   OH235485   3.585   2.296  12.968  0.6033 -0.1548  0.1365
 4665TIP3    H135486   3.647   2.313  12.897 -1.8213 -0.5705 -2.2362
 4665TIP3    H235487   3.557   2.206  12.954 -0.0593 -0.1949  1.5494
 4666TIP3   OH235488   0.092   4.279   6.036 -0.4939 -0.4908  0.0411
 4666TIP3    H135489   0.176   4.259   6.079 -0.8329 -1.2772  0.3526
 4666TIP3    H235490   0.076   4.371   6.057 -0.2832 -0.6615  0.9830
 4667TIP3   OH235491   3.932   4.489  12.510 -0.1885  0.2562  0.8311
 4667TIP3    H135492   3.913   4.431  12.437  2.0352 -0.1203  0.4893
 4667TIP3    H235493   4.004   4.544  12.480 -0.8738  1.8127  1.8837
 4668TIP3   OH235494   4.030   0.059  11.778 -0.0224 -0.0986 -0.1293
 4668TIP3    H135495   4.048   0.143  11.821  0.7246  0.1992 -0.9759
 4668TIP3    H235496   4.054  -0.007  11.842 -1.0159  0.3212  0.7086
 4669TIP3   OH235497   0.936   0.791  16.094 -0.3968 -0.3911 -0.2232
 4669TIP3    H135498   0.949   0.698  16.111 -0.1696 -0.4286 -0.5920
 4669TIP3    H235499   0.870   0.793  16.025  1.2890 -0.3646 -1.9025
 4670TIP3   OH235500   4.375   3.163  16.333  0.4803 -0.2865  0.4103
 4670TIP3    H135501   4.305   3.225  16.354 -0.2150 -1.1396  0.6732
 4670TIP3    H235502   4.432   3.211  16.273  0.6122  1.0088  1.5322
 4671TIP3   OH235503   3.419   3.488   4.007  0.0527 -0.2368 -0.6409
 4671TIP3    H135504   3.328   3.503   3.981 -0.1406 -2.8891 -1.8066
 4671TIP3    H235505   3.414   3.423   4.077  1.0556 -0.9046 -1.1562
 4672TIP3   OH235506   6.561   3.414   1.310 -0.3312  0.3371  0.1618
 4672TIP3    H135507   6.471   3.419   1.342 -0.9486 -0.1123 -1.4298
 4672TIP3    H235508   6.553   3.392   1.217  1.4766 -1.8886  0.4368
 4673TIP3   OH235509   4.313   0.021  11.706  0.1046 -0.2287 -0.3019
 4673TIP3    H135510   4.320  -0.072  11.726  0.3829 -0.1299  0.0629
 4673TIP3    H235511   4.225   0.046  11.734 -0.2889 -0.5736 -1.1970
 4674TIP3   OH235512   2.507   4.247   3.985  0.8209 -0.2392  0.0217
 4674TIP3    H135513   2.532   4.245   3.892  2.1760 -0.3956  0.3748
 4674TIP3    H235514   2.584   4.217   4.031 -0.4531 -2.0425  1.1083
 4675TIP3   OH235515   1.926   2.223   5.776  0.6730 -0.2952  0.2897
 4675TIP3    H135516   1.934   2.227   5.871  1.1383 -0.7037  0.2701
 4675TIP3    H235517   1.942   2.131   5.754  0.5695 -0.2043 -0.1848
 4676TIP3   OH235518   5.551   2.746   2.542  0.1547 -0.3740  0.0123
 4676TIP3    H135519   5.520   2.810   2.606  2.0110 -2.1682  2.9386
 4676TIP3    H235520   5.477   2.688   2.528 -0.5101  0.4816 -0.0760
 4677TIP3   OH235521   6.274   0.560  13.408 -0.4475 -0.1857  0.1007
 4677TIP3    H135522   6.331   0.537  13.481 -2.3427  0.0086  1.7514
 4677TIP3    H235523   6.247   0.650  13.426 -0.2979  0.1792 -1.3347
 4678TIP3   OH235524   5.504   6.521  16.860  0.0996 -0.0829 -0.3509
 4678TIP3    H135525   5.544   6.512  16.946  1.0509  0.4218 -0.7189
 4678TIP3    H235526   5.502   6.432  16.825  2.6830  0.0645 -1.0644
 4679TIP3   OH235527   0.758   3.096  14.273 -0.0444  0.3647 -0.1229
 4679TIP3    H135528   0.800   3.163  14.219  0.2745  0.3181  0.0617
 4679TIP3    H235529   0.700   3.144  14.331 -1.4195  0.3202 -1.4072
 4680TIP3   OH235530   0.152   6.448   4.071  1.0050 -0.6098 -0.1601
 4680TIP3    H135531   0.162   6.474   4.162  2.5627 -1.2953 -0.0956
 4680TIP3    H235532   0.076   6.391   4.069  0.8885 -0.4838  0.6831
 4681TIP3   OH235533   1.785   2.951   2.738 -0.1845 -0.3457  0.0202
 4681TIP3    H135534   1.707   2.897   2.726 -1.7426  1.7732  0.0972
 4681TIP3    H235535   1.796   2.996   2.655  0.1888  0.3687  0.4494
 4682TIP3   OH235536   6.699   5.631  16.436  0.1031  0.0291  0.1922
 4682TIP3    H135537   6.622   5.684  16.416  0.8443  0.4470 -1.8502
 4682TIP3    H235538   6.744   5.678  16.505  0.3582  1.7182 -1.0643
 4683TIP3   OH235539   2.727   4.161  15.348 -0.1744  0.0096  0.4774
 4683TIP3    H135540   2.656   4.223  15.327  0.2543  0.8342  1.3664
 4683TIP3    H235541   2.686   4.075  15.343 -1.1568  0.4547  0.6420
 4684TIP3   OH235542   2.673   5.248  11.848 -0.2100 -0.4654  0.2863
 4684TIP3    H135543   2.752   5.203  11.878  0.2502  0.1636  0.0293
 4684TIP3    H235544   2.702   5.338  11.829 -0.4818 -0.7858 -1.9474
 4685TIP3   OH235545   0.753   5.005   1.626  0.4728 -0.0296  0.2413
 4685TIP3    H135546   0.808   4.983   1.702 -0.0128 -1.4118  0.2068
 4685TIP3    H235547   0.664   5.001   1.659  0.2065 -1.5251 -0.6020
 4686TIP3   OH235548   2.574   2.728   2.272 -0.1821 -0.2039  0.1255
 4686TIP3    H135549   2.649   2.702   2.218 -0.5372 -1.5721  0.2604
 4686TIP3    H235550   2.613   2.754   2.356  0.3447  1.6153 -0.6279
 4687TIP3   OH235551   2.369   3.447   4.734 -0.4205 -0.5818  0.0214
 4687TIP3    H135552   2.379   3.542   4.732 -0.3294 -0.5933 -1.7173
 4687TIP3    H235553   2.447   3.414   4.689 -0.6474 -1.4558  0.2547
 4688TIP3   OH235554   0.519   4.994   1.776  0.1157 -0.0953 -0.0277
 4688TIP3    H135555   0.478   4.909   1.789  0.6082 -0.7397 -2.1918
 4688TIP3    H235556   0.493   5.045   1.853 -3.1197 -1.0515 -0.3028
 4689TIP3   OH235557   2.130   4.938  12.591 -0.1647  0.5196 -0.0542
 4689TIP3    H135558   2.077   4.978  12.660  1.7877  3.3392 -0.0545
 4689TIP3    H235559   2.135   4.845  12.616 -3.3057  0.5115  1.0098
 4690TIP3   OH235560   4.483   5.735   3.372  0.1104 -0.2009 -0.1545
 4690TIP3    H135561   4.507   5.788   3.448 -1.9695 -0.5233  0.7986
 4690TIP3    H235562   4.533   5.772   3.300 -1.0551  2.9356  0.5019
 4691TIP3   OH235563   2.184   1.431   3.492  0.2364 -0.9163 -0.8750
 4691TIP3    H135564   2.272   1.439   3.529  0.2291 -1.2805 -0.7751
 4691TIP3    H235565   2.145   1.357   3.539  0.1902 -1.3243 -1.5401
 4692TIP3   OH235566   3.288   3.673  13.892  0.3386  0.8685 -0.3729
 4692TIP3    H135567   3.338   3.754  13.899  1.1352  0.2519  2.0959
 4692TIP3    H235568   3.327   3.627  13.818  2.5293  1.0540  0.5914
 4693TIP3   OH235569   1.095   0.444  17.028  0.5840 -0.0774 -0.4619
 4693TIP3    H135570   1.184   0.464  17.058  1.3415 -3.7648  0.3187
 4693TIP3    H235571   1.108   0.394  16.947 -0.8570  0.1528 -0.8686
 4694TIP3   OH235572   4.222   4.290   4.370  0.0727  0.4446  0.5092
 4694TIP3    H135573   4.208   4.375   4.329  2.2093  0.4749 -0.2729
 4694TIP3    H235574   4.268   4.238   4.304  1.0557 -0.4698  1.8568
 4695TIP3   OH235575   3.957   3.866  16.337 -0.3947  0.4299 -0.0547
 4695TIP3    H135576   3.993   3.781  16.361 -0.0857  0.5989  0.0974
 4695TIP3    H235577   4.019   3.929  16.375 -0.1214  0.7058 -0.9343
 4696TIP3   OH235578   4.293   2.400   6.355 -0.3432 -0.2690  0.0267
 4696TIP3    H135579   4.342   2.447   6.288  0.3437  1.0782  1.4144
 4696TIP3    H235580   4.325   2.309   6.348 -0.3817 -0.1894 -1.5157
 4697TIP3   OH235581   4.376   3.396   0.178  0.7695 -0.2777  0.3055
 4697TIP3    H135582   4.413   3.316   0.215  0.2442 -0.0310  1.4384
 4697TIP3    H235583   4.351   3.373   0.089 -0.8099 -1.8693  1.0925
 4698TIP3   OH235584   6.426   6.529  14.799 -0.1618  0.6007 -0.4162
 4698TIP3    H135585   6.341   6.563  14.769 -0.1842  0.7779 -0.1573
 4698TIP3    H235586   6.477   6.608  14.819 -0.1038  0.4869 -0.1085
 4699TIP3   OH235587   6.665   4.763   1.641 -0.0596 -0.1636  0.2055
 4699TIP3    H135588   6.755   4.779   1.612  0.3692 -2.8465 -0.2054
 4699TIP3    H235589   6.670   4.683   1.694 -2.2038 -0.3398  0.2467
 4700TIP3   OH235590   2.387   0.153   2.539  0.1870  0.4552 -0.2413
 4700TIP3    H135591   2.423   0.189   2.458  1.0836  0.5912  0.2000
 4700TIP3    H235592   2.405   0.220   2.605 -0.9309  0.5445  0.0009
 4701TIP3   OH235593   6.118   2.437   4.228  0.5288 -0.2806 -0.0145
 4701TIP3    H135594   6.188   2.438   4.163  1.9211 -0.8790  1.4018
 4701TIP3    H235595   6.145   2.501   4.294  0.3761 -1.3715  1.1514
 4702TIP3   OH235596   0.556   0.476  15.910 -0.4067  0.1601 -0.0566
 4702TIP3    H135597   0.496   0.442  15.977 -0.4029  0.6550  0.1990
 4702TIP3    H235598   0.502   0.484  15.831 -0.9914  1.7621  0.4834
 4703TIP3   OH235599   1.793   5.023   0.335 -0.0705  0.0513  0.1779
 4703TIP3    H135600   1.708   5.047   0.298  0.0319 -1.5663 -1.2091
 4703TIP3    H235601   1.857   5.065   0.278  0.0711 -0.7487 -0.2632
 4704TIP3   OH235602   6.328   4.637   2.199 -0.1393  0.5434 -0.2675
 4704TIP3    H135603   6.252   4.582   2.217  0.1922  0.0651 -0.3178
 4704TIP3    H235604   6.298   4.726   2.218 -0.0829  0.1628  1.8718
 4705TIP3   OH235605   1.457   1.205   1.419 -0.3589  0.6227  0.3190
 4705TIP3    H135606   1.374   1.239   1.451 -1.1364 -0.7346 -0.1537
 4705TIP3    H235607   1.476   1.131   1.477  0.4707  0.8446  0.3452
 4706TIP3   OH235608   4.468   2.720  10.734 -0.2118  0.5210  0.0539
 4706TIP3    H135609   4.545   2.762  10.695 -0.1389  0.6861  0.3707
 4706TIP3    H235610   4.475   2.629  10.708  1.1481  0.0999  1.6507
 4707TIP3   OH235611   0.360   3.347   5.100  0.2667 -0.1024 -0.2702
 4707TIP3    H135612   0.452   3.345   5.074  0.8057 -2.0628  1.4726
 4707TIP3    H235613   0.319   3.280   5.045  0.2183 -0.2799 -0.0209
 4708TIP3   OH235614   6.739   4.144   3.647 -0.2945  0.3656 -0.2134
 4708TIP3    H135615   6.740   4.202   3.570 -1.8723 -0.1120 -0.6201
 4708TIP3    H235616   6.745   4.204   3.722 -0.6035  0.9598 -0.6588
 4709TIP3   OH235617   2.665   5.253  11.191  0.0517 -0.3019 -0.2845
 4709TIP3    H135618   2.624   5.168  11.175  2.0415 -1.3899  0.0490
 4709TIP3    H235619   2.609   5.316  11.146 -1.1321 -1.8686 -1.0745
 4710TIP3   OH235620   5.110   0.032   3.227  0.1354 -0.2410  0.2883
 4710TIP3    H135621   5.125   0.120   3.191 -1.2559  0.2259  0.7598
 4710TIP3    H235622   5.167  -0.025   3.175  0.6268  0.8578 -0.4269
 4711TIP3   OH235623   2.761   1.912  16.218  0.2459  0.3217 -0.4060
 4711TIP3    H135624   2.852   1.915  16.187 -0.2918 -2.2976 -2.5761
 4711TIP3    H235625   2.718   1.983  16.170  1.4222  3.0228  2.2230
 4712TIP3   OH235626   4.150   2.112  10.555  0.0907 -0.2460 -0.3615
 4712TIP3    H135627   4.186   2.195  10.585  0.4536 -1.0657  1.6354
 4712TIP3    H235628   4.191   2.096  10.470  0.9829  1.0030 -0.1826
 4713TIP3   OH235629   2.146   1.951   2.015 -0.0170 -0.3733 -0.1660
 4713TIP3    H135630   2.214   2.012   2.044 -0.9914  0.8494 -0.3777
 4713TIP3    H235631   2.166   1.869   2.061  0.6430  0.4296  1.0397
 4714TIP3   OH235632   3.755   2.675  10.942 -0.1302 -0.2726 -0.1872
 4714TIP3    H135633   3.798   2.597  10.906  0.4337  1.0128 -2.4883
 4714TIP3    H235634   3.816   2.747  10.924 -1.5691  1.0337 -0.0981
 4715TIP3   OH235635   4.296   2.511   5.324 -0.4200 -0.0251  0.1783
 4715TIP3    H135636   4.203   2.510   5.300 -0.7451  0.7333  1.3143
 4715TIP3    H235637   4.311   2.599   5.358  0.2210 -0.7078  1.7947
 4716TIP3   OH235638   3.078   2.601  12.993 -0.3928 -0.3244 -0.1306
 4716TIP3    H135639   3.086   2.686  13.036 -0.9670  0.5108 -1.5991
 4716TIP3    H235640   3.008   2.557  13.041 -1.2685  0.7196 -0.4026
 4717TIP3   OH235641   0.189   5.417  11.929 -0.3855 -0.3146  0.2247
 4717TIP3    H135642   0.183   5.465  11.846  1.1375  0.3006  0.4416
 4717TIP3    H235643   0.260   5.460  11.977 -0.1286 -1.7018  1.1600
 4718TIP3   OH235644   1.240   1.629   2.963 -0.1154  0.4568 -0.3455
 4718TIP3    H135645   1.326   1.588   2.954 -0.1366 -0.5125  2.7238
 4718TIP3    H235646   1.255   1.721   2.941  1.3819  0.0470 -1.1807
 4719TIP3   OH235647   3.726   0.824  14.155  0.6482 -0.2615 -0.3837
 4719TIP3    H135648   3.729   0.874  14.237 -0.6813  0.7510 -0.9230
 4719TIP3    H235649   3.673   0.747  14.175  0.7372 -0.2653 -0.1628
 4720TIP3   OH235650   4.760   1.018   1.637  0.1779  0.2264 -0.4341
 4720TIP3    H135651   4.771   1.059   1.551  0.6568  0.3589 -0.3106
 4720TIP3    H235652   4.683   0.961   1.627 -0.3415  0.9537 -0.6796
 4721TIP3   OH235653   1.571   4.635   5.329 -0.1430 -0.2268 -0.0025
 4721TIP3    H135654   1.524   4.565   5.284  0.0163  0.7774 -1.8497
 4721TIP3    H235655   1.519   4.653   5.408 -0.5685 -1.8991  0.1362
 4722TIP3   OH235656   3.398   0.752   4.515 -0.5878  0.4406  0.0076
 4722TIP3    H135657   3.432   0.824   4.567 -0.3024 -0.2394  0.7873
 4722TIP3    H235658   3.393   0.678   4.576 -1.5324 -0.0168 -0.5941
 4723TIP3   OH235659   3.266   5.886  11.844  0.1974  0.1976  0.2000
 4723TIP3    H135660   3.180   5.860  11.875 -0.3292  0.8457 -0.6550
 4723TIP3    H235661   3.265   5.867  11.750  0.4222  1.6070 -0.1132
 4724TIP3   OH235662   2.968   1.209   2.463  0.4021  0.3852  0.0414
 4724TIP3    H135663   2.886   1.218   2.510 -0.0451  0.3104 -0.6988
 4724TIP3    H235664   2.959   1.268   2.388  0.8208  0.0155 -0.3080
 4725TIP3   OH235665   4.368   1.641   4.186 -0.1144  0.4889 -0.1741
 4725TIP3    H135666   4.354   1.640   4.091  2.3647 -1.2585 -0.6134
 4725TIP3    H235667   4.383   1.550   4.209  0.1947  0.9910  1.7564
 4726TIP3   OH235668   3.358   6.378  10.390 -0.4456 -0.4232  0.2636
 4726TIP3    H135669   3.268   6.387  10.357 -0.4239  0.3323  0.3916
 4726TIP3    H235670   3.369   6.284  10.405 -1.8144 -0.3494  1.9215
 4727TIP3   OH235671   2.960   2.754  14.229  0.4236 -0.3118 -0.1986
 4727TIP3    H135672   2.949   2.729  14.138 -0.0408  1.2507 -0.6053
 4727TIP3    H235673   3.010   2.682  14.268  0.7388 -0.9483 -1.7073
 4728TIP3   OH235674   0.884   2.878  12.444 -0.3393 -0.3451 -0.4176
 4728TIP3    H135675   0.920   2.966  12.432 -1.6905  0.1996 -0.7080
 4728TIP3    H235676   0.790   2.893  12.461 -0.8875 -1.7667 -1.9434
 4729TIP3   OH235677   2.056   5.328  16.125 -0.1016  0.3414 -0.3568
 4729TIP3    H135678   1.988   5.391  16.102  0.1597  0.0175 -2.0946
 4729TIP3    H235679   2.110   5.320  16.047  0.0750 -1.8071 -0.0866
 4730TIP3   OH235680   0.060   1.086   3.094  0.4074  0.1976  0.4272
 4730TIP3    H135681   0.093   1.151   3.032  0.3581  1.5672  1.7803
 4730TIP3    H235682   0.129   1.021   3.099  0.8730  0.6237 -0.2521
 4731TIP3   OH235683   2.961   3.227  15.941 -0.5415 -0.2084 -0.3463
 4731TIP3    H135684   3.038   3.202  15.993 -0.9649  1.3598  1.1348
 4731TIP3    H235685   2.990   3.302  15.889 -0.8118 -0.1942 -0.4807
 4732TIP3   OH235686   2.050   4.836  12.016 -0.0470 -0.1848  0.0227
 4732TIP3    H135687   2.007   4.751  12.005 -0.7958 -0.0074  1.3685
 4732TIP3    H235688   1.986   4.890  12.062  0.3952  1.1468 -0.8764
 4733TIP3   OH235689   5.586   5.902   1.513  0.0300  0.0228 -0.2534
 4733TIP3    H135690   5.658   5.928   1.456 -0.3344  0.2998 -0.5918
 4733TIP3    H235691   5.560   5.983   1.557  1.4168 -0.4688  1.6075
 4734TIP3   OH235692   4.811   0.353  12.944 -0.2556  0.5676 -0.1016
 4734TIP3    H135693   4.780   0.265  12.922 -2.3337  1.7302 -2.3498
 4734TIP3    H235694   4.772   0.371  13.029 -0.5133 -0.3700 -0.0067
 4735TIP3   OH235695   5.304   4.756  14.406 -1.1946 -0.4270 -0.1383
 4735TIP3    H135696   5.289   4.790  14.318 -2.1202 -1.3224 -0.3490
 4735TIP3    H235697   5.274   4.826  14.464 -2.1117 -0.4523 -0.5561
 4736TIP3   OH235698   4.612   6.006  14.851  0.1502  0.0303  0.1328
 4736TIP3    H135699   4.556   5.943  14.806  0.4293 -0.4153  0.3999
 4736TIP3    H235700   4.576   6.091  14.828  1.0289 -0.1054 -1.9514
 4737TIP3   OH235701   4.749   2.818   0.370 -0.2844  0.1513  0.7256
 4737TIP3    H135702   4.808   2.757   0.415 -1.3966 -1.3252  0.2710
 4737TIP3    H235703   4.806   2.867   0.311  0.5758 -0.8871  0.6538
 4738TIP3   OH235704   0.118   3.095  12.462 -0.3827  0.2704 -0.5433
 4738TIP3    H135705   0.037   3.085  12.412  1.0341  0.1609 -2.9985
 4738TIP3    H235706   0.148   3.183  12.441 -0.4374  0.7795  1.3334
 4739TIP3   OH235707   0.796   6.341  14.793  0.0532  0.4292  0.0466
 4739TIP3    H135708   0.785   6.432  14.820  1.0725  0.2359  1.2213
 4739TIP3    H235709   0.721   6.295  14.829 -0.5149  0.8062 -0.6329
 4740TIP3   OH235710   0.763   5.592   4.300 -0.3466 -0.0215 -0.2073
 4740TIP3    H135711   0.713   5.609   4.220  2.0014 -1.5249 -2.1535
 4740TIP3    H235712   0.723   5.513   4.337  1.8245 -2.7410 -3.1121
 4741TIP3   OH235713   3.996   4.025  16.947 -0.4597 -0.1167  0.2077
 4741TIP3    H135714   4.007   3.945  16.999 -0.5653 -0.2401  0.0410
 4741TIP3    H235715   3.932   4.077  16.995 -0.6057 -0.2599  0.1685
 4742TIP3   OH235716   6.105   0.466   3.446  0.6306  0.3344 -0.2162
 4742TIP3    H135717   6.098   0.408   3.370 -0.3738 -0.7255  0.6376
 4742TIP3    H235718   6.112   0.406   3.521  1.1099  1.3458  0.5656
 4743TIP3   OH235719   0.823   1.530   4.933  0.0392 -0.5283  1.0546
 4743TIP3    H135720   0.854   1.585   4.861  0.2280 -2.7641 -0.6732
 4743TIP3    H235721   0.745   1.575   4.966 -0.4091  0.2617 -0.9478
 4744TIP3   OH235722   1.888   4.730   1.715  0.3913 -0.0269 -0.0434
 4744TIP3    H135723   1.814   4.791   1.708 -0.9488 -1.3130  1.9906
 4744TIP3    H235724   1.864   4.657   1.658 -0.6527 -1.0853  1.6733
 4745TIP3   OH235725   6.312   5.167  16.244  0.3701  0.1944  0.3094
 4745TIP3    H135726   6.324   5.097  16.309  2.7831 -1.1230 -1.3819
 4745TIP3    H235727   6.298   5.120  16.161  0.9489  1.7434 -0.7003
 4746TIP3   OH235728   2.637   3.014  11.002 -0.0268  0.2662  0.3373
 4746TIP3    H135729   2.651   2.929  11.043  0.0378  0.5994  1.0174
 4746TIP3    H235730   2.545   3.034  11.016 -0.8248 -1.0154 -2.4080
 4747TIP3   OH235731   4.719   1.781   1.947  0.0784 -0.1612 -0.0947
 4747TIP3    H135732   4.636   1.810   1.984  1.2018  2.1959  0.7671
 4747TIP3    H235733   4.777   1.768   2.022  1.3647  1.2511 -0.7814
 4748TIP3   OH235734   0.912   5.932  12.153  0.8239 -0.3441  0.7792
 4748TIP3    H135735   0.892   5.839  12.150 -0.5372 -0.1628  2.4735
 4748TIP3    H235736   0.888   5.965  12.067 -3.4389 -0.7728  1.5820
 4749TIP3   OH235737   4.606   5.443  14.842  0.2524  0.0615  0.7240
 4749TIP3    H135738   4.532   5.504  14.853  0.8191  0.9475 -0.1804
 4749TIP3    H235739   4.578   5.363  14.886 -0.7496  0.7896  1.4538
 4750TIP3   OH235740   0.599   4.902   2.421  0.1610  0.5329 -0.2070
 4750TIP3    H135741   0.560   4.814   2.427  0.9733 -0.0228 -2.3064
 4750TIP3    H235742   0.675   4.898   2.479 -0.6268  0.3412  0.8397
 4751TIP3   OH235743   5.612   4.740   4.110  0.3751 -0.0750 -0.3090
 4751TIP3    H135744   5.575   4.814   4.062  0.4503  1.0194  1.2276
 4751TIP3    H235745   5.597   4.665   4.054  0.2353  1.0904 -1.9000
 4752TIP3   OH235746   5.879   1.352  15.246  0.2263  0.5027 -0.2294
 4752TIP3    H135747   5.874   1.416  15.175  1.5064  0.2224 -0.5830
 4752TIP3    H235748   5.811   1.288  15.225  0.3134  0.6525 -0.9678
 4753TIP3   OH235749   3.076   1.907  16.990 -0.0540 -0.5640 -0.1380
 4753TIP3    H135750   3.032   1.829  17.023  1.7305 -1.0831  1.1812
 4753TIP3    H235751   3.127   1.877  16.916  0.9327 -0.7684  0.6023
 4754TIP3   OH235752   2.974   6.579   1.102 -0.2140  0.0136  0.2967
 4754TIP3    H135753   2.923   6.620   1.032  0.1588 -0.2297 -0.1197
 4754TIP3    H235754   2.957   6.486   1.092 -1.1851  0.0567  1.3388
 4755TIP3   OH235755   1.229   5.156   1.357  0.2990  0.6585  0.1792
 4755TIP3    H135756   1.208   5.212   1.431  1.1781  0.8162  0.3102
 4755TIP3    H235757   1.163   5.086   1.361 -0.9248  1.7468 -0.0896
 4756TIP3   OH235758   4.399   2.365  13.477  0.0441 -0.8849  0.1629
 4756TIP3    H135759   4.314   2.401  13.499 -1.2317 -2.6763 -1.5088
 4756TIP3    H235760   4.394   2.273  13.503  1.9811 -0.7519  1.2268
 4757TIP3   OH235761   2.093   5.226   3.497 -0.0803  0.5423  0.3920
 4757TIP3    H135762   2.027   5.212   3.429 -0.4246  0.4786  0.7363
 4757TIP3    H235763   2.162   5.275   3.453 -0.9731  1.8255  0.3555
 4758TIP3   OH235764   0.124   0.896   1.757 -0.3961 -0.4473  0.0574
 4758TIP3    H135765   0.087   0.853   1.834  1.3711 -1.1694  0.5604
 4758TIP3    H235766   0.104   0.837   1.684 -0.3199 -0.7764  0.3027
 4759TIP3   OH235767   6.492   2.278  16.526 -1.0347  0.3024  0.8311
 4759TIP3    H135768   6.468   2.353  16.581 -2.5743  0.6555 -0.2635
 4759TIP3    H235769   6.500   2.205  16.588  3.5420  1.7760  2.4432
 4760TIP3   OH235770   5.359   4.306   5.860  0.6568 -0.6591 -0.2412
 4760TIP3    H135771   5.297   4.379   5.859  0.0814 -1.1352  0.0740
 4760TIP3    H235772   5.375   4.290   5.953  1.9638  0.0432 -0.3221
 4761TIP3   OH235773   1.534   3.808  10.295  0.2380 -0.2653  0.3232
 4761TIP3    H135774   1.594   3.881  10.307  1.0371 -1.2835  4.2156
 4761TIP3    H235775   1.449   3.842  10.322 -0.0274 -0.0383 -0.7557
 4762TIP3   OH235776   3.398   4.328  13.920  0.4831  0.6192 -0.3119
 4762TIP3    H135777   3.420   4.254  13.976 -3.2522 -0.0136  0.5962
 4762TIP3    H235778   3.475   4.340  13.864  1.1154 -4.2839 -0.9104
 4763TIP3   OH235779   0.300   6.559   4.654 -0.0558  0.2580 -0.5752
 4763TIP3    H135780   0.366   6.594   4.714 -0.3857  1.5243 -0.9118
 4763TIP3    H235781   0.310   6.464   4.660 -0.5682  0.2902  2.0293
 4764TIP3   OH235782   3.089   0.278   1.298 -0.1347 -0.1959  0.2156
 4764TIP3    H135783   3.148   0.231   1.357  0.6572  1.0890  0.4845
 4764TIP3    H235784   3.064   0.212   1.233  1.0049 -0.9825  0.5321
 4765TIP3   OH235785   1.860   0.028  16.965 -0.1433  0.4055 -0.2119
 4765TIP3    H135786   1.899  -0.054  16.996 -0.7676  1.0768  2.5666
 4765TIP3    H235787   1.778   0.001  16.924  0.2636 -0.4424 -0.5009
 4766TIP3   OH235788   6.776   2.412   0.965 -0.6102  0.3382 -0.3168
 4766TIP3    H135789   6.801   2.338   0.909 -0.8666 -0.0674  0.0955
 4766TIP3    H235790   6.859   2.449   0.994 -0.4778  0.4768 -0.8682
 4767TIP3   OH235791   6.205   4.820   4.232 -0.4487 -0.0042  0.1488
 4767TIP3    H135792   6.176   4.906   4.203  1.5026  0.2413 -1.2618
 4767TIP3    H235793   6.178   4.760   4.162  1.3619  0.0663 -0.6545
 4768TIP3   OH235794   3.300   0.593  12.535 -0.1118  0.0072  0.8270
 4768TIP3    H135795   3.217   0.637  12.515 -1.0425 -0.9031  2.4583
 4768TIP3    H235796   3.346   0.653  12.593  0.7351  0.8293 -0.6414
 4769TIP3   OH235797   6.667   6.660   3.716  0.4531  0.1634 -0.4767
 4769TIP3    H135798   6.691   6.743   3.674  0.9318  0.1638 -0.2085
 4769TIP3    H235799   6.714   6.661   3.799 -1.0577  0.4887  0.3938
 4770TIP3   OH235800   0.080   4.365   2.767 -0.2263  0.1867  0.4280
 4770TIP3    H135801   0.013   4.319   2.716 -0.0686 -2.2798  2.2730
 4770TIP3    H235802   0.163   4.338   2.728 -0.0496 -2.5006  2.3922
 4771TIP3   OH235803   4.801   2.994  10.906  0.1339 -0.3070 -0.4445
 4771TIP3    H135804   4.824   3.016  10.815  1.4111  1.2516  0.2106
 4771TIP3    H235805   4.803   2.898  10.908  1.3755 -0.3505 -1.7534
 4772TIP3   OH235806   4.966   0.627  10.718  0.0883 -0.2488 -0.0059
 4772TIP3    H135807   4.961   0.538  10.684 -0.7233 -0.4814  0.6834
 4772TIP3    H235808   4.944   0.618  10.811 -1.4298  0.8437 -0.2249
 4773TIP3   OH235809   3.369   0.293   0.026  0.0257 -0.0268 -0.1947
 4773TIP3    H135810   3.407   0.345   0.096  0.0982 -0.8969  0.4201
 4773TIP3    H235811   3.396   0.203   0.045 -0.8951 -0.4233 -0.7066
 4774TIP3   OH235812   1.803   5.863   2.111 -0.1572 -0.3872 -0.0402
 4774TIP3    H135813   1.792   5.771   2.136 -0.0827 -0.4512 -0.2386
 4774TIP3    H235814   1.890   5.867   2.071 -0.9677 -0.6761 -1.9660
 4775TIP3   OH235815   2.319   4.843   1.880  0.1396 -0.4439  0.3854
 4775TIP3    H135816   2.316   4.881   1.968  1.4156  1.3724 -0.2943
 4775TIP3    H235817   2.232   4.860   1.844  0.5982  1.8282  0.1732
 4776TIP3   OH235818   4.945   2.440  15.075 -0.0771  0.1337 -0.8278
 4776TIP3    H135819   4.981   2.403  14.994 -0.6709 -0.1976 -0.9462
 4776TIP3    H235820   4.860   2.397  15.086  0.7427 -1.1491  0.9140
 4777TIP3   OH235821   1.034   3.917  12.655  0.2434  0.0527  0.2483
 4777TIP3    H135822   1.084   3.971  12.716  0.2589  0.3995 -0.0699
 4777TIP3    H235823   1.038   3.829  12.692  2.3453 -0.2241 -0.5189
 4778TIP3   OH235824   5.692   6.034   5.856 -0.3307 -0.9291  0.1707
 4778TIP3    H135825   5.712   5.988   5.937  1.0338  0.1243  0.4634
 4778TIP3    H235826   5.724   5.975   5.787  1.8641 -0.2929  0.5580
 4779TIP3   OH235827   5.107   4.708  11.342  0.3670  0.1872 -0.6810
 4779TIP3    H135828   5.086   4.623  11.302 -1.3147  0.1394  0.2071
 4779TIP3    H235829   5.123   4.687  11.435  2.1925  0.5687 -0.8727
 4780TIP3   OH235830   0.955   5.814   1.154 -0.3143  0.0047  0.0680
 4780TIP3    H135831   0.861   5.796   1.154 -0.1388 -0.9724 -0.1551
 4780TIP3    H235832   0.968   5.874   1.081 -0.1838 -3.3583 -2.9534
 4781TIP3   OH235833   4.370   3.131  14.089 -0.5799  0.0663 -0.4005
 4781TIP3    H135834   4.349   3.126  14.182 -1.8748  0.6573 -0.6417
 4781TIP3    H235835   4.320   3.206  14.057  1.3552  1.0874 -1.1864
 4782TIP3   OH235836   2.769   6.496   4.082  0.5864  0.0630  0.0969
 4782TIP3    H135837   2.706   6.562   4.111  1.6693  0.7020  1.1432
 4782TIP3    H235838   2.852   6.526   4.119  1.2620 -1.4444 -0.1386
 4783TIP3   OH235839   6.076   6.641  15.696 -0.3869  0.2956 -0.0160
 4783TIP3    H135840   6.154   6.696  15.684  0.5030 -1.0641 -0.6489
 4783TIP3    H235841   6.005   6.692  15.656  0.1938  1.4509  0.3636
 4784TIP3   OH235842   0.795   4.588  14.504 -0.6111  0.2763 -0.4471
 4784TIP3    H135843   0.730   4.612  14.438 -0.9474  2.6373  0.6301
 4784TIP3    H235844   0.878   4.586  14.456 -1.1878 -0.7521 -1.4398
 4785TIP3   OH235845   3.945   2.088  15.297 -0.7248 -0.5416 -0.6333
 4785TIP3    H135846   3.955   2.107  15.390 -1.7546 -0.3884 -0.5448
 4785TIP3    H235847   3.852   2.100  15.279 -0.5631 -0.6756 -1.6635
 4786TIP3   OH235848   3.593   2.891  15.259  0.0132 -0.3896  0.3844
 4786TIP3    H135849   3.593   2.804  15.300  1.2778  0.1458  1.6117
 4786TIP3    H235850   3.633   2.876  15.173 -1.5367 -1.3186 -0.2180
 4787TIP3   OH235851   2.653   4.893   4.881 -0.6087 -0.2323 -0.5226
 4787TIP3    H135852   2.618   4.892   4.971 -1.6780  0.4410 -0.9134
 4787TIP3    H235853   2.679   4.802   4.865 -2.3704 -0.8140 -0.2711
 4788TIP3   OH235854   3.221   4.667   4.074 -0.2243  0.5653  0.0877
 4788TIP3    H135855   3.269   4.709   4.145 -0.1245 -1.9246  1.5977
 4788TIP3    H235856   3.179   4.739   4.027 -0.5150  2.3097  2.8247
 4789TIP3   OH235857   0.011   6.181  10.859  0.1294 -0.4576  0.0350
 4789TIP3    H135858   0.097   6.143  10.842  0.7158  0.0774  1.6529
 4789TIP3    H235859   0.010   6.262  10.808  0.3869 -0.6802 -0.3350
 4790TIP3   OH235860   5.102   5.194  13.875  0.3942  0.1514  0.7482
 4790TIP3    H135861   5.019   5.184  13.828  0.3353 -1.0434  1.0655
 4790TIP3    H235862   5.144   5.269  13.834  1.6266 -2.3803 -3.1627
 4791TIP3   OH235863   1.222   6.236   0.908  0.3329  0.0251 -0.1281
 4791TIP3    H135864   1.237   6.204   0.819 -0.6326  1.6404 -0.9154
 4791TIP3    H235865   1.265   6.171   0.964  4.2179  0.7667 -1.8644
 4792TIP3   OH235866   5.644   2.422  11.259 -0.2676 -0.3124 -0.3452
 4792TIP3    H135867   5.609   2.445  11.173  1.3568  1.5695 -0.5828
 4792TIP3    H235868   5.739   2.435  11.251 -0.0827  0.0712  1.7680
 4793TIP3   OH235869   0.935   0.111  12.825 -0.0524  0.5591  0.1267
 4793TIP3    H135870   1.008   0.052  12.806 -0.0247  0.9571 -1.0463
 4793TIP3    H235871   0.877   0.104  12.749 -1.7884 -0.5125  1.4585
 4794TIP3   OH235872   2.713   2.680  15.615 -0.2754 -0.4220 -0.4128
 4794TIP3    H135873   2.700   2.766  15.574 -1.1301 -0.5956 -0.5247
 4794TIP3    H235874   2.747   2.625  15.544  3.1828  0.5196  0.3343
 4795TIP3   OH235875   4.181   4.620   0.123  0.8836 -0.3797 -0.5123
 4795TIP3    H135876   4.259   4.676   0.121 -0.3477  1.5505  1.0642
 4795TIP3    H235877   4.158   4.615   0.216 -2.4740  1.6024 -1.0669
 4796TIP3   OH235878   4.734   1.494  15.622  0.5503 -0.0778 -0.0421
 4796TIP3    H135879   4.787   1.554  15.568 -0.0638 -0.1052 -0.6849
 4796TIP3    H235880   4.660   1.547  15.650  0.9440 -0.0221  0.9165
 4797TIP3   OH235881   4.408   2.703   5.087  0.1686  0.3633 -0.3100
 4797TIP3    H135882   4.395   2.609   5.076 -1.5508  0.2016  2.1532
 4797TIP3    H235883   4.429   2.735   5.000 -0.0244 -2.1769 -1.3751
 4798TIP3   OH235884   0.356   2.249   3.762 -0.0811 -0.5685 -0.2592
 4798TIP3    H135885   0.267   2.215   3.752 -0.2560 -0.7869  1.7209
 4798TIP3    H235886   0.408   2.196   3.703 -1.2549 -0.3998 -1.5082
 4799TIP3   OH235887   3.729   5.050  16.393  0.2792  0.6935 -0.0163
 4799TIP3    H135888   3.774   5.038  16.477 -1.3741  0.6272  0.9020
 4799TIP3    H235889   3.652   5.102  16.414  1.6884  3.9731 -2.1363
 4800TIP3   OH235890   6.597   5.703  12.741  0.0745 -0.5863  0.2355
 4800TIP3    H135891   6.514   5.672  12.707  0.2902 -1.4549  0.4855
 4800TIP3    H235892   6.638   5.750  12.668 -0.1330 -1.1281 -0.2261
 4801TIP3   OH235893   4.512   0.108  16.801 -0.4607  0.1540  0.6286
 4801TIP3    H135894   4.528   0.093  16.894  0.7579  2.6538  0.8927
 4801TIP3    H235895   4.555   0.191  16.782 -1.0261 -0.0811 -2.0978
 4802TIP3   OH235896   2.551   0.430   0.304  0.1485 -0.1923 -0.2729
 4802TIP3    H135897   2.495   0.399   0.374 -0.0164  1.2077  0.2416
 4802TIP3    H235898   2.530   0.523   0.295  1.3347  0.0241 -1.0654
 4803TIP3   OH235899   1.320   2.578   5.001  0.5239  0.5808  0.0094
 4803TIP3    H135900   1.329   2.531   4.919 -0.8155  1.4428 -0.6694
 4803TIP3    H235901   1.284   2.513   5.062  0.6761  0.1719 -0.3326
 4804TIP3   OH235902   0.990   5.030   5.501  0.1123 -0.3985  0.3463
 4804TIP3    H135903   1.045   5.071   5.567  0.3858  1.1469 -0.8033
 4804TIP3    H235904   0.906   5.076   5.507  0.2337 -0.0397 -0.5731
 4805TIP3   OH235905   6.039   1.768   5.071  0.0378 -0.0978 -0.6345
 4805TIP3    H135906   5.992   1.703   5.124 -0.4132  1.0135  0.3941
 4805TIP3    H235907   6.036   1.734   4.982 -1.6049 -0.6972 -0.3827
 4806TIP3   OH235908   5.834   2.719  14.839 -0.4939 -0.5913  0.1227
 4806TIP3    H135909   5.838   2.653  14.770  0.8064 -1.1844  0.7266
 4806TIP3    H235910   5.792   2.795  14.798 -0.4184 -1.1951 -1.0912
 4807TIP3   OH235911   0.941   3.297   2.408  0.2783 -0.1093 -0.5039
 4807TIP3    H135912   0.930   3.283   2.314  0.7473 -0.1981 -0.5474
 4807TIP3    H235913   0.857   3.269   2.446  0.4362 -1.0400 -0.7978
 4808TIP3   OH235914   4.505   2.121  11.091 -0.0268  0.0695 -0.2450
 4808TIP3    H135915   4.428   2.178  11.092  1.2093  1.8296  0.4465
 4808TIP3    H235916   4.579   2.181  11.100  1.3683 -1.6534  0.3065
 4809TIP3   OH235917   6.805   1.164   5.428  0.9320  0.3178  0.0218
 4809TIP3    H135918   6.776   1.101   5.495  2.9263  0.7783  1.4317
 4809TIP3    H235919   6.899   1.147   5.419  0.6337 -0.2186 -3.2874
 4810TIP3   OH235920   4.967   5.416   2.619 -0.3554 -0.5530 -0.5780
 4810TIP3    H135921   5.048   5.366   2.628  0.0384  0.0652 -0.6053
 4810TIP3    H235922   4.985   5.478   2.549 -0.7861 -0.2812 -0.4515
 4811TIP3   OH235923   4.587   6.144   5.850 -0.3241 -0.2949  0.3766
 4811TIP3    H135924   4.604   6.072   5.911  0.0174 -0.1288  0.4856
 4811TIP3    H235925   4.607   6.223   5.902  1.2350 -0.1891 -0.3206
 4812TIP3   OH235926   6.118   1.750   0.613  0.0021  0.2982  0.2471
 4812TIP3    H135927   6.121   1.822   0.550  0.8008  0.3228  0.3031
 4812TIP3    H235928   6.204   1.751   0.655 -0.4160  0.1076  1.1440
 4813TIP3   OH235929   2.479   1.942   5.026 -0.8914  0.1426 -0.0793
 4813TIP3    H135930   2.464   1.971   4.937 -1.6560 -0.8105 -0.2722
 4813TIP3    H235931   2.441   2.010   5.081 -1.8517 -0.0447 -0.5065
 4814TIP3   OH235932   3.499   6.100   0.443 -0.1218  0.0522  0.0670
 4814TIP3    H135933   3.522   6.190   0.465 -1.8793  0.1309  1.9181
 4814TIP3    H235934   3.404   6.103   0.429 -0.0663 -1.3557 -0.7727
 4815TIP3   OH235935   4.421   6.844  12.246  0.1541 -0.2516 -0.3295
 4815TIP3    H135936   4.501   6.896  12.248  0.8397 -1.2996  1.0225
 4815TIP3    H235937   4.412   6.818  12.154  0.2422  1.4955 -0.8782
 4816TIP3   OH235938   3.879   5.558   3.570  0.2610 -0.0136 -1.0879
 4816TIP3    H135939   3.799   5.597   3.536  0.7192  1.2228 -0.7790
 4816TIP3    H235940   3.928   5.631   3.608  0.6674 -1.0387  0.4488
 4817TIP3   OH235941   5.062   4.015  13.061  0.5617 -0.4650  0.1039
 4817TIP3    H135942   5.032   4.046  12.975 -0.5557 -1.1492  0.2239
 4817TIP3    H235943   5.146   4.058  13.074  0.7764 -0.4002 -1.3643
 4818TIP3   OH235944   4.161   0.515   3.351 -0.0644  0.3782 -0.7239
 4818TIP3    H135945   4.117   0.555   3.426 -1.5977 -0.2205 -1.2545
 4818TIP3    H235946   4.183   0.588   3.294  0.4857  0.7716 -0.0272
 4819TIP3   OH235947   3.846   5.784  13.975 -0.2059  0.1877  0.7881
 4819TIP3    H135948   3.927   5.832  13.961 -0.1454 -0.4529 -1.4662
 4819TIP3    H235949   3.782   5.851  13.998  0.3623  1.0689 -0.1188
 4820TIP3   OH235950   4.129   1.440  11.163  0.4359  0.2624  0.1444
 4820TIP3    H135951   4.033   1.446  11.156  0.3598 -1.6518 -1.5525
 4820TIP3    H235952   4.162   1.492  11.090  0.5590 -0.8446 -0.6252
 4821TIP3   OH235953   4.853   1.596  13.380  0.1487  0.0597 -0.8139
 4821TIP3    H135954   4.759   1.597  13.398  0.2640 -1.0251 -0.0430
 4821TIP3    H235955   4.866   1.667  13.317 -0.5683  3.0301  2.0685
 4822TIP3   OH235956   6.522   0.891  12.879  0.0788 -0.2213  0.3584
 4822TIP3    H135957   6.442   0.892  12.827  1.2668  2.8335 -1.6858
 4822TIP3    H235958   6.555   0.802  12.871 -1.3859 -0.6651 -1.5314
 4823TIP3   OH235959   5.324   2.561   2.475  0.2273 -0.3381  0.4051
 4823TIP3    H135960   5.311   2.493   2.409  1.1936 -0.2010  0.0551
 4823TIP3    H235961   5.239   2.568   2.519  0.0209 -1.5544  0.2541
 4824TIP3   OH235962   0.515   0.611  11.682  0.0963  0.1736  0.4709
 4824TIP3    H135963   0.569   0.636  11.608 -0.9090 -1.6999 -0.9846
 4824TIP3    H235964   0.431   0.656  11.667 -0.8447 -1.8677 -0.7761
 4825TIP3   OH235965   3.002   0.127   2.831 -0.0988 -0.1604 -0.3529
 4825TIP3    H135966   3.066   0.145   2.762  0.0094 -0.3541 -0.3042
 4825TIP3    H235967   3.004   0.032   2.842 -1.1765 -0.2804 -1.0951
 4826TIP3   OH235968   5.125   1.783  16.566  0.2464 -0.2342  0.3949
 4826TIP3    H135969   5.123   1.873  16.535 -0.5443 -1.3046 -3.0777
 4826TIP3    H235970   5.058   1.779  16.634 -1.2038  1.3374 -0.8684
 4827TIP3   OH235971   0.678   3.790  15.000  0.0755 -0.2577  0.1122
 4827TIP3    H135972   0.736   3.842  14.945  0.4718 -0.1934  0.5806
 4827TIP3    H235973   0.592   3.828  14.987  0.4889  1.0966  1.1031
 4828TIP3   OH235974   6.111   5.646  15.509 -0.1925  0.0337 -0.2083
 4828TIP3    H135975   6.019   5.669  15.515  0.1040  0.8912  1.4937
 4828TIP3    H235976   6.133   5.613  15.596  1.0310 -0.4791 -0.6930
 4829TIP3   OH235977   2.751   1.976   4.978 -0.3334  0.1593  0.7676
 4829TIP3    H135978   2.723   1.987   4.887 -0.1925  0.8421  0.8057
 4829TIP3    H235979   2.673   1.942   5.022 -0.2208 -0.7821  0.2736
 4830TIP3   OH235980   6.702   6.059   3.834 -0.4684 -0.0458  0.1434
 4830TIP3    H135981   6.689   6.149   3.804  2.3081  0.4584  0.1448
 4830TIP3    H235982   6.779   6.029   3.786 -1.6567 -2.6719 -0.2758
 4831TIP3   OH235983   1.818   3.876   2.230  0.1995  0.2767  0.2105
 4831TIP3    H135984   1.745   3.813   2.227  0.0553  0.4674 -0.7583
 4831TIP3    H235985   1.801   3.936   2.158  0.1124  1.7133  1.3839
 4832TIP3   OH235986   0.868   2.411   4.361 -0.4006 -0.3353 -0.2772
 4832TIP3    H135987   0.891   2.450   4.276  0.3142  1.7456  0.7939
 4832TIP3    H235988   0.789   2.459   4.388 -1.1015 -1.5534 -0.1185
 4833TIP3   OH235989   4.613   0.527   4.748  0.8548  0.6216 -0.4755
 4833TIP3    H135990   4.575   0.504   4.833  2.2829 -0.8214 -0.1757
 4833TIP3    H235991   4.640   0.618   4.758 -1.5846  1.4082 -0.3963
 4834TIP3   OH235992   0.532   4.399   3.382 -0.2417  0.4861  0.0314
 4834TIP3    H135993   0.470   4.472   3.375 -1.3327 -0.1463  2.1977
 4834TIP3    H235994   0.542   4.385   3.476  2.9455  0.2786 -0.2566
 4835TIP3   OH235995   5.784   5.731   3.934 -0.2673 -0.5253  0.1741
 4835TIP3    H135996   5.870   5.771   3.946 -0.5415 -0.2070  1.2087
 4835TIP3    H235997   5.800   5.653   3.882  0.8403 -1.1596  1.4302
 4836TIP3   OH235998   0.533   1.994   3.957 -0.3436  0.5176  0.0202
 4836TIP3    H135999   0.531   2.023   4.048 -1.0269  0.1173  0.1392
 4836TIP3    H236000   0.490   1.909   3.958 -0.0246  0.3398 -0.6225
 4837TIP3   OH236001   3.387   5.052   2.934 -0.2149  0.1333  0.1008
 4837TIP3    H136002   3.338   5.112   2.879 -1.2604 -0.1839  0.6688
 4837TIP3    H236003   3.339   4.969   2.930  2.0503 -1.2297 -1.9649
 4838TIP3   OH236004   4.383   5.163  14.196  0.0924 -0.0613 -0.3861
 4838TIP3    H136005   4.349   5.077  14.170  1.4659 -0.4141 -1.1123
 4838TIP3    H236006   4.474   5.162  14.167 -0.0131  1.8698 -0.8895
 4839TIP3   OH236007   1.780   3.597   5.137  0.2934 -0.5601 -0.4232
 4839TIP3    H136008   1.809   3.669   5.193  2.9908 -2.6590  1.1358
 4839TIP3    H236009   1.730   3.540   5.196  0.7642 -1.4253 -0.8453
 4840TIP3   OH236010   1.297   5.392   3.427  0.0249  0.2698  0.0223
 4840TIP3    H136011   1.282   5.341   3.506  0.5909 -2.0914 -1.3069
 4840TIP3    H236012   1.213   5.392   3.381  0.1862 -0.0600 -0.2834
 4841TIP3   OH236013   1.467   3.281  12.371 -0.1717  0.1392  0.8174
 4841TIP3    H136014   1.385   3.327  12.354  0.9039  1.7803 -0.3222
 4841TIP3    H236015   1.535   3.345  12.347  1.4180 -1.5401  0.6423
 4842TIP3   OH236016   5.594   5.719  13.302  0.3166  0.0147  0.4294
 4842TIP3    H136017   5.622   5.631  13.278  0.3391 -0.2866  1.5154
 4842TIP3    H236018   5.643   5.739  13.382  3.4950  2.6368 -1.8784
 4843TIP3   OH236019   1.103   0.741  15.554  0.2356  0.6319  0.1541
 4843TIP3    H136020   1.187   0.753  15.511  0.4505 -1.4912 -0.1222
 4843TIP3    H236021   1.039   0.779  15.494  0.8778  1.1554 -0.2068
 4844TIP3   OH236022   0.543   3.728   1.654 -0.1512 -0.0559  0.3619
 4844TIP3    H136023   0.503   3.790   1.593 -0.6950 -1.5877 -0.9124
 4844TIP3    H236024   0.545   3.775   1.738  0.8326  2.2140 -0.8322
 4845TIP3   OH236025   2.784   6.261  14.353  0.1155  0.4392  0.5291
 4845TIP3    H136026   2.716   6.210  14.309 -0.1616 -0.6761  2.1497
 4845TIP3    H236027   2.803   6.211  14.432  3.4010  0.2672 -0.2219
 4846TIP3   OH236028   0.064   4.273   5.283 -0.0213 -0.1591 -0.0629
 4846TIP3    H136029   0.095   4.236   5.200 -0.3454  0.7341 -0.6009
 4846TIP3    H236030   0.039   4.363   5.260  1.3749  0.6334  1.3289
 4847TIP3   OH236031   1.641   2.970   0.068  0.2273 -0.2267 -0.3168
 4847TIP3    H136032   1.557   3.014   0.060  0.1696 -0.3651 -0.4899
 4847TIP3    H236033   1.706   3.041   0.063  0.0770  0.1277  1.9468
 4848TIP3   OH236034   4.801   6.243  15.448 -0.2363 -0.1229 -0.0313
 4848TIP3    H136035   4.863   6.273  15.514 -0.4765  0.0718  0.1095
 4848TIP3    H236036   4.795   6.148  15.462 -0.1630 -0.1055  0.1215
 4849TIP3   OH236037   3.994   2.745  14.151 -0.2119 -0.0384  0.6798
 4849TIP3    H136038   4.012   2.652  14.143  3.5467  0.6638 -0.7873
 4849TIP3    H236039   3.991   2.777  14.061  1.0442  1.6246  1.1955
 4850TIP3   OH236040   2.921   3.976  14.992 -0.4599  0.2631 -0.3323
 4850TIP3    H136041   2.868   3.942  15.065 -0.3550  0.1022 -0.3291
 4850TIP3    H236042   2.861   3.982  14.919 -0.8621  1.5802  0.0812
 4851TIP3   OH236043   6.393   1.018   4.617 -0.1397 -0.1498  0.0178
 4851TIP3    H136044   6.323   0.957   4.640 -0.5646  0.0398 -0.7442
 4851TIP3    H236045   6.395   1.018   4.522 -0.9913  1.9383 -0.0548
 4852TIP3   OH236046   6.589   6.344  12.368  0.0299 -0.2348 -0.2858
 4852TIP3    H136047   6.667   6.304  12.405 -0.8990 -1.4034  0.4944
 4852TIP3    H236048   6.528   6.271  12.355 -1.6609  0.8595  0.9674
 4853TIP3   OH236049   4.892   3.569   2.923  0.1684 -0.4083 -0.1849
 4853TIP3    H136050   4.968   3.616   2.956 -0.0971  0.2180 -0.4327
 4853TIP3    H236051   4.913   3.477   2.935  1.4031 -0.2848 -1.2070
 4854TIP3   OH236052   1.449   2.438   5.339 -0.0693  0.2106 -0.0799
 4854TIP3    H136053   1.367   2.423   5.291  0.5563  3.7229 -2.6139
 4854TIP3    H236054   1.517   2.411   5.278  0.8012 -1.4994  1.5369
 4855TIP3   OH236055   2.595   6.713  11.689  0.7908 -0.0429  0.3652
 4855TIP3    H136056   2.600   6.777  11.761 -0.5684  1.4813 -0.8175
 4855TIP3    H236057   2.528   6.651  11.717  0.1720  0.6195  0.3891
 4856TIP3   OH236058   4.482   3.388   2.051 -0.0865 -0.0879  0.5129
 4856TIP3    H136059   4.475   3.436   1.969 -0.9278 -0.9735  0.0525
 4856TIP3    H236060   4.573   3.399   2.077  0.3886 -0.4176 -0.9269
 4857TIP3   OH236061   2.126   2.897  10.961 -0.2957  0.3614 -0.5805
 4857TIP3    H136062   2.049   2.937  11.004 -0.4066  0.9987 -1.3529
 4857TIP3    H236063   2.092   2.816  10.923  0.3833 -1.7902  2.8900
 4858TIP3   OH236064   0.007   2.593   2.809 -1.1555  0.1533  0.1012
 4858TIP3    H136065   0.066   2.518   2.802 -1.1427  0.2309 -0.7352
 4858TIP3    H236066   0.056   2.666   2.771 -1.1525  0.6040  0.9501
 4859TIP3   OH236067   0.595   2.094   3.672 -0.0052  0.0749 -0.1707
 4859TIP3    H136068   0.549   2.063   3.594 -1.3556  1.5803 -0.0207
 4859TIP3    H236069   0.578   2.026   3.738 -0.2248 -0.4097 -0.7183
 4860TIP3   OH236070   5.217   1.608   5.800 -0.4853  0.3782 -0.2708
 4860TIP3    H136071   5.297   1.660   5.809  0.0063 -0.5306  0.6766
 4860TIP3    H236072   5.208   1.563   5.883 -2.0510  0.5384 -0.3324
 4861TIP3   OH236073   4.577   6.767  11.185 -0.1632 -0.4697  0.0151
 4861TIP3    H136074   4.635   6.704  11.229  1.2372  1.9624  1.9010
 4861TIP3    H236075   4.637   6.832  11.149 -1.6523  1.5628  1.0761
 4862TIP3   OH236076   3.376   0.563   3.083 -0.2645 -0.6613  0.1505
 4862TIP3    H136077   3.439   0.599   3.146 -1.2964 -1.0716  1.4510
 4862TIP3    H236078   3.300   0.539   3.135 -2.2602  1.4060 -1.5902
 4863TIP3   OH236079   1.603   0.819  15.307  0.3119 -0.6246  0.1630
 4863TIP3    H136080   1.665   0.891  15.314 -1.4127  0.9572  0.0317
 4863TIP3    H236081   1.616   0.769  15.388  1.4235 -0.0660  0.3498
 4864TIP3   OH236082   5.084   2.770  12.883  0.6848 -0.2054 -0.4666
 4864TIP3    H136083   5.169   2.798  12.849  0.5376 -0.7824 -1.3642
 4864TIP3    H236084   5.083   2.675  12.870 -0.2719 -0.1487 -0.9050
 4865TIP3   OH236085   1.510   2.175   2.758 -0.6964  0.7585 -0.8260
 4865TIP3    H136086   1.505   2.206   2.848  1.0588  0.7001 -0.6786
 4865TIP3    H236087   1.425   2.198   2.720 -0.8143  2.3813  0.3182
 4866TIP3   OH236088   4.308   0.566   1.815 -0.2297 -0.3341 -0.1154
 4866TIP3    H136089   4.219   0.580   1.783  0.2563 -0.4039 -1.5679
 4866TIP3    H236090   4.331   0.479   1.782 -0.6878 -1.6783  2.8327
 4867TIP3   OH236091   5.805   2.014   3.926  0.3817 -0.5452  0.3953
 4867TIP3    H136092   5.772   2.011   4.016  1.7638  0.0637  0.9484
 4867TIP3    H236093   5.751   2.079   3.883  0.4461 -0.0089  1.1093
 4868TIP3   OH236094   4.633   4.765  11.238 -0.3195 -0.0752  0.8862
 4868TIP3    H136095   4.556   4.821  11.229 -1.3411 -1.3410  1.3981
 4868TIP3    H236096   4.688   4.809  11.303 -0.9151  0.5280  0.9902
 4869TIP3   OH236097   6.394   2.591   0.464  0.2237  0.2916  0.1799
 4869TIP3    H136098   6.355   2.506   0.484 -3.1603  2.1340  2.4044
 4869TIP3    H236099   6.468   2.598   0.524 -0.3434 -0.5649  1.0127
 4870TIP3   OH236100   1.516   5.140  11.857  0.1124 -0.2244  0.1194
 4870TIP3    H136101   1.524   5.232  11.883  1.1323 -0.4048  0.5113
 4870TIP3    H236102   1.433   5.111  11.896  0.0312  0.3933  0.4189
 4871TIP3   OH236103   6.040   6.632   0.530  0.5448  0.1223  0.1884
 4871TIP3    H136104   6.114   6.573   0.540  0.5752  0.2070  0.4839
 4871TIP3    H236105   6.028   6.670   0.617 -0.5292 -0.7004  0.4143
 4872TIP3   OH236106   3.498   1.487  12.206  0.4364 -0.4108  0.4365
 4872TIP3    H136107   3.459   1.563  12.163  1.2672  0.8128  1.7392
 4872TIP3    H236108   3.428   1.451  12.260  0.9722  1.8681  2.9025
 4873TIP3   OH236109   1.397   6.729  14.788 -0.2795 -0.7086 -0.5521
 4873TIP3    H136110   1.418   6.734  14.881 -2.1206  1.5941 -0.1640
 4873TIP3    H236111   1.323   6.668  14.783 -1.3670  0.5394 -0.2027
 4874TIP3   OH236112   1.097   2.605   6.520 -0.1505 -0.2998 -0.1105
 4874TIP3    H136113   1.128   2.693   6.541 -0.3085 -0.3071  0.1540
 4874TIP3    H236114   1.077   2.566   6.605 -0.2904 -0.5150 -0.2417
 4875TIP3   OH236115   6.526   3.254   0.711 -0.1092 -0.0193 -0.1969
 4875TIP3    H136116   6.607   3.242   0.761 -1.0141  1.0094  1.6029
 4875TIP3    H236117   6.536   3.339   0.669  0.2922 -0.5119 -1.1458
 4876TIP3   OH236118   1.168   3.433  15.413 -0.0602  0.0121  0.3220
 4876TIP3    H136119   1.201   3.509  15.366 -2.6171  0.9598 -0.0844
 4876TIP3    H236120   1.144   3.371  15.344  3.9917 -2.2963  0.6277
 4877TIP3   OH236121   2.185   0.028  15.287 -1.0306  0.0760 -0.3022
 4877TIP3    H136122   2.163   0.100  15.227  0.0994 -0.0456 -0.8723
 4877TIP3    H236123   2.235   0.070  15.357  0.0514 -0.2278 -0.8867
 4878TIP3   OH236124   6.005   3.162  15.603 -0.1883 -0.0157 -0.3700
 4878TIP3    H136125   5.985   3.251  15.574  0.6576 -0.0629 -1.1218
 4878TIP3    H236126   6.080   3.135  15.551 -1.5664 -1.8996 -1.5295
 4879TIP3   OH236127   1.886   3.916  14.354 -0.1197 -0.0221  0.5340
 4879TIP3    H136128   1.932   3.837  14.383 -1.4788 -0.8229  0.5915
 4879TIP3    H236129   1.814   3.926  14.416 -1.3823 -0.1271 -0.8585
 4880TIP3   OH236130   5.462   4.761   6.055  1.0301  0.4197 -0.3963
 4880TIP3    H136131   5.496   4.812   6.128  1.2298  0.7024 -0.6821
 4880TIP3    H236132   5.367   4.768   6.064  1.0200 -0.7875  0.6889
 4881TIP3   OH236133   0.630   5.696   0.987  0.7343  0.0056 -0.1289
 4881TIP3    H136134   0.564   5.710   1.055  2.7273  1.6009  1.6325
 4881TIP3    H236135   0.593   5.736   0.908 -0.6008  0.3729  0.6617
 4882TIP3   OH236136   1.148   5.950  16.415 -0.2674 -0.4548  0.1135
 4882TIP3    H136137   1.110   5.946  16.503 -0.8733 -4.2768 -0.1570
 4882TIP3    H236138   1.073   5.954  16.357  0.0045 -0.7082 -0.2615
 4883TIP3   OH236139   0.903   1.815   1.927 -0.0080 -1.0984 -0.6493
 4883TIP3    H136140   0.967   1.835   1.995  1.3193 -1.0659 -1.8647
 4883TIP3    H236141   0.880   1.723   1.941 -0.7264 -0.7550  0.5905
 4884TIP3   OH236142   6.130   5.160  15.454 -0.0699  0.5337  0.4730
 4884TIP3    H136143   6.078   5.089  15.417 -0.9270  0.3749  1.9156
 4884TIP3    H236144   6.066   5.218  15.494  0.6023  2.2260 -0.7909
 4885TIP3   OH236145   0.250   3.696   6.572 -0.5804  0.8971  0.1948
 4885TIP3    H136146   0.261   3.781   6.530  0.4674  0.8457  0.3283
 4885TIP3    H236147   0.159   3.696   6.602 -0.5864  1.9987  0.2435
 4886TIP3   OH236148   6.581   2.956   2.855 -0.5895  0.3489  0.0372
 4886TIP3    H136149   6.515   2.978   2.789  0.3591  0.0899 -1.0254
 4886TIP3    H236150   6.580   2.860   2.858 -0.9502  0.3633  0.7615
 4887TIP3   OH236151   6.263   3.210   2.531 -0.3379  0.3659  0.4223
 4887TIP3    H136152   6.233   3.296   2.501 -1.5610 -0.0530  0.3898
 4887TIP3    H236153   6.348   3.227   2.572 -0.5045  1.5662  0.3095
 4888TIP3   OH236154   5.544   3.019   3.461 -0.5523  0.0020  0.1962
 4888TIP3    H136155   5.557   2.991   3.370 -0.2442 -0.6911  0.4453
 4888TIP3    H236156   5.508   3.107   3.454  0.6657  0.4679 -0.5847
 4889TIP3   OH236157   0.195   0.610  11.203 -0.0095 -0.3603  0.5981
 4889TIP3    H136158   0.100   0.605  11.199  0.0490 -0.6564 -0.7604
 4889TIP3    H236159   0.226   0.549  11.136  1.1157  0.7046  0.1009
 4890TIP3   OH236160   2.765   2.107  14.188 -0.0185  0.2578 -0.0815
 4890TIP3    H136161   2.685   2.099  14.137  0.0598  0.2111 -0.1987
 4890TIP3    H236162   2.747   2.175  14.252  1.0433  2.9236 -2.3985
 4891TIP3   OH236163   3.341   5.366  17.095 -0.4420  0.1326 -0.1427
 4891TIP3    H136164   3.307   5.437  17.148  0.5554  0.3482  0.2278
 4891TIP3    H236165   3.429   5.351  17.128 -1.0657 -2.1427  0.6444
 4892TIP3   OH236166   6.002   4.665   4.406 -0.0992 -0.5873 -0.5661
 4892TIP3    H136167   6.035   4.576   4.420 -0.1359 -0.7153 -1.2809
 4892TIP3    H236168   6.073   4.710   4.361  0.5753  0.2378  1.2440
 4893TIP3   OH236169   4.209   4.655  13.514  0.0673 -0.0236  0.0663
 4893TIP3    H136170   4.273   4.623  13.450 -1.0637 -0.8298 -0.7214
 4893TIP3    H236171   4.261   4.686  13.588  1.3918  0.2621 -0.9472
 4894TIP3   OH236172   1.527   1.983  11.707 -0.6170  0.6778  0.1675
 4894TIP3    H136173   1.459   1.939  11.656 -1.0193  2.5440 -1.0320
 4894TIP3    H236174   1.487   2.067  11.731  0.8048  1.2703  0.5702
 4895TIP3   OH236175   4.063   0.617   3.026 -0.3075 -0.1319  0.5061
 4895TIP3    H136176   4.029   0.588   3.110  1.7000 -0.5102  1.2305
 4895TIP3    H236177   4.042   0.710   3.022 -1.2383 -0.3095  0.9852
 4896TIP3   OH236178   4.839   4.612   4.011  0.1145 -0.0945 -0.3417
 4896TIP3    H136179   4.795   4.570   3.938  0.7223  0.8879 -1.2988
 4896TIP3    H236180   4.779   4.681   4.039 -0.4387 -0.9181  0.5850
 4897TIP3   OH236181   2.599   1.202  10.886 -0.3702 -0.2341  0.4595
 4897TIP3    H136182   2.517   1.228  10.844 -0.2210 -0.3291  0.1134
 4897TIP3    H236183   2.634   1.284  10.922  0.6540  0.2748 -1.5752
 4898TIP3   OH236184   3.916   4.461   3.082 -0.1503  0.2255  0.2088
 4898TIP3    H136185   3.974   4.502   3.018  0.9167 -1.5175  0.0008
 4898TIP3    H236186   3.827   4.481   3.050  0.3431 -0.4850 -1.7720
 4899TIP3   OH236187   0.868   3.772   4.619 -0.1603  0.0015 -0.3902
 4899TIP3    H136188   0.856   3.681   4.646 -1.1480  0.5152  1.0524
 4899TIP3    H236189   0.944   3.770   4.561  1.9659 -1.2934  2.2079
 4900TIP3   OH236190   2.977   2.567   3.117  0.0920  0.6457 -0.3204
 4900TIP3    H136191   2.953   2.517   3.195  1.5743  0.0034 -0.2377
 4900TIP3    H236192   2.901   2.558   3.059 -0.2026 -0.6281  0.2119
 4901TIP3   OH236193   2.166   5.675   4.387 -0.2558  0.8993 -0.0833
 4901TIP3    H136194   2.093   5.629   4.428  0.3448  0.0168  0.0287
 4901TIP3    H236195   2.188   5.622   4.310 -2.7521  3.6310 -2.9549
 4902TIP3   OH236196   2.143   1.390  11.528  0.6289  0.4438 -0.1805
 4902TIP3    H136197   2.071   1.446  11.558  1.2287  0.4752  1.2922
 4902TIP3    H236198   2.107   1.342  11.454 -1.2010 -0.1910  1.0530
 4903TIP3   OH236199   3.416   3.965  13.478  0.6669  0.7442  0.0024
 4903TIP3    H136200   3.358   4.037  13.451 -0.9681 -1.0609 -1.6063
 4903TIP3    H236201   3.358   3.906  13.527  2.2995  1.1134  2.5611
 4904TIP3   OH236202   4.272   5.279   4.006  0.2741 -0.5463 -0.0773
 4904TIP3    H136203   4.245   5.309   3.920  0.4760  1.4401  0.5006
 4904TIP3    H236204   4.289   5.185   3.995  0.7350 -0.2470 -2.2930
 4905TIP3   OH236205   0.489   1.600  13.268  0.2748  0.1194 -0.6568
 4905TIP3    H136206   0.473   1.649  13.349  0.6120 -0.2084 -0.3848
 4905TIP3    H236207   0.406   1.555  13.251  0.1233  0.3871 -0.6292
 4906TIP3   OH236208   6.135   1.943  15.410  0.4554 -0.2555 -0.5088
 4906TIP3    H136209   6.048   1.957  15.448 -0.1387 -1.2565 -1.4249
 4906TIP3    H236210   6.128   1.979  15.321  0.9028 -0.5422 -0.6597
 4907TIP3   OH236211   3.551   2.668  12.930  0.0593 -0.2985  0.9870
 4907TIP3    H136212   3.510   2.600  12.876 -1.5550  1.5659 -0.2552
 4907TIP3    H236213   3.595   2.725  12.868 -0.6962  1.1548  1.7458
 4908TIP3   OH236214   1.015   1.290  12.795 -0.3501 -0.1080 -0.4444
 4908TIP3    H136215   1.006   1.350  12.869  0.5599 -1.7874  1.1084
 4908TIP3    H236216   1.104   1.305  12.763 -0.4388 -0.0083 -0.6491
 4909TIP3   OH236217   2.154   2.896  13.732  0.5206  0.2149 -0.2975
 4909TIP3    H136218   2.128   2.836  13.662  0.4342 -3.1728  2.3785
 4909TIP3    H236219   2.246   2.916  13.714  0.5981 -0.8873 -1.2044
 4910TIP3   OH236220   5.908   3.593   0.631  0.1377  0.2284  0.4389
 4910TIP3    H136221   5.892   3.648   0.707  0.3482 -0.0065  0.6556
 4910TIP3    H236222   5.938   3.509   0.668  1.4478  0.5074  0.0783
 4911TIP3   OH236223   1.126   5.613   3.556  0.3734  0.1650 -0.2082
 4911TIP3    H136224   1.205   5.662   3.581  0.6695 -0.5007  0.1875
 4911TIP3    H236225   1.140   5.591   3.464  0.7734 -0.1620 -0.0761
 4912TIP3   OH236226   1.330   5.065   2.251 -0.1300  0.1564 -0.1243
 4912TIP3    H136227   1.364   5.116   2.325 -0.1051 -1.0648  0.7455
 4912TIP3    H236228   1.405   5.016   2.219  0.0410  1.2955 -1.5121
 4913TIP3   OH236229   4.048   6.444   6.302 -0.5761 -0.2794 -0.0696
 4913TIP3    H136230   3.993   6.520   6.279 -0.1084 -0.0314 -0.3747
 4913TIP3    H236231   3.989   6.369   6.291 -0.0190 -0.3862 -3.7622
 4914TIP3   OH236232   5.317   3.312  12.525  0.2747  0.1861 -0.1285
 4914TIP3    H136233   5.320   3.388  12.583  2.1058 -0.0155  0.0968
 4914TIP3    H236234   5.330   3.237  12.582  2.2077 -0.0124 -0.7658
 4915TIP3   OH236235   2.747   0.418  14.495  0.2460  0.2993  0.0888
 4915TIP3    H136236   2.753   0.500  14.545 -1.1736  2.1058 -2.4973
 4915TIP3    H236237   2.822   0.366  14.526  1.8294  2.9793  1.1221
 4916TIP3   OH236238   0.268   0.381   5.165  0.2835 -0.4956  0.0878
 4916TIP3    H136239   0.211   0.416   5.096 -0.1852 -2.7370 -0.7417
 4916TIP3    H236240   0.354   0.419   5.147 -0.6069  2.0502  0.6880
 4917TIP3   OH236241   0.503   2.545  11.490  0.0466 -0.0365  0.2663
 4917TIP3    H136242   0.551   2.606  11.546 -1.3336  4.8680 -3.2226
 4917TIP3    H236243   0.569   2.512  11.429  0.4530 -0.6652  1.0139
 4918TIP3   OH236244   2.666   4.015   3.888  0.6107 -0.0701 -0.8536
 4918TIP3    H136245   2.579   3.985   3.863 -0.7845  1.9575  1.2294
 4918TIP3    H236246   2.709   4.035   3.805 -1.0296 -0.7237 -1.9135
 4919TIP3   OH236247   5.641   5.432  11.488 -0.2192  0.5897 -0.2366
 4919TIP3    H136248   5.602   5.497  11.429 -2.7667 -0.5639  0.0544
 4919TIP3    H236249   5.619   5.348  11.449  1.7821 -0.1695  0.1625
 4920TIP3   OH236250   5.217   4.508  17.101 -0.2355  0.1057  0.3386
 4920TIP3    H136251   5.211   4.432  17.160 -1.5215  1.0267  1.4568
 4920TIP3    H236252   5.291   4.558  17.133  0.5180 -0.5690 -0.3028
 4921TIP3   OH236253   5.476   1.284   0.570 -0.4719  0.3043  0.5132
 4921TIP3    H136254   5.472   1.216   0.638  1.8456  0.1090  0.5373
 4921TIP3    H236255   5.418   1.353   0.602 -2.2346 -1.2797  0.8921
 4922TIP3   OH236256   4.746   0.051  12.461  0.0493  0.6141  0.4792
 4922TIP3    H136257   4.756   0.132  12.510  1.3594  2.3129 -2.3394
 4922TIP3    H236258   4.833   0.033  12.426 -1.1193  0.7429 -2.8899
 4923TIP3   OH236259   0.057   5.296  15.461 -0.1578 -0.1012 -0.4248
 4923TIP3    H136260   0.117   5.341  15.521 -2.0964  0.4407  1.1981
 4923TIP3    H236261   0.024   5.222  15.512 -0.9419 -0.3458 -1.2676
 4924TIP3   OH236262   0.890   6.369   5.320 -0.5360 -0.4924  0.2997
 4924TIP3    H136263   0.964   6.388   5.377 -1.0998 -2.1523  1.6580
 4924TIP3    H236264   0.892   6.439   5.255  0.8755  0.7723  1.6110
 4925TIP3   OH236265   3.684   3.380  13.623 -0.2103  0.1656  0.1168
 4925TIP3    H136266   3.739   3.309  13.592 -1.7702 -0.4306 -1.4083
 4925TIP3    H236267   3.657   3.353  13.711  0.7147 -0.2152  0.2924
 4926TIP3   OH236268   1.163   4.512   2.624  0.3812 -0.2181 -0.2031
 4926TIP3    H136269   1.222   4.567   2.676 -1.1702  0.6647  0.7343
 4926TIP3    H236270   1.215   4.484   2.549  1.1115  3.2297 -1.2035
 4927TIP3   OH236271   4.733   4.292   3.155  0.4479 -0.1155 -0.6550
 4927TIP3    H136272   4.653   4.285   3.207 -0.1278 -0.7317 -1.5809
 4927TIP3    H236273   4.770   4.377   3.178  0.5911 -0.6568  1.2543
 4928TIP3   OH236274   1.641   0.383  15.288 -0.2936  0.2925  0.2469
 4928TIP3    H136275   1.593   0.401  15.369  1.2329  1.9147  0.8635
 4928TIP3    H236276   1.621   0.292  15.268  0.0524 -0.4970  3.0427
 4929TIP3   OH236277   0.398   4.359   5.549  0.4589  0.0831 -0.4108
 4929TIP3    H136278   0.342   4.284   5.532 -2.0010  1.1467  2.1161
 4929TIP3    H236279   0.487   4.327   5.536 -0.5902 -2.5860 -1.6051
 4930TIP3   OH236280   6.317   2.203  16.884 -0.2377  0.1498  0.0835
 4930TIP3    H136281   6.343   2.135  16.947  0.8631  0.7445  0.2927
 4930TIP3    H236282   6.378   2.193  16.811 -1.3192 -0.3433 -0.8027
 4931TIP3   OH236283   3.234   5.277  12.177  0.5286  0.3217 -0.5534
 4931TIP3    H136284   3.253   5.371  12.165 -0.0403  0.4844 -0.2156
 4931TIP3    H236285   3.143   5.275  12.209  0.9737 -0.2711  0.7266
 4932TIP3   OH236286   0.801   0.640  13.737  0.1447 -0.8686  0.5820
 4932TIP3    H136287   0.754   0.557  13.729  0.8074 -1.2727  0.7372
 4932TIP3    H236288   0.734   0.704  13.760 -0.8209 -0.8518 -1.9348
 4933TIP3   OH236289   0.956   1.679   0.351  0.3283 -0.1995 -0.3768
 4933TIP3    H136290   0.995   1.739   0.288  0.5186  0.7550  0.6098
 4933TIP3    H236291   0.988   1.593   0.325 -0.1824  0.0624 -1.9999
 4934TIP3   OH236292   4.740   5.310  16.639  0.0603  0.2036  0.4841
 4934TIP3    H136293   4.757   5.380  16.577  3.9404 -1.3804 -0.5548
 4934TIP3    H236294   4.786   5.337  16.719 -0.5030 -0.0979  0.9211
 4935TIP3   OH236295   6.307   0.856   0.977  0.0141 -0.3070  0.3425
 4935TIP3    H136296   6.368   0.813   0.917 -0.3023 -0.3463  0.0430
 4935TIP3    H236297   6.309   0.803   1.056  0.5015 -0.2058  0.3993
 4936TIP3   OH236298   2.741   6.720   0.081  0.9805  0.0833  0.1226
 4936TIP3    H136299   2.709   6.658   0.015  1.2803 -0.4235  0.4485
 4936TIP3    H236300   2.754   6.802   0.032  1.0115 -0.2315 -0.4048
 4937TIP3   OH236301   6.430   1.382   0.885  0.7500 -0.0365 -0.4775
 4937TIP3    H136302   6.413   1.288   0.897  0.7037 -0.0030 -0.2764
 4937TIP3    H236303   6.525   1.388   0.881  0.7877 -0.0060  0.2651
 4938TIP3   OH236304   5.455   3.371  13.066  0.0717  0.8939 -0.3731
 4938TIP3    H136305   5.458   3.322  12.983 -0.9445  0.2825 -0.0612
 4938TIP3    H236306   5.535   3.424  13.065  1.1528 -0.6881 -0.7783
 4939TIP3   OH236307   2.554   5.979   1.167 -0.4440  0.2680  0.2502
 4939TIP3    H136308   2.628   5.953   1.113 -0.6180 -1.1282  0.6498
 4939TIP3    H236309   2.589   6.047   1.225  0.1562  0.5935 -0.4783
 4940TIP3   OH236310   4.543   5.047   5.387  0.2216 -0.2792 -0.3853
 4940TIP3    H136311   4.590   5.060   5.304 -0.1715  0.0309 -0.5620
 4940TIP3    H236312   4.584   5.110   5.447  0.6909 -0.6921 -0.2637
 4941TIP3   OH236313   2.515   3.132  15.280  0.3381 -0.2952 -0.0808
 4941TIP3    H136314   2.491   3.121  15.372 -0.4882  1.5137 -0.0545
 4941TIP3    H236315   2.504   3.225  15.262  1.3113 -0.4568 -1.7994
 4942TIP3   OH236316   4.441   6.462   3.119 -0.4690  0.2836 -0.0736
 4942TIP3    H136317   4.369   6.520   3.093 -1.1822 -0.1537  0.8454
 4942TIP3    H236318   4.409   6.420   3.199  1.0997  0.6153  0.7672
 4943TIP3   OH236319   3.713   3.148   5.872  0.0716 -0.2300 -0.6186
 4943TIP3    H136320   3.633   3.198   5.886  0.5588  0.4610 -0.2477
 4943TIP3    H236321   3.748   3.182   5.790  1.1247  1.0522  0.3202
 4944TIP3   OH236322   5.704   4.439   2.633  0.3377  0.2614 -0.4265
 4944TIP3    H136323   5.624   4.461   2.681  1.2321  3.2379 -0.1287
 4944TIP3    H236324   5.772   4.438   2.701  0.5207 -3.3959 -0.4708
 4945TIP3   OH236325   3.147   0.258  13.444 -0.2147  0.0464  0.3028
 4945TIP3    H136326   3.196   0.231  13.522  3.2527  1.6990 -1.0780
 4945TIP3    H236327   3.160   0.352  13.440 -0.3863  0.0225 -2.1712
 4946TIP3   OH236328   5.484   4.431   2.432  0.0114  0.1925 -0.1764
 4946TIP3    H136329   5.516   4.418   2.343  0.2925 -2.3885  0.2332
 4946TIP3    H236330   5.563   4.432   2.486 -0.2501  0.1172  0.2104
 4947TIP3   OH236331   5.200   4.582   2.210 -0.1176  0.0794  0.5149
 4947TIP3    H136332   5.172   4.615   2.125 -0.2501 -0.2559  0.4302
 4947TIP3    H236333   5.137   4.514   2.232  0.3018 -0.2958  0.5753
 4948TIP3   OH236334   4.730   2.218   4.850  0.2615  0.1106  1.0079
 4948TIP3    H136335   4.758   2.182   4.766  0.8605 -1.0374  1.6769
 4948TIP3    H236336   4.717   2.141   4.906 -2.4158  0.6919  1.3109
 4949TIP3   OH236337   2.299   4.804   4.819  0.0970 -0.0985 -0.3536
 4949TIP3    H136338   2.207   4.814   4.842  0.5486 -0.9884  2.1691
 4949TIP3    H236339   2.338   4.890   4.839  0.1767 -0.3642  0.6844
 4950TIP3   OH236340   5.850   0.058  10.623 -0.3125 -0.2789  0.0459
 4950TIP3    H136341   5.824   0.149  10.636  0.1806 -0.1032 -0.1999
 4950TIP3    H236342   5.773   0.017  10.583 -0.4122  0.1066 -0.1614
 4951TIP3   OH236343   5.100   3.214   1.899  0.2768 -0.1057  0.4342
 4951TIP3    H136344   5.091   3.288   1.840 -1.7618 -2.0638 -1.9220
 4951TIP3    H236345   5.179   3.169   1.870 -0.4222 -0.7633 -0.4831
 4952TIP3   OH236346   1.215   3.568   1.625 -0.1043 -0.1462 -0.7495
 4952TIP3    H136347   1.194   3.619   1.702  0.2068  0.0288 -0.7786
 4952TIP3    H236348   1.309   3.580   1.613 -0.2418  0.2671 -1.4651
 4953TIP3   OH236349   3.997   6.434  12.442 -0.5975 -0.0361  0.2197
 4953TIP3    H136350   4.049   6.366  12.484 -0.8242 -0.4096 -0.1019
 4953TIP3    H236351   3.948   6.389  12.373 -0.5658  0.4883 -0.1572
 4954TIP3   OH236352   4.015   1.967   2.718  0.0839 -0.3746 -0.1690
 4954TIP3    H136353   4.091   1.911   2.703  1.0889  1.2408 -1.4253
 4954TIP3    H236354   3.986   1.993   2.630  0.3194  1.9009  0.3606
 4955TIP3   OH236355   2.177   2.311   3.563 -0.4222  0.5158 -0.5936
 4955TIP3    H136356   2.252   2.264   3.600 -0.1580 -0.4515 -2.2643
 4955TIP3    H236357   2.182   2.398   3.603  1.0119  0.1617  0.0792
 4956TIP3   OH236358   5.343   3.507  11.561 -0.0750 -0.2428 -0.5971
 4956TIP3    H136359   5.321   3.583  11.508  0.5793  1.2460  1.1614
 4956TIP3    H236360   5.400   3.454  11.505  1.9088  2.0471 -0.9391
 4957TIP3   OH236361   6.046   2.059  10.841  0.0453  0.1932  0.0364
 4957TIP3    H136362   5.980   2.042  10.774 -1.3904  1.0241  1.1968
 4957TIP3    H236363   6.130   2.043  10.796 -0.8720  0.3483 -1.8373
 4958TIP3   OH236364   4.219   6.810   3.960 -0.4323 -0.4247 -0.4470
 4958TIP3    H136365   4.307   6.778   3.945 -0.8779 -0.4687 -3.7870
 4958TIP3    H236366   4.172   6.736   3.999  0.4747 -1.0842 -0.5928
 4959TIP3   OH236367   5.261   5.535   3.098 -0.2581 -0.1108  0.3652
 4959TIP3    H136368   5.321   5.535   3.023  0.3373 -0.0291  0.8389
 4959TIP3    H236369   5.209   5.615   3.087 -0.8337 -0.5784 -0.4733
 4960TIP3   OH236370   5.218   5.894  15.746 -0.3019  0.0279 -0.4796
 4960TIP3    H136371   5.252   5.875  15.658  0.0759  0.0139 -0.3314
 4960TIP3    H236372   5.256   5.827  15.802  0.5401  0.8312 -0.0689
 4961TIP3   OH236373   6.704   4.058   2.891 -0.0283 -0.3683 -0.0767
 4961TIP3    H136374   6.629   3.999   2.897 -0.6648  0.5201  1.2761
 4961TIP3    H236375   6.734   4.067   2.981  0.6285  0.6340 -0.3839
 4962TIP3   OH236376   4.671   3.788  12.921  0.1769 -0.1571  0.1876
 4962TIP3    H136377   4.664   3.752  13.009 -1.6698  0.2231  0.2199
 4962TIP3    H236378   4.765   3.785  12.902  0.8017  1.0200  2.6830
 4963TIP3   OH236379   1.895   5.989   5.484  0.2047 -0.8701 -0.0177
 4963TIP3    H136380   1.894   5.917   5.547 -0.3814 -0.4006  0.5267
 4963TIP3    H236381   1.845   6.058   5.527  0.3036 -0.3333 -0.7596
 4964TIP3   OH236382   5.974   3.645  10.918 -0.3014  0.1188 -0.2501
 4964TIP3    H136383   5.947   3.580  10.853 -0.4375 -2.7456  2.4879
 4964TIP3    H236384   5.893   3.670  10.962  0.1440 -0.2208  0.7757
 4965TIP3   OH236385   0.019   3.156   3.125  0.4076  0.4216 -0.1286
 4965TIP3    H136386  -0.062   3.155   3.176 -0.8474  0.2802 -2.0398
 4965TIP3    H236387   0.012   3.082   3.065  2.0966  0.2437 -0.1776
 4966TIP3   OH236388   0.477   2.156   2.223 -0.0359 -0.6106  0.1981
 4966TIP3    H136389   0.385   2.160   2.195 -0.1982 -0.3276  0.7415
 4966TIP3    H236390   0.497   2.063   2.226  0.2675 -0.6387 -1.6961
 4967TIP3   OH236391   6.072   6.135   5.310 -0.5123  0.1684  0.8944
 4967TIP3    H136392   6.063   6.219   5.353 -0.4952  2.2982 -2.8360
 4967TIP3    H236393   6.164   6.132   5.282 -0.0567 -1.9344  2.3663
 4968TIP3   OH236394   0.298   0.166  15.718 -0.2670 -0.0144  0.2437
 4968TIP3    H136395   0.340   0.238  15.670  0.3741 -0.5537 -0.0196
 4968TIP3    H236396   0.223   0.142  15.664  0.0744 -0.1830 -0.1600
 4969TIP3   OH236397   2.624   1.870  15.901  0.0882 -0.3930  0.8790
 4969TIP3    H136398   2.650   1.962  15.908  1.3384 -0.4479 -1.8299
 4969TIP3    H236399   2.574   1.853  15.981 -0.7149  2.7889  1.1745
 4970TIP3   OH236400   2.349   5.086  15.969  0.3504 -0.7956  0.1217
 4970TIP3    H136401   2.364   5.041  15.887  1.7540  0.2577 -0.2375
 4970TIP3    H236402   2.270   5.045  16.005 -1.3182 -0.1506 -2.5333
 4971TIP3   OH236403   3.106   4.598   1.425  0.1353 -0.0267 -0.3646
 4971TIP3    H136404   3.067   4.524   1.471  0.5166  0.9388  1.6043
 4971TIP3    H236405   3.161   4.641   1.490  1.2835  1.0130 -1.9404
 4972TIP3   OH236406   4.992   2.848   4.090  0.0725  0.5395  0.3533
 4972TIP3    H136407   4.969   2.804   4.173 -0.9484 -1.5705 -0.9629
 4972TIP3    H236408   5.086   2.836   4.082 -0.0192 -0.4388  0.5845
 4973TIP3   OH236409   6.553   0.733   3.793 -0.1094 -0.4997 -0.5014
 4973TIP3    H136410   6.648   0.726   3.785  0.0511 -0.2862  0.9847
 4973TIP3    H236411   6.524   0.767   3.708  0.9293 -2.2655 -1.6156
 4974TIP3   OH236412   4.447   2.204  14.254 -0.0907 -0.1299 -0.5895
 4974TIP3    H136413   4.389   2.143  14.209 -2.4797  2.4081 -1.2492
 4974TIP3    H236414   4.535   2.178  14.227 -0.9874 -3.0051 -1.0731
 4975TIP3   OH236415   3.797   5.453   0.145 -0.3649  0.2056  0.2895
 4975TIP3    H136416   3.883   5.492   0.129 -0.5053  1.0075  1.3920
 4975TIP3    H236417   3.804   5.364   0.112  0.4582  0.6732 -0.8692
 4976TIP3   OH236418   6.789   5.024   0.626  0.1272  0.0806 -0.0628
 4976TIP3    H136419   6.780   5.076   0.706 -0.2490 -0.9391  0.5684
 4976TIP3    H236420   6.816   5.088   0.559  0.7814  0.8856  0.9373
 4977TIP3   OH236421   1.415   0.544  12.620  0.0990  0.2069 -0.0585
 4977TIP3    H136422   1.505   0.546  12.587 -0.0963  0.6531 -0.5940
 4977TIP3    H236423   1.419   0.490  12.698  0.6642 -0.5368 -0.5854
 4978TIP3   OH236424   6.218   4.562  13.175 -0.1076 -0.3574 -0.2828
 4978TIP3    H136425   6.264   4.560  13.091 -0.2436  0.1357 -0.3689
 4978TIP3    H236426   6.158   4.636  13.168  1.3219  0.9692  1.0220
 4979TIP3   OH236427   5.091   3.690  14.188 -0.6810  0.0823 -0.1484
 4979TIP3    H136428   5.179   3.724  14.200 -0.8470  1.1437 -1.6706
 4979TIP3    H236429   5.051   3.695  14.276  0.9734 -1.1650  0.7268
 4980TIP3   OH236430   1.295   4.279   1.727  0.1691 -0.1365  0.6788
 4980TIP3    H136431   1.383   4.293   1.762  0.5618  1.4778 -0.8369
 4980TIP3    H236432   1.237   4.290   1.802  1.1017  1.3879  1.2103
 4981TIP3   OH236433   1.869   0.722  14.072 -0.6604  0.6719 -0.0798
 4981TIP3    H136434   1.957   0.751  14.097 -0.8147 -0.5512  2.1674
 4981TIP3    H236435   1.876   0.627  14.065 -2.1370  0.3314  2.0052
 4982TIP3   OH236436   2.891   5.341   3.536  0.3761 -0.7656 -0.0328
 4982TIP3    H136437   2.807   5.351   3.491  0.0606  2.2848  1.0143
 4982TIP3    H236438   2.877   5.267   3.595 -1.5247 -0.4933 -0.0571
 4983TIP3   OH236439   0.312   3.169   5.968  0.4046  0.4212  0.6930
 4983TIP3    H136440   0.374   3.202   6.033 -0.6285  0.4359  1.6970
 4983TIP3    H236441   0.289   3.245   5.916 -0.3831  0.8883  1.6824
 4984TIP3   OH236442   3.171   5.715  13.731  0.2889  0.0760 -0.3373
 4984TIP3    H136443   3.095   5.764  13.699  0.8535  0.7731 -0.6140
 4984TIP3    H236444   3.246   5.771  13.714  0.6511  0.4576  2.1054
 4985TIP3   OH236445   3.346   6.599   3.495 -0.2974  0.1338 -0.3358
 4985TIP3    H136446   3.371   6.576   3.406 -1.5221 -0.5580 -0.5135
 4985TIP3    H236447   3.286   6.673   3.485 -1.7219 -0.9719 -0.2147
 4986TIP3   OH236448   4.270   0.851  11.292 -0.3857 -0.3634  0.0515
 4986TIP3    H136449   4.189   0.803  11.310 -0.0995 -0.3472  1.5186
 4986TIP3    H236450   4.333   0.783  11.269  0.1555 -0.8408  2.6201
 4987TIP3   OH236451   5.039   0.446  14.863  0.4677 -0.2558 -0.1290
 4987TIP3    H136452   5.120   0.446  14.810  0.2428 -0.0174 -0.4811
 4987TIP3    H236453   4.975   0.402  14.808  0.0347  0.6496 -0.3818
 4988TIP3   OH236454   2.983   0.058   4.004  0.2602  0.0819  0.2422
 4988TIP3    H136455   2.988   0.094   4.092 -2.5052 -1.4501  1.1279
 4988TIP3    H236456   2.909   0.102   3.964  0.8271 -0.0153 -0.9661
 4989TIP3   OH236457   5.309   4.803   4.679 -0.0825 -0.1914 -0.3027
 4989TIP3    H136458   5.343   4.759   4.757 -2.0802 -1.9494 -0.3380
 4989TIP3    H236459   5.286   4.891   4.709  4.5560  1.2769 -0.3546
 4990TIP3   OH236460   2.949   4.393  12.491  0.6333 -0.4042  0.7514
 4990TIP3    H136461   2.871   4.403  12.436  0.5292  0.9265  1.0932
 4990TIP3    H236462   3.004   4.330  12.445 -0.0008 -0.2445 -0.2490
 4991TIP3   OH236463   3.738   4.754   3.405  0.7074  0.1918  0.1003
 4991TIP3    H136464   3.737   4.779   3.313 -0.1723 -1.0266 -0.2421
 4991TIP3    H236465   3.810   4.805   3.443  2.2011 -0.5442 -1.6149
 4992TIP3   OH236466   6.663   4.670   0.718 -0.1476  0.5340  0.1191
 4992TIP3    H136467   6.602   4.664   0.645  0.6282  1.0687 -0.5981
 4992TIP3    H236468   6.679   4.764   0.729 -0.0370  0.4426  0.7883
 4993TIP3   OH236469   6.660   2.125  14.721  0.0047 -0.6622 -0.2114
 4993TIP3    H136470   6.637   2.032  14.729 -0.7923 -0.4355  0.2722
 4993TIP3    H236471   6.753   2.125  14.698  1.0197 -1.5106  3.3634
 4994TIP3   OH236472   2.251   1.722   2.159  0.5424 -0.0227 -0.0781
 4994TIP3    H136473   2.326   1.665   2.139 -0.3079 -1.5025  0.7714
 4994TIP3    H236474   2.230   1.703   2.250  0.2265  1.7145  0.2454
 4995TIP3   OH236475   1.253   5.686  14.271 -0.1145  0.4801 -0.1930
 4995TIP3    H136476   1.218   5.665  14.358  0.1071 -0.5449 -0.3330
 4995TIP3    H236477   1.294   5.772  14.282 -1.8679  1.3130  0.1931
 4996TIP3   OH236478   5.944   2.977  11.914  0.0145 -0.5192 -0.0517
 4996TIP3    H136479   5.940   3.072  11.897  0.9682 -0.0268  2.1928
 4996TIP3    H236480   6.034   2.953  11.896 -0.6504 -1.4870 -2.5355
 4997TIP3   OH236481   6.744   5.973  11.530  0.2333  0.1387 -0.3772
 4997TIP3    H136482   6.820   6.031  11.524 -0.5698  1.3429  0.5270
 4997TIP3    H236483   6.712   5.965  11.440 -0.9860  3.0315 -0.3020
 4998TIP3   OH236484   4.164   3.359   1.186  0.2577  0.1533  0.3266
 4998TIP3    H136485   4.208   3.284   1.225  0.5859 -0.2119 -0.7216
 4998TIP3    H236486   4.217   3.434   1.213 -2.2796  0.6489  4.8740
 4999TIP3   OH236487   1.456   5.918   1.723 -0.2578  0.4648 -0.0371
 4999TIP3    H136488   1.366   5.930   1.693  0.0898  2.6306 -0.3758
 4999TIP3    H236489   1.508   5.970   1.662  1.2099 -0.5136  0.3391
 5000TIP3   OH236490   5.862   6.519   0.362  0.2803 -1.1592  0.0134
 5000TIP3    H136491   5.931   6.565   0.410 -0.5904 -1.7933  1.9995
 5000TIP3    H236492   5.906   6.447   0.318  1.4997  0.8165 -2.2599
 5001TIP3   OH236493   4.054   0.836   4.294  0.2129 -0.0647 -0.1244
 5001TIP3    H136494   3.976   0.877   4.256  0.4504  0.9098  0.4081
 5001TIP3    H236495   4.127   0.893   4.268  0.7635 -0.9437 -0.5895
 5002TIP3   OH236496   4.776   2.667  16.808 -0.1019  0.8482 -0.3929
 5002TIP3    H136497   4.791   2.762  16.798 -0.0730  0.9119  0.2292
 5002TIP3    H236498   4.695   2.661  16.858 -0.4384  0.5326 -0.9703
 5003TIP3   OH236499   1.817   3.149  16.977  0.3636  0.0473  0.1306
 5003TIP3    H136500   1.879   3.165  17.049  0.8737  0.0089 -0.2942
 5003TIP3    H236501   1.752   3.219  16.986 -0.5029 -0.8842  1.6028
 5004TIP3   OH236502   2.135   4.478   2.341 -0.2882 -0.2465 -0.7990
 5004TIP3    H136503   2.193   4.402   2.331 -0.6082 -0.6872  0.4991
 5004TIP3    H236504   2.086   4.460   2.421 -2.0395  0.2294 -1.7028
 5005TIP3   OH236505   3.806   5.438   2.524  0.2134  0.5221  0.2402
 5005TIP3    H136506   3.735   5.377   2.543  2.1323 -1.7788  0.4413
 5005TIP3    H236507   3.772   5.493   2.453 -1.1623 -1.6303 -0.8650
 5006TIP3   OH236508   3.129   0.610   5.248  0.2678 -0.1945  0.3209
 5006TIP3    H136509   3.139   0.533   5.303  1.6872 -0.3043 -0.0413
 5006TIP3    H236510   3.052   0.592   5.194 -0.8594 -0.2868  1.8901
 5007TIP3   OH236511   3.574   5.045  16.733 -0.4732 -0.0444  0.3940
 5007TIP3    H136512   3.485   5.021  16.706 -0.1980 -0.6881  0.0385
 5007TIP3    H236513   3.616   4.962  16.755 -0.5362  0.4166  2.4092
 5008TIP3   OH236514   6.665   1.264   3.345  0.2604 -0.0004  0.5275
 5008TIP3    H136515   6.635   1.267   3.254 -1.7012 -0.5900  1.1031
 5008TIP3    H236516   6.734   1.197   3.345  0.6629  0.3967 -0.6070
 5009TIP3   OH236517   2.807   0.786  10.365  0.1921  0.2738  0.4719
 5009TIP3    H136518   2.743   0.828  10.307 -0.8996 -0.2211  1.2798
 5009TIP3    H236519   2.886   0.778  10.311 -0.3561  1.0761 -0.4911
 5010TIP3   OH236520   0.469   4.488  16.295 -0.3854 -0.2550 -0.3451
 5010TIP3    H136521   0.428   4.438  16.366  1.4514 -0.7616  0.4114
 5010TIP3    H236522   0.543   4.435  16.268  0.4368  1.1279 -0.9030
 5011TIP3   OH236523   1.056   6.797   4.441  0.0332 -0.0212 -0.7224
 5011TIP3    H136524   1.004   6.844   4.507 -1.3988 -2.4351 -0.0094
 5011TIP3    H236525   1.132   6.764   4.490  0.4237  0.4942 -0.9612
 5012TIP3   OH236526   0.661   3.871  17.011 -0.0650 -0.3142 -0.2955
 5012TIP3    H136527   0.742   3.892  16.966 -0.5803  0.1215 -1.0437
 5012TIP3    H236528   0.688   3.820  17.087  1.2209  2.4857  1.2985
 5013TIP3   OH236529   6.521   0.988  15.414 -0.0484  0.0588  0.4341
 5013TIP3    H136530   6.548   1.008  15.503  0.5404  0.6495  0.1308
 5013TIP3    H236531   6.518   1.073  15.370  0.1424 -0.2714 -0.2385
 5014TIP3   OH236532   3.474   3.818  13.776  0.1715  0.0860  0.7096
 5014TIP3    H136533   3.474   3.755  13.704 -0.8244 -0.4081  1.1130
 5014TIP3    H236534   3.528   3.891  13.745 -1.0280  0.3357 -0.9399
 5015TIP3   OH236535   6.101   4.897  12.073  0.1432 -0.4134  0.0498
 5015TIP3    H136536   6.109   4.849  12.155  1.5861 -0.7480 -0.2594
 5015TIP3    H236537   6.176   4.956  12.072  0.0823 -0.3315 -0.9771
 5016TIP3   OH236538   0.113   2.769  14.639 -0.6508 -0.4422  0.0496
 5016TIP3    H136539   0.020   2.769  14.615 -0.9018 -2.4354  0.8090
 5016TIP3    H236540   0.127   2.854  14.679 -2.9137 -1.0726  2.4790
 5017TIP3   OH236541   6.125   3.954   4.552 -0.3432 -0.2682  0.1588
 5017TIP3    H136542   6.162   4.029   4.507 -1.0385 -1.2244 -2.1266
 5017TIP3    H236543   6.196   3.889   4.555  0.0517  0.1886  1.5345
 5018TIP3   OH236544   4.562   4.230   0.532  0.1136 -0.1954 -0.9262
 5018TIP3    H136545   4.514   4.312   0.546  0.3260 -0.3537  0.9170
 5018TIP3    H236546   4.553   4.214   0.438 -1.6221  0.8888 -1.0038
 5019TIP3   OH236547   2.716   3.019  15.137  0.2809  0.1239 -0.1099
 5019TIP3    H136548   2.753   3.094  15.091 -1.0598 -0.7856 -2.9167
 5019TIP3    H236549   2.638   3.054  15.181  0.6369  0.6996  0.0708
 5020TIP3   OH236550   5.491   2.869  15.803 -0.3812  0.4578  0.8380
 5020TIP3    H136551   5.423   2.814  15.764 -1.8181  2.1108  0.8676
 5020TIP3    H236552   5.558   2.876  15.735 -0.1722 -1.2475  0.8288
 5021TIP3   OH236553   4.231   5.918   2.278  0.0676 -0.2968  0.1923
 5021TIP3    H136554   4.217   5.825   2.260 -1.9674  0.0229 -0.1389
 5021TIP3    H236555   4.177   5.935   2.356 -1.5061  1.0576 -1.1227
 5022TIP3   OH236556   5.650   1.918   5.596 -0.2773  0.0599 -0.3291
 5022TIP3    H136557   5.601   1.977   5.539  0.9053  0.8236 -0.5792
 5022TIP3    H236558   5.703   1.975   5.651  0.3235 -0.7461 -0.0484
 5023TIP3   OH236559   6.463   4.908   3.800 -0.4182  0.4867  0.4298
 5023TIP3    H136560   6.536   4.949   3.846 -0.1294  0.5670 -0.1008
 5023TIP3    H236561   6.429   4.977   3.742 -0.2035  0.1146 -0.1485
 5024TIP3   OH236562   6.149   0.996   3.564  0.3106 -0.1232 -0.2651
 5024TIP3    H136563   6.206   1.073   3.557  1.0401 -0.6890 -0.6904
 5024TIP3    H236564   6.075   1.015   3.507  1.1192 -0.2618 -1.3989
 5025TIP3   OH236565   0.264   1.030  15.543 -0.0107  0.6448 -0.1151
 5025TIP3    H136566   0.327   1.072  15.601 -0.1365 -0.9017  1.2310
 5025TIP3    H236567   0.199   1.097  15.524  0.9657  1.6792  0.1211
 5026TIP3   OH236568   4.224   1.943   2.099 -0.0440  0.5884  0.0486
 5026TIP3    H136569   4.183   2.029   2.096  2.2001  1.8133  1.4167
 5026TIP3    H236570   4.221   1.918   2.192  0.0040 -0.4576 -0.2189
 5027TIP3   OH236571   1.272   0.692   4.494 -0.8940  1.2608  0.6841
 5027TIP3    H136572   1.260   0.766   4.434 -1.4400  0.3290 -0.3973
 5027TIP3    H236573   1.269   0.730   4.581 -2.5572  2.3302  0.1848
 5028TIP3   OH236574   1.545   4.785  12.066 -0.3019 -0.1723  0.1096
 5028TIP3    H136575   1.469   4.809  12.013  0.7432 -1.0688 -1.9031
 5028TIP3    H236576   1.544   4.690  12.067  0.4921 -0.1814  0.5232
 5029TIP3   OH236577   6.315   4.050  13.301 -0.3354  0.2373  0.4047
 5029TIP3    H136578   6.332   4.114  13.231  1.5709 -1.0024 -0.3615
 5029TIP3    H236579   6.399   4.040  13.345 -1.0253 -0.4795  1.6048
 5030TIP3   OH236580   1.314   2.166   1.073  0.4516  0.4792 -0.3987
 5030TIP3    H136581   1.330   2.131   1.160 -1.3689 -2.4431 -1.1039
 5030TIP3    H236582   1.377   2.121   1.017  0.4923  1.0727 -0.8477
 5031TIP3   OH236583   3.114   3.494   3.172  0.0027 -0.0096 -0.1898
 5031TIP3    H136584   3.036   3.546   3.186  0.7443  0.9968  0.3034
 5031TIP3    H236585   3.109   3.424   3.237  0.9781  1.7994  1.9701
 5032TIP3   OH236586   0.727   2.332  13.896 -0.1660 -0.1189 -0.2026
 5032TIP3    H136587   0.773   2.402  13.944 -0.2137 -0.3651  0.2100
 5032TIP3    H236588   0.796   2.277  13.861 -0.1331 -1.0767  1.2909
 5033TIP3   OH236589   6.182   5.194   2.509 -0.2156  0.5473  1.3558
 5033TIP3    H136590   6.187   5.100   2.527 -1.6499  0.5875  2.0895
 5033TIP3    H236591   6.236   5.234   2.576  2.2404  0.1848 -0.2559
 5034TIP3   OH236592   3.708   5.423  15.143 -0.2880 -0.2981  0.1070
 5034TIP3    H136593   3.680   5.509  15.114 -0.2298 -0.3315 -0.0513
 5034TIP3    H236594   3.670   5.362  15.080 -1.3830 -0.4999  0.9367
 5035TIP3   OH236595   5.102   2.640   2.662 -0.3391  0.4345 -0.3070
 5035TIP3    H136596   5.147   2.704   2.606 -0.5238  0.8506  0.0161
 5035TIP3    H236597   5.012   2.672   2.668 -0.5421 -0.0953 -0.4995
 5036TIP3   OH236598   2.123   3.784   1.234 -0.3841  0.3880  0.8526
 5036TIP3    H136599   2.071   3.757   1.310  0.3957  1.3870  1.7713
 5036TIP3    H236600   2.059   3.817   1.172 -1.2743 -2.4600  0.1042
 5037TIP3   OH236601   3.758   2.065  11.859  0.1617 -0.4046 -0.1582
 5037TIP3    H136602   3.808   2.002  11.807  1.1152  0.3098 -0.1441
 5037TIP3    H236603   3.676   2.077  11.812  0.6925 -0.3546 -1.0872
 5038TIP3   OH236604   2.457   4.544  13.276 -0.3745  0.0686 -0.0936
 5038TIP3    H136605   2.506   4.622  13.301  0.5049 -0.7707  0.9001
 5038TIP3    H236606   2.371   4.556  13.316 -0.2797  0.5665 -0.0369
 5039TIP3   OH236607   0.602   5.177  13.472 -0.0926 -0.3739  0.1833
 5039TIP3    H136608   0.564   5.261  13.447 -0.3772 -0.4419  0.3804
 5039TIP3    H236609   0.631   5.190  13.562 -0.4934 -0.6024  0.3498
 5040TIP3   OH236610   0.577   5.383  14.993  0.0111 -0.6048  0.2575
 5040TIP3    H136611   0.550   5.458  14.939 -0.4879 -0.9804 -0.0195
 5040TIP3    H236612   0.497   5.332  15.006  0.5625 -1.7101 -0.5335
 5041TIP3   OH236613   6.335   6.014   0.216  0.2145 -0.0443 -0.5161
 5041TIP3    H136614   6.310   5.986   0.304  1.3620  1.4365  0.3247
 5041TIP3    H236615   6.380   5.938   0.180 -1.0347 -0.9805 -0.1867
 5042TIP3   OH236616   2.055   0.367   0.115  0.3522  0.3853 -0.3861
 5042TIP3    H136617   2.058   0.279   0.078 -0.4458  0.1100  0.1667
 5042TIP3    H236618   2.082   0.424   0.044  1.0283 -0.3178 -0.7059
 5043TIP3   OH236619   1.765   3.389   1.949 -0.3623  0.5569 -0.0921
 5043TIP3    H136620   1.758   3.484   1.934 -2.6615  0.2667 -1.3888
 5043TIP3    H236621   1.812   3.357   1.872  0.9780  0.6747  0.6505
 5044TIP3   OH236622   2.266   0.931  13.857  0.4753  0.0217 -0.4282
 5044TIP3    H136623   2.238   0.955  13.769  0.2757 -0.5019 -0.5131
 5044TIP3    H236624   2.362   0.932  13.854  0.4942 -1.5243 -1.0947
 5045TIP3   OH236625   3.226   0.544   1.286  0.0817 -0.5355  0.1680
 5045TIP3    H136626   3.202   0.452   1.272  2.1202 -1.2170  0.8586
 5045TIP3    H236627   3.166   0.574   1.354  0.8790 -2.0532  1.5922
 5046TIP3   OH236628   0.224   2.941  13.049  0.0750 -0.6907  0.2772
 5046TIP3    H136629   0.170   3.020  13.050 -0.0050 -0.7426  0.1361
 5046TIP3    H236630   0.231   2.915  13.141  2.4017  1.0387  0.6869
 5047TIP3   OH236631   5.165   5.598   0.904  0.1654  0.4163 -0.0071
 5047TIP3    H136632   5.163   5.675   0.847  0.9911 -0.7172 -1.6381
 5047TIP3    H236633   5.240   5.612   0.962  0.0538  1.0152  0.0013
 5048TIP3   OH236634   0.174   4.452   4.859 -0.3077 -0.3676  0.0601
 5048TIP3    H136635   0.098   4.395   4.865 -0.7996  0.3314  0.6594
 5048TIP3    H236636   0.139   4.538   4.836  0.4119 -0.2657 -0.7297
 5049TIP3   OH236637   5.072   0.967  15.692 -0.1294  0.2131  0.2906
 5049TIP3    H136638   5.141   0.906  15.666  0.1588  0.5246  0.3086
 5049TIP3    H236639   5.119   1.048  15.713 -0.5644  0.6960 -0.5056
 5050TIP3   OH236640   6.061   4.999  16.258  0.0330 -0.4357  0.2658
 5050TIP3    H136641   6.048   5.094  16.264 -1.6586 -0.4752 -1.7730
 5050TIP3    H236642   6.135   4.982  16.317  1.2822  2.3251 -0.3259
 5051TIP3   OH236643   5.334   2.077   2.476  0.0033 -0.1280 -0.8533
 5051TIP3    H136644   5.355   2.095   2.568  1.8865 -1.1996 -1.0167
 5051TIP3    H236645   5.263   2.013   2.480 -2.2930  2.2794 -0.2402
 5052TIP3   OH236646   4.475   5.802  14.280  0.3261 -0.2635 -0.5490
 5052TIP3    H136647   4.419   5.732  14.246  1.0095 -0.5294 -1.1398
 5052TIP3    H236648   4.564   5.772  14.264  0.6525  0.0199  0.6711
 5053TIP3   OH236649   0.117   4.259  16.015  0.0139 -0.1146  0.0485
 5053TIP3    H136650   0.126   4.337  15.959 -1.4867  2.2553  2.7879
 5053TIP3    H236651   0.043   4.211  15.978  1.0730 -0.4085 -1.7990
 5054TIP3   OH236652   4.842   4.851  11.403  0.9904 -0.1523 -0.1088
 5054TIP3    H136653   4.793   4.848  11.486 -0.2692  0.5786 -0.7975
 5054TIP3    H236654   4.925   4.893  11.425  1.4848 -1.6720  1.1508
 5055TIP3   OH236655   3.123   5.105  11.973  0.1656 -0.2875  0.1190
 5055TIP3    H136656   3.127   5.196  12.001  0.3303  0.0397 -0.9009
 5055TIP3    H236657   3.214   5.075  11.975  0.4037  0.2232 -1.5111
 5056TIP3   OH236658   0.700   4.740   0.317 -0.2954  0.0383 -0.5691
 5056TIP3    H136659   0.655   4.785   0.246 -0.4184  2.4297  0.9042
 5056TIP3    H236660   0.774   4.797   0.339  0.8990 -1.6233 -0.0464
 5057TIP3   OH236661   4.750   3.220  15.744 -0.7926  0.2690  0.3430
 5057TIP3    H136662   4.771   3.308  15.776  4.3071 -0.6636  0.3881
 5057TIP3    H236663   4.738   3.168  15.823 -0.5667  0.3383  0.4253
 5058TIP3   OH236664   1.819   4.036   5.052  0.4458  0.3042  0.4984
 5058TIP3    H136665   1.806   3.962   5.111  0.9741 -0.5567 -0.4353
 5058TIP3    H236666   1.810   3.998   4.964  0.2119  1.4488  0.0141
 5059TIP3   OH236667   1.148   1.937   1.499 -0.2457 -0.0235 -0.1690
 5059TIP3    H136668   1.053   1.948   1.506 -0.2125 -0.6930  2.1768
 5059TIP3    H236669   1.158   1.855   1.451 -0.9572 -1.1152  1.4529
 5060TIP3   OH236670   1.900   4.072  11.926  0.0731 -0.3461  0.5178
 5060TIP3    H136671   1.961   4.127  11.977  1.3188 -1.3690  0.1702
 5060TIP3    H236672   1.946   3.989  11.915 -0.8167 -0.6677 -0.9741
 5061TIP3   OH236673   3.241   0.534  16.443  0.8134 -0.0817  0.0641
 5061TIP3    H136674   3.170   0.531  16.507  1.3772 -0.6732  0.6775
 5061TIP3    H236675   3.279   0.621  16.455 -0.1872  0.4858 -0.7121
 5062TIP3   OH236676   2.790   2.191   0.573 -0.2970  0.3418 -0.3901
 5062TIP3    H136677   2.854   2.130   0.535 -1.2590  0.9149 -3.1459
 5062TIP3    H236678   2.838   2.236   0.642  0.7443 -2.7530  1.0950
 5063TIP3   OH236679   4.372   4.160   5.310  0.7322  0.1652 -0.2110
 5063TIP3    H136680   4.403   4.117   5.230  0.8526 -0.1983  0.0267
 5063TIP3    H236681   4.285   4.192   5.287  0.3915 -0.7217 -0.2298
 5064TIP3   OH236682   2.131   1.309  14.664  0.3361  0.1759 -0.3219
 5064TIP3    H136683   2.045   1.310  14.706  0.9292  1.8768  0.9719
 5064TIP3    H236684   2.121   1.363  14.586  0.1879  0.2047 -0.2817
 5065TIP3   OH236685   4.124   3.278  14.945  0.5373 -0.5456 -0.1489
 5065TIP3    H136686   4.165   3.197  14.976 -2.7303 -2.2064  0.3251
 5065TIP3    H236687   4.085   3.317  15.024 -0.3551 -0.0794 -0.7935
 5066TIP3   OH236688   4.318   6.774   0.997  0.2588 -0.0684 -0.4261
 5066TIP3    H136689   4.317   6.684   1.032  0.7714  0.3972  0.8583
 5066TIP3    H236690   4.398   6.812   1.033 -0.7968  1.4251  0.4632
 5067TIP3   OH236691   0.115   2.238   4.461 -0.0827  0.5242  0.3825
 5067TIP3    H136692   0.203   2.212   4.434  0.2757  2.2795 -0.2455
 5067TIP3    H236693   0.107   2.205   4.550  1.4685  0.8768  0.6899
 5068TIP3   OH236694   0.696   3.691  15.671 -0.3486 -0.0045  0.0836
 5068TIP3    H136695   0.679   3.610  15.718 -0.5978 -0.1022 -0.1714
 5068TIP3    H236696   0.680   3.760  15.736  2.3999 -0.2037  1.0936
 5069TIP3   OH236697   6.811   2.172  13.739  0.1434  0.9825 -0.1942
 5069TIP3    H136698   6.770   2.182  13.825 -1.1258 -1.2995 -0.4618
 5069TIP3    H236699   6.884   2.111  13.754  2.0801  3.1684 -0.1778
 5070TIP3   OH236700   4.605   0.462  14.465  0.0823  0.1060 -0.3041
 5070TIP3    H136701   4.533   0.514  14.428 -0.2134 -0.6980 -0.8909
 5070TIP3    H236702   4.651   0.523  14.523 -1.0177  0.6649  0.0219
 5071TIP3   OH236703   3.064   6.326  15.009 -0.8955  0.2622 -0.4015
 5071TIP3    H136704   3.123   6.396  14.982 -2.5335  2.2685  0.8865
 5071TIP3    H236705   3.010   6.309  14.932  0.5098 -0.7539 -1.2090
 5072TIP3   OH236706   3.726   1.857   6.661 -0.1890 -0.0564  0.4505
 5072TIP3    H136707   3.755   1.771   6.630 -0.7065  0.4877 -1.7659
 5072TIP3    H236708   3.800   1.892   6.710  0.9090 -0.8389 -0.5856
 5073TIP3   OH236709   2.029   2.019  15.788  0.3691  0.9049  0.5790
 5073TIP3    H136710   2.116   1.988  15.813  0.2693  0.5021  0.4237
 5073TIP3    H236711   2.001   2.072  15.863  1.0081  1.5635  0.3643
 5074TIP3   OH236712   2.453   2.594   5.446 -0.2154  0.2159 -0.5284
 5074TIP3    H136713   2.388   2.660   5.421 -1.0793  0.4199  2.0359
 5074TIP3    H236714   2.406   2.535   5.505  1.7620  0.0134  0.9265
 5075TIP3   OH236715   1.852   1.209   6.217  0.1188  0.2437 -0.3761
 5075TIP3    H136716   1.768   1.213   6.263  0.3441  0.7130 -0.0046
 5075TIP3    H236717   1.838   1.260   6.137  0.1420  0.5860 -0.1643
 5076TIP3   OH236718   3.386   6.370   2.804  0.0997  0.0604 -0.2817
 5076TIP3    H136719   3.338   6.294   2.836 -1.1904  0.3355 -1.5024
 5076TIP3    H236720   3.410   6.348   2.714  1.6578  0.2293  0.0666
 5077TIP3   OH236721   4.996   5.541  11.834 -0.5275  0.4593  0.2106
 5077TIP3    H136722   4.924   5.599  11.810 -1.8964 -0.7787  1.1471
 5077TIP3    H236723   4.980   5.519  11.926  0.8355 -0.1459  0.3315
 5078TIP3   OH236724   5.753   6.797   5.474  0.1953  0.0343 -0.3207
 5078TIP3    H136725   5.701   6.856   5.419 -0.9391 -0.3821  0.2860
 5078TIP3    H236726   5.689   6.752   5.529  1.0739 -1.5019 -0.5044
 5079TIP3   OH236727   2.383   3.571   5.677  0.7045  0.1801  0.1198
 5079TIP3    H136728   2.315   3.530   5.732 -0.3939 -1.0652 -2.0313
 5079TIP3    H236729   2.334   3.610   5.605  2.2319 -0.2848 -1.2125
 5080TIP3   OH236730   3.129   5.213  16.617 -0.3700 -0.2320  0.2264
 5080TIP3    H136731   3.107   5.259  16.536 -0.7418 -0.3974  0.2346
 5080TIP3    H236732   3.108   5.275  16.686  2.6819  1.0803  0.1297
 5081TIP3   OH236733   3.922   4.257   4.741 -0.2614  0.2929 -0.2382
 5081TIP3    H136734   4.004   4.226   4.780 -0.2489  0.7539  0.1113
 5081TIP3    H236735   3.867   4.280   4.816 -0.9395 -0.5617 -0.4511
 5082TIP3   OH236736   0.766   6.200  11.839  0.0731 -0.1452 -0.0474
 5082TIP3    H136737   0.714   6.170  11.914 -0.9356  0.0519 -0.6472
 5082TIP3    H236738   0.850   6.157  11.850  0.6913  1.4184  2.2950
 5083TIP3   OH236739   4.911   5.071   5.712  0.0726 -0.0128 -0.5249
 5083TIP3    H136740   4.935   4.978   5.701 -0.1163 -0.0640 -0.5081
 5083TIP3    H236741   4.995   5.117   5.716  0.3028 -0.4871  2.3125
 5084TIP3   OH236742   5.930   5.247   3.996  0.9763 -0.2811 -0.0038
 5084TIP3    H136743   5.849   5.269   4.042  1.1518 -1.7515  1.1021
 5084TIP3    H236744   5.971   5.180   4.051  3.2469  0.8430 -0.2328
 5085TIP3   OH236745   2.540   5.510  14.241 -0.2037 -0.2376 -0.0480
 5085TIP3    H136746   2.473   5.550  14.186  0.8967  0.1081 -1.2064
 5085TIP3    H236747   2.492   5.451  14.299 -1.4551 -0.3405 -1.1407
 5086TIP3   OH236748   1.150   5.402  11.763  0.5010  0.0135  0.1910
 5086TIP3    H136749   1.105   5.322  11.792  0.3829 -0.2486 -0.6881
 5086TIP3    H236750   1.120   5.415  11.674  1.3604  0.4294 -0.0442
 5087TIP3   OH236751   0.463   3.321   4.259 -0.0067  0.3717  0.0928
 5087TIP3    H136752   0.515   3.284   4.188 -1.0540  1.4417 -1.3193
 5087TIP3    H236753   0.513   3.304   4.338  2.4229  1.2361 -1.1699
 5088TIP3   OH236754   0.072   6.846   4.683  0.8523  0.0004 -0.3185
 5088TIP3    H136755   0.114   6.860   4.598 -0.1925 -0.3010 -0.9024
 5088TIP3    H236756   0.023   6.927   4.699  0.7240 -0.1031 -0.1877
 5089TIP3   OH236757   5.865   5.135  12.170 -0.2689 -0.4379  0.0245
 5089TIP3    H136758   5.843   5.065  12.109  1.1656 -0.9768  0.0900
 5089TIP3    H236759   5.820   5.112  12.251  1.4075 -2.1691  0.5366
 5090TIP3   OH236760   3.446   1.662  13.504 -0.0394  0.2262 -0.1181
 5090TIP3    H136761   3.403   1.588  13.548 -1.0636 -0.2886 -1.8472
 5090TIP3    H236762   3.525   1.624  13.465 -0.2488  0.1665 -0.4939
 5091TIP3   OH236763   5.443   5.663  10.907  0.2874  0.1711  0.1098
 5091TIP3    H136764   5.521   5.618  10.876  0.1333  1.2308 -1.9720
 5091TIP3    H236765   5.382   5.659  10.834 -0.5125  1.8531  0.6257
 5092TIP3   OH236766   2.842   5.741  11.591  0.5301 -0.6212  0.4013
 5092TIP3    H136767   2.839   5.648  11.612 -2.2109 -0.6353  0.3186
 5092TIP3    H236768   2.864   5.784  11.674 -0.5722 -1.2499  1.0500
 5093TIP3   OH236769   4.297   0.725   0.090 -0.1268 -0.5926  0.2828
 5093TIP3    H136770   4.204   0.731   0.110 -0.0154  1.1537  0.4180
 5093TIP3    H236771   4.337   0.695   0.171 -0.4722 -0.3522  0.5465
 5094TIP3   OH236772   2.810   3.552   5.416  0.0597 -0.3973  0.0515
 5094TIP3    H136773   2.847   3.637   5.440 -0.2129  0.0297 -0.9926
 5094TIP3    H236774   2.719   3.556   5.444 -0.0443 -0.2034 -0.3018
 5095TIP3   OH236775   0.530   6.012   1.744  0.2101 -0.8358  0.1326
 5095TIP3    H136776   0.614   5.971   1.721 -0.1762 -0.0520 -3.2780
 5095TIP3    H236777   0.550   6.106   1.745 -0.4573 -0.6916  0.0304
 5096TIP3   OH236778   4.971   6.313  15.226  0.1174  0.3867  0.3152
 5096TIP3    H136779   4.914   6.256  15.278  0.0916  1.5578  1.6404
 5096TIP3    H236780   4.998   6.259  15.152 -2.2795 -0.3878 -0.0804
 5097TIP3   OH236781   5.475   0.639   1.372 -0.6011  0.0862  0.3968
 5097TIP3    H136782   5.502   0.585   1.298 -0.9793  0.9429 -0.3728
 5097TIP3    H236783   5.455   0.724   1.334 -2.8940 -0.0601  1.1634
 5098TIP3   OH236784   2.662   2.603   3.311  0.2219  0.1587 -0.0843
 5098TIP3    H136785   2.698   2.676   3.260  0.8465  0.2803  0.5214
 5098TIP3    H236786   2.737   2.547   3.331  0.4525  1.2649  2.6013
 5099TIP3   OH236787   1.213   2.715  15.395 -0.2322 -0.0309  0.9636
 5099TIP3    H136788   1.158   2.637  15.390 -1.5621  0.9261 -0.1695
 5099TIP3    H236789   1.205   2.745  15.486 -1.4242 -0.0567  0.8889
 5100TIP3   OH236790   6.665   5.715   4.844 -0.2449  0.8413 -0.0474
 5100TIP3    H136791   6.690   5.629   4.878 -1.2579  0.1968 -0.8682
 5100TIP3    H236792   6.619   5.757   4.916 -0.2071  0.4797  0.1899
 5101TIP3   OH236793   5.417   4.377  14.249  0.2120 -0.5667 -0.5996
 5101TIP3    H136794   5.374   4.324  14.316 -2.2739  1.4104 -0.4503
 5101TIP3    H236795   5.348   4.393  14.184  1.4359  0.8003 -1.6274
 5102TIP3   OH236796   2.024   3.548   6.110  0.0257 -0.0594  0.8307
 5102TIP3    H136797   2.056   3.610   6.045 -0.6291  0.3132  0.8445
 5102TIP3    H236798   1.981   3.604   6.176 -2.2088 -0.5983 -0.0637
 5103TIP3   OH236799   1.550   4.983  13.399  1.1206  0.2737  0.0929
 5103TIP3    H136800   1.581   4.900  13.364  0.0064  0.3962 -1.2797
 5103TIP3    H236801   1.518   5.031  13.322 -2.6102  0.0842  1.3075
 5104TIP3   OH236802   5.190   0.945   5.094 -0.4434 -0.6929  0.3089
 5104TIP3    H136803   5.101   0.909   5.095 -0.1185 -1.4958  1.3379
 5104TIP3    H236804   5.241   0.879   5.047 -0.6997  0.6119 -1.9428
 5105TIP3   OH236805   1.464   4.426   2.842  0.4878 -0.7736 -0.0599
 5105TIP3    H136806   1.553   4.459   2.858  1.0602 -1.2864 -1.8905
 5105TIP3    H236807   1.433   4.478   2.767 -0.9869 -0.2358  0.8783
 5106TIP3   OH236808   1.545   2.195  12.596  0.3367 -0.4964  0.2140
 5106TIP3    H136809   1.590   2.114  12.572 -1.0975 -0.4317 -3.4490
 5106TIP3    H236810   1.615   2.257  12.612  1.4845 -2.3969  3.4098
 5107TIP3   OH236811   2.444   2.889   1.657  0.2952  0.6198 -0.7842
 5107TIP3    H136812   2.474   2.815   1.604 -0.6713  0.8150 -1.6467
 5107TIP3    H236813   2.515   2.905   1.719 -0.2398 -2.2396  0.7405
 5108TIP3   OH236814   6.120   2.314  14.787 -0.0042 -0.1759 -0.9003
 5108TIP3    H136815   6.175   2.237  14.776 -0.8720 -1.1148  0.9556
 5108TIP3    H236816   6.177   2.388  14.763  2.4016 -1.0169  1.7759
 5109TIP3   OH236817   2.952   4.405  10.858  0.1535  0.4460  0.5384
 5109TIP3    H136818   2.982   4.325  10.900 -2.0147 -0.3733  0.6420
 5109TIP3    H236819   2.967   4.390  10.764  2.1489  1.0399  0.7048
 5110TIP3   OH236820   1.618   4.723  15.863  0.5701  0.4590  0.2584
 5110TIP3    H136821   1.653   4.802  15.822  1.6035  0.5346  1.2399
 5110TIP3    H236822   1.616   4.742  15.956 -2.4919  0.5877  0.2886
 5111TIP3   OH236823   4.223   5.115   0.841 -0.1853  0.0788  0.1601
 5111TIP3    H136824   4.296   5.178   0.839 -0.3204  0.2274 -1.6485
 5111TIP3    H236825   4.156   5.155   0.786 -2.0464  0.3565  2.4739
 5112TIP3   OH236826   3.337   4.578  10.689  0.6025 -0.0641  0.3476
 5112TIP3    H136827   3.304   4.537  10.769 -1.4422  2.6394  1.0421
 5112TIP3    H236828   3.425   4.608  10.711  2.0798 -3.5617 -0.1127
 5113TIP3   OH236829   6.803   1.615  16.035  0.4857 -0.2754 -0.4015
 5113TIP3    H136830   6.744   1.555  15.989 -1.1911  1.5716 -0.7895
 5113TIP3    H236831   6.838   1.671  15.966  0.5366  0.4075  0.1722
 5114TIP3   OH236832   0.440   3.487   4.811  0.1450  0.1000  0.2094
 5114TIP3    H136833   0.452   3.581   4.822  2.4758 -0.1356  0.1512
 5114TIP3    H236834   0.504   3.447   4.870  1.1512 -1.3943 -1.7641
 5115TIP3   OH236835   5.481   5.806   3.933 -0.7057 -0.1295  0.1860
 5115TIP3    H136836   5.569   5.770   3.925 -0.3028  1.0223 -1.0348
 5115TIP3    H236837   5.423   5.738   3.899 -0.1779 -0.4677 -0.0422
 5116TIP3   OH236838   3.209   6.122   1.236 -0.5279  0.0246 -0.2587
 5116TIP3    H136839   3.167   6.136   1.321 -0.5531  0.1787 -0.2958
 5116TIP3    H236840   3.258   6.203   1.221 -0.7230  0.0967 -0.5051
 5117TIP3   OH236841   6.328   3.714   6.193 -0.1067 -1.0229  0.1049
 5117TIP3    H136842   6.304   3.797   6.152  2.1665  0.4355  1.5358
 5117TIP3    H236843   6.247   3.663   6.190 -1.9696  1.6814  0.2481
 5118TIP3   OH236844   3.898   1.419   6.010 -0.1273 -0.5896 -0.1240
 5118TIP3    H136845   3.862   1.483   5.949  1.6816  0.7682  0.1327
 5118TIP3    H236846   3.822   1.382   6.055 -1.5415 -1.6706 -3.1368
 5119TIP3   OH236847   2.609   0.237   0.886 -0.1078  0.0570  0.6734
 5119TIP3    H136848   2.591   0.275   0.972 -0.4408 -0.3921  0.8110
 5119TIP3    H236849   2.546   0.279   0.828 -2.1249 -1.9116  1.2576
 5120TIP3   OH236850   3.476   3.085   4.571  0.6351 -0.0696 -0.1313
 5120TIP3    H136851   3.565   3.106   4.599 -0.6166  0.4634  4.2748
 5120TIP3    H236852   3.444   3.165   4.530  1.7717  0.1870 -0.5482
 5121TIP3   OH236853   6.164   4.892   3.354  0.1228  0.4796 -0.1294
 5121TIP3    H136854   6.152   4.986   3.343  0.9284  0.6774  0.5133
 5121TIP3    H236855   6.168   4.857   3.265 -1.3294  0.8809 -0.3653
 5122TIP3   OH236856   4.351   2.171   0.055  0.3836 -0.3201 -0.0413
 5122TIP3    H136857   4.358   2.076   0.058 -0.1635 -0.3487  0.7007
 5122TIP3    H236858   4.382   2.195  -0.032  3.0425 -0.9512  0.6325
 5123TIP3   OH236859   3.265   5.106   1.694 -0.4471  0.4095  0.2387
 5123TIP3    H136860   3.207   5.065   1.759  0.9894 -0.8491  0.7896
 5123TIP3    H236861   3.251   5.054   1.615 -0.6109  0.5741  0.1596
 5124TIP3   OH236862   0.255   3.878   2.440  0.4040 -0.1086 -0.3786
 5124TIP3    H136863   0.161   3.866   2.431  0.2781  0.7794 -0.3248
 5124TIP3    H236864   0.281   3.814   2.506 -0.2874  0.1626  0.1656
 5125TIP3   OH236865   4.387   1.558   0.777 -0.2214  0.2605  0.0706
 5125TIP3    H136866   4.445   1.619   0.731  0.9082  0.8716  2.1893
 5125TIP3    H236867   4.298   1.587   0.754  0.2989  1.3477 -0.6395
 5126TIP3   OH236868   0.694   2.948   6.035 -0.0875  0.4535  0.6866
 5126TIP3    H136869   0.735   2.907   6.111  0.7796 -0.5360 -0.2577
 5126TIP3    H236870   0.736   2.905   5.960 -1.0649  1.2370 -0.3478
 5127TIP3   OH236871   5.646   6.149   0.463  0.1697  0.0509 -0.2305
 5127TIP3    H136872   5.616   6.216   0.524  0.2590 -0.7969  0.7863
 5127TIP3    H236873   5.565   6.109   0.431  0.1226 -0.9032  0.9824
 5128TIP3   OH236874   4.803   3.332   0.792  0.1565  0.2637 -0.2788
 5128TIP3    H136875   4.877   3.303   0.738  1.7149 -0.6378  2.1358
 5128TIP3    H236876   4.754   3.252   0.809 -2.0594  1.0011 -2.6448
 5129TIP3   OH236877   2.471   4.704   5.284 -0.0456  0.2563  0.4296
 5129TIP3    H136878   2.493   4.612   5.299  1.6723  0.6773  0.6789
 5129TIP3    H236879   2.378   4.703   5.262  0.3963 -1.7690 -1.7044
 5130TIP3   OH236880   3.929   2.183  10.859 -0.2199 -0.7477 -0.2279
 5130TIP3    H136881   4.002   2.241  10.837 -1.5417  1.4503  0.7623
 5130TIP3    H236882   3.924   2.121  10.787  1.6580 -0.0055 -1.0589
 5131TIP3   OH236883   1.815   4.145  11.121 -0.1677 -0.2115 -0.3134
 5131TIP3    H136884   1.861   4.194  11.054  1.1402  1.6622  1.8064
 5131TIP3    H236885   1.726   4.133  11.087  0.5416  0.3621 -2.4578
 5132TIP3   OH236886   1.527   2.146  13.884  0.2432  0.5277 -0.5402
 5132TIP3    H136887   1.577   2.180  13.809 -0.2197  0.4013 -0.9138
 5132TIP3    H236888   1.467   2.082  13.845  1.6443 -1.3530  0.2473
 5133TIP3   OH236889   4.339   6.577  12.301  0.5122 -0.0318 -0.4216
 5133TIP3    H136890   4.347   6.668  12.270  1.8713  0.2779  0.7200
 5133TIP3    H236891   4.429   6.545  12.306  0.0435 -1.5027 -0.9074
 5134TIP3   OH236892   0.861   5.591  10.645 -0.1988 -0.3487 -0.2938
 5134TIP3    H136893   0.900   5.599  10.558  0.4592  0.1130  0.0345
 5134TIP3    H236894   0.914   5.648  10.700 -1.0775 -0.0444  0.2594
 5135TIP3   OH236895   0.133   3.735   4.724  0.8456 -0.1430  0.4923
 5135TIP3    H136896   0.197   3.690   4.779  1.3928 -2.0480 -1.5763
 5135TIP3    H236897   0.180   3.754   4.643 -1.0168 -1.1661 -0.9081
 5136TIP3   OH236898   1.923   3.013  13.810 -0.1792 -0.3339  0.2440
 5136TIP3    H136899   2.013   2.984  13.793 -0.1448  0.5812 -1.4100
 5136TIP3    H236900   1.878   3.000  13.726 -1.3529  0.0900  0.7863
 5137TIP3   OH236901   1.958   4.756  13.230 -1.0150 -0.4704 -0.1452
 5137TIP3    H136902   1.986   4.678  13.278 -0.1456 -0.4666 -0.6346
 5137TIP3    H236903   1.902   4.803  13.292 -1.2270 -1.2806  0.2911
 5138TIP3   OH236904   6.333   2.696  15.239  0.0161  0.0916  0.3760
 5138TIP3    H136905   6.271   2.682  15.168  1.1228  1.3064 -0.8739
 5138TIP3    H236906   6.408   2.640  15.218 -0.4549 -1.1059  1.6968
 5139TIP3   OH236907   3.854   0.607   0.892  0.4268 -0.0136 -0.1776
 5139TIP3    H136908   3.827   0.589   0.802  2.8119 -0.1328 -0.9390
 5139TIP3    H236909   3.784   0.571   0.946 -0.3416 -1.3274 -1.9522
 5140TIP3   OH236910   3.562   3.599  14.407  0.2393  0.6100  0.0338
 5140TIP3    H136911   3.598   3.565  14.325 -1.2874  0.1234 -0.4686
 5140TIP3    H236912   3.567   3.527  14.469 -1.7719 -0.2104 -0.6568
 5141TIP3   OH236913   2.075   1.583   1.109  0.1225  0.3187 -0.0926
 5141TIP3    H136914   2.120   1.597   1.192  0.0813 -0.2395  0.0312
 5141TIP3    H236915   2.098   1.659   1.055  1.7692 -0.2536 -0.2651
 5142TIP3   OH236916   5.926   0.153   3.971 -0.0595  0.2842 -0.1460
 5142TIP3    H136917   5.901   0.184   4.058  0.5169  0.5986 -0.0861
 5142TIP3    H236918   5.975   0.072   3.987  1.0474  0.9467 -0.0851
 5143TIP3   OH236919   0.041   5.639   3.194 -0.5840 -0.3160 -0.2776
 5143TIP3    H136920   0.114   5.658   3.254 -1.1087 -2.4665  1.1770
 5143TIP3    H236921   0.080   5.585   3.125 -0.6534 -1.0321  0.2248
 5144TIP3   OH236922   5.214   6.394   1.834  0.1081  0.1813 -0.2713
 5144TIP3    H136923   5.284   6.430   1.889  0.6621 -1.2123 -0.0183
 5144TIP3    H236924   5.168   6.471   1.801  1.1270  1.1096  0.3812
 5145TIP3   OH236925   2.379   0.436   3.594  0.9949  0.1110  0.0416
 5145TIP3    H136926   2.405   0.397   3.677  2.0569  1.9452  0.6265
 5145TIP3    H236927   2.446   0.407   3.532  1.0499 -0.0385  0.1703
 5146TIP3   OH236928   3.536   0.165   2.128  0.0889 -0.3259 -0.8531
 5146TIP3    H136929   3.548   0.097   2.193 -1.5359  0.0136 -0.1566
 5146TIP3    H236930   3.448   0.152   2.094 -0.0670  1.0926 -1.0909
 5147TIP3   OH236931   3.703   3.740  14.695  0.5397  0.3641 -0.5026
 5147TIP3    H136932   3.792   3.749  14.660  0.3632  0.8943 -0.8169
 5147TIP3    H236933   3.652   3.807  14.650 -0.2680 -0.6229 -1.1089
 5148TIP3   OH236934   3.649   6.582  13.977 -0.4355  0.4987 -0.2366
 5148TIP3    H136935   3.567   6.631  13.982 -0.1058  1.0605 -0.3209
 5148TIP3    H236936   3.643   6.534  13.895 -2.6013 -2.9395  1.6969
 5149TIP3   OH236937   6.514   4.626   0.162  0.1556 -0.0943 -0.3029
 5149TIP3    H136938   6.577   4.681   0.209 -0.4619 -0.4207  0.9340
 5149TIP3    H236939   6.434   4.632   0.214 -0.2842 -1.1785 -0.8363
 5150TIP3   OH236940   1.541   4.772  16.533  0.6839  0.1614 -0.2238
 5150TIP3    H136941   1.613   4.775  16.597 -0.4258 -1.6067  1.2135
 5150TIP3    H236942   1.577   4.725  16.458  1.2210 -0.1593  0.2274
 5151TIP3   OH236943   1.546   2.376  12.118  0.3676  0.8706 -0.8513
 5151TIP3    H136944   1.493   2.406  12.192  0.8400  0.4770 -0.3462
 5151TIP3    H236945   1.486   2.322  12.065  0.7298 -1.2362  0.7557
 5152TIP3   OH236946   5.364   5.209  16.558 -0.9011 -0.1971 -0.3212
 5152TIP3    H136947   5.444   5.229  16.607 -1.3692 -1.2481  0.9051
 5152TIP3    H236948   5.341   5.292  16.515  0.8394  0.1201 -0.7195
 5153TIP3   OH236949   3.162   5.787   1.726  0.2975 -0.1176 -0.1873
 5153TIP3    H136950   3.092   5.851   1.721  1.0365  0.8093  0.8721
 5153TIP3    H236951   3.122   5.711   1.767 -0.0360  0.4922  0.6363
 5154TIP3   OH236952   1.714   4.575  12.794  0.0679  0.0936  0.1603
 5154TIP3    H136953   1.762   4.535  12.721  0.1294 -0.0023  0.2516
 5154TIP3    H236954   1.756   4.539  12.872 -0.9689 -0.9937  0.2483
 5155TIP3   OH236955   1.585   4.401  13.805 -0.0274 -0.5137 -0.6852
 5155TIP3    H136956   1.505   4.352  13.822  0.5725 -2.1483 -2.3125
 5155TIP3    H236957   1.558   4.493  13.808 -1.5549 -0.9630  0.6312
 5156TIP3   OH236958   1.028   2.429  11.518 -0.1720 -0.0101  0.0095
 5156TIP3    H136959   1.096   2.469  11.464 -0.1120 -0.8666 -0.5609
 5156TIP3    H236960   1.020   2.339  11.485 -2.1343  0.2865 -0.4811
 5157TIP3   OH236961   0.957   5.766   3.399  0.2953  0.5673 -0.7462
 5157TIP3    H136962   0.880   5.709   3.403  0.0044  0.7839 -2.4812
 5157TIP3    H236963   1.026   5.717   3.445 -0.1882 -0.7852 -1.4126
 5158TIP3   OH236964   6.621   0.611   6.000 -0.1521 -0.0984 -0.2124
 5158TIP3    H136965   6.675   0.656   6.065  1.0830 -0.1699 -1.1682
 5158TIP3    H236966   6.533   0.647   6.012  0.4117  1.1022  0.3668
 5159TIP3   OH236967   2.137   1.605   1.364 -1.1134 -0.9459 -0.5911
 5159TIP3    H136968   2.084   1.681   1.387  0.4571 -0.0888  0.4276
 5159TIP3    H236969   2.079   1.530   1.373 -2.8476  0.1332 -2.0714
 5160TIP3   OH236970   1.947   2.285   6.389 -0.1915 -0.3125 -0.0049
 5160TIP3    H136971   1.992   2.217   6.439  1.0620 -1.8358 -2.9349
 5160TIP3    H236972   1.856   2.279   6.417 -0.0329 -2.8794  0.2250
 5161TIP3   OH236973   6.786   0.369  17.064  0.0175 -0.2780 -0.3313
 5161TIP3    H136974   6.833   0.301  17.112 -2.9090 -1.1609  1.5448
 5161TIP3    H236975   6.719   0.322  17.015 -0.4289  1.0890 -1.1009
 5162TIP3   OH236976   5.205   4.013   1.494  0.2950 -0.0396 -0.3389
 5162TIP3    H136977   5.128   4.028   1.440 -1.2956  0.5109  1.8995
 5162TIP3    H236978   5.246   3.935   1.458 -2.1232 -1.1794 -0.8044
 5163TIP3   OH236979   3.276   3.532   5.745 -0.1102  0.2808  0.0214
 5163TIP3    H136980   3.310   3.571   5.665  0.9431 -1.0145 -0.1773
 5163TIP3    H236981   3.266   3.606   5.805 -1.7038  1.4100 -1.5201
 5164TIP3   OH236982   4.609   0.534  10.750 -0.1484  0.6217 -0.0469
 5164TIP3    H136983   4.632   0.456  10.800 -1.1507  0.7975  0.7281
 5164TIP3    H236984   4.563   0.501  10.673  0.1972  0.4120 -0.1645
 5165TIP3   OH236985   2.631   2.243   5.625  0.2867 -0.2734 -0.2264
 5165TIP3    H136986   2.679   2.214   5.702  0.2119  0.1259 -0.0281
 5165TIP3    H236987   2.602   2.331   5.646  0.2194 -0.1806 -0.6906
 5166TIP3   OH236988   6.773   4.351  12.632  0.1716  0.5731  0.1190
 5166TIP3    H136989   6.833   4.312  12.568 -0.5207  0.2128 -0.3129
 5166TIP3    H236990   6.725   4.276  12.668  1.6680  0.5522  2.2537
 5167TIP3   OH236991   2.291   5.237  14.112  0.1280 -1.0787  0.0839
 5167TIP3    H136992   2.347   5.257  14.187 -1.8650 -0.1741  1.4021
 5167TIP3    H236993   2.207   5.277  14.133 -0.6324 -1.1373 -2.4694
 5168TIP3   OH236994   3.251   6.512   3.017 -0.4876 -0.3948 -0.0607
 5168TIP3    H136995   3.219   6.600   2.997  0.4173  0.3587  1.5365
 5168TIP3    H236996   3.307   6.489   2.943  1.3526  1.5072  0.6399
 5169TIP3   OH236997   6.321   2.202   2.659 -0.1349 -0.1334  0.0572
 5169TIP3    H136998   6.226   2.197   2.669 -0.1617 -1.7088 -0.6128
 5169TIP3    H236999   6.351   2.255   2.733 -1.5792  0.9363 -0.0824
 5170TIP3   OH237000   2.185   6.649   3.636 -0.0064 -0.5281  0.1630
 5170TIP3    H137001   2.216   6.640   3.545  0.3152  0.5765  0.1424
 5170TIP3    H237002   2.248   6.600   3.688  0.5269 -0.1295 -0.0975
 5171TIP3   OH237003   0.405   1.257   3.100  0.1375  0.1838  0.2135
 5171TIP3    H137004   0.386   1.303   3.182  0.6481  1.5611 -0.4189
 5171TIP3    H237005   0.323   1.257   3.052 -0.5164 -1.7829  1.2379
 5172TIP3   OH237006   4.599   0.815   3.532  0.2329 -0.1824  0.2072
 5172TIP3    H137007   4.687   0.812   3.570  0.5152 -0.0325 -0.4346
 5172TIP3    H237008   4.606   0.765   3.451 -0.1980  0.0828  0.0043
 5173TIP3   OH237009   4.368   5.351   1.387  0.3735 -0.6821  0.2285
 5173TIP3    H137010   4.389   5.285   1.453  1.1129  0.0396  0.7244
 5173TIP3    H237011   4.283   5.387   1.414  1.0268  0.1450  1.2232
 5174TIP3   OH237012   3.999   6.406   3.964  0.2073 -0.0716 -0.2611
 5174TIP3    H137013   4.007   6.344   3.891 -0.0483 -0.5489  0.1066
 5174TIP3    H237014   3.926   6.372   4.016  0.2334  0.3967  0.0901
 5175TIP3   OH237015   6.193   6.120  11.273 -0.2489 -0.1486 -0.1191
 5175TIP3    H137016   6.170   6.077  11.355 -0.0726 -1.7963 -0.8873
 5175TIP3    H237017   6.289   6.119  11.272 -0.2501 -0.2951 -0.4093
 5176TIP3   OH237018   6.471   4.573   2.858  0.1468  0.1870  0.3990
 5176TIP3    H137019   6.558   4.599   2.888  0.2886  1.4744 -1.0177
 5176TIP3    H237020   6.486   4.491   2.810  0.3486 -0.3133  1.2850
 5177TIP3   OH237021   4.991   6.015   3.160  0.0340  0.4005  0.2317
 5177TIP3    H137022   5.069   5.969   3.127  0.4287 -0.1026  1.7914
 5177TIP3    H237023   5.024   6.071   3.230 -0.7547  1.6162 -0.3406
 5178TIP3   OH237024   5.943   6.497  14.002 -0.3699 -0.1627 -0.1693
 5178TIP3    H137025   6.024   6.456  13.971  1.0441  2.2238  0.1582
 5178TIP3    H237026   5.934   6.468  14.092  1.1767  0.9471  0.3916
 5179TIP3   OH237027   5.303   4.112   4.283 -0.7298 -0.3265 -0.2755
 5179TIP3    H137028   5.278   4.039   4.339  0.0273  0.8496  1.7276
 5179TIP3    H237029   5.376   4.153   4.329 -2.3645  2.8594 -0.2391
 5180TIP3   OH237030   5.814   3.484  16.555  0.4144  0.4265 -0.5604
 5180TIP3    H137031   5.815   3.425  16.479  1.7341 -1.2982  0.7164
 5180TIP3    H237032   5.906   3.497  16.577  0.0809  1.5029  0.3082
 5181TIP3   OH237033   4.187   6.336  10.857 -0.0685  0.2473  0.6884
 5181TIP3    H137034   4.157   6.306  10.771 -2.4735  2.7948  0.4967
 5181TIP3    H237035   4.250   6.405  10.838 -1.1204  1.3020  0.8784
 5182TIP3   OH237036   2.100   0.837   3.480  0.6767 -0.0371 -0.6848
 5182TIP3    H137037   2.049   0.756   3.485  1.1483 -0.2505  1.3180
 5182TIP3    H237038   2.035   0.906   3.468  0.0719 -0.4884 -0.0482
 5183TIP3   OH237039   4.002   3.988   3.872 -0.0586 -0.0958 -0.4724
 5183TIP3    H137040   4.028   3.901   3.842 -0.3534 -0.3589  0.0354
 5183TIP3    H237041   4.027   3.991   3.964 -1.2734 -0.1509 -0.1175
 5184TIP3   OH237042   5.934   2.351   3.615  0.3773  0.1895 -0.5425
 5184TIP3    H137043   5.854   2.320   3.573 -0.4597  1.3440  0.1444
 5184TIP3    H237044   5.972   2.413   3.552  1.2747 -1.0857 -1.2890
 5185TIP3   OH237045   4.603   4.792  14.770 -0.2832  0.6254 -0.5761
 5185TIP3    H137046   4.587   4.750  14.686  0.8802  1.3387 -1.1869
 5185TIP3    H237047   4.665   4.862  14.750  0.4070  0.4896  0.9655
 5186TIP3   OH237048   6.320   6.774  12.896  0.0634 -0.0483  0.7037
 5186TIP3    H137049   6.341   6.833  12.968  0.8268  2.1797 -1.2152
 5186TIP3    H237050   6.287   6.831  12.826 -1.1931 -2.1593 -0.5590
 5187TIP3   OH237051   1.244   3.889  15.742 -0.4253 -0.3353 -0.3355
 5187TIP3    H137052   1.302   3.910  15.670 -0.0047  1.8157  0.5690
 5187TIP3    H237053   1.160   3.867  15.701 -0.1946  0.8486 -1.4819
 5188TIP3   OH237054   1.177   0.734  17.098  1.1364 -0.3820  0.3425
 5188TIP3    H137055   1.223   0.716  17.016  2.9345  0.1049  1.1911
 5188TIP3    H237056   1.181   0.652  17.147  1.2598 -0.2863  0.4956
 5189TIP3   OH237057   4.560   5.498  13.519 -0.3386  0.2041  0.0365
 5189TIP3    H137058   4.552   5.537  13.432 -2.0214 -1.1697 -0.4782
 5189TIP3    H237059   4.599   5.412  13.503 -0.9842 -0.1981  0.5822
 5190TIP3   OH237060   6.825   4.545  12.284 -0.2755 -0.5234  0.4248
 5190TIP3    H137061   6.911   4.517  12.251 -0.3833 -0.4462  0.0797
 5190TIP3    H237062   6.842   4.630  12.325 -0.2608 -0.3083 -0.0154
 5191TIP3   OH237063   5.073   6.702   0.933 -0.2956 -0.6942  0.7274
 5191TIP3    H137064   5.043   6.657   0.854 -0.3179  0.3004  0.1538
 5191TIP3    H237065   5.162   6.671   0.946  0.0369 -0.1754 -0.2294
 5192TIP3   OH237066   0.896   2.147   2.733  0.3770 -0.0096  0.1666
 5192TIP3    H137067   0.854   2.119   2.652  4.4069 -2.7291 -1.3450
 5192TIP3    H237068   0.839   2.114   2.803 -1.9007  0.1213 -1.5384
 5193TIP3   OH237069   3.381   5.121  14.411  0.4168  0.3455  0.4403
 5193TIP3    H137070   3.382   5.056  14.482 -0.5763  0.6270  0.7218
 5193TIP3    H237071   3.403   5.203  14.454  0.7723  0.3537  0.2447
 5194TIP3   OH237072   1.626   2.991  12.958  0.4572 -0.2355 -0.0567
 5194TIP3    H137073   1.643   3.023  13.047  1.1432 -0.6764 -0.0239
 5194TIP3    H237074   1.706   3.011  12.909  1.2395 -2.5524  0.1592
 5195TIP3   OH237075   1.482   0.866   0.833 -0.0244  0.1791 -0.2053
 5195TIP3    H137076   1.492   0.770   0.834  0.2808  0.0853 -2.9488
 5195TIP3    H237077   1.571   0.899   0.848 -0.0130  0.0249  0.0786
 5196TIP3   OH237078   5.127   4.244   2.880  0.3689  0.1413  0.5543
 5196TIP3    H137079   5.075   4.224   2.959 -0.0907  0.9559  0.4693
 5196TIP3    H237080   5.168   4.161   2.857  1.2764  0.0864  2.2029
 5197TIP3   OH237081   1.284   1.036   1.892 -0.6581 -0.1443 -0.4191
 5197TIP3    H137082   1.363   1.007   1.846 -0.8487  0.6276 -1.2772
 5197TIP3    H237083   1.244   0.956   1.926 -0.4580 -0.7382 -1.5343
 5198TIP3   OH237084   2.436   2.625   2.573 -0.0394 -0.6318 -0.4820
 5198TIP3    H137085   2.526   2.645   2.547 -0.3511  1.4989 -0.0846
 5198TIP3    H237086   2.393   2.710   2.578 -1.4023 -1.3664  1.8260
 5199TIP3   OH237087   2.144   5.298  15.473  0.4065 -0.2933 -0.0046
 5199TIP3    H137088   2.073   5.316  15.411 -0.8387  0.2196  1.5123
 5199TIP3    H237089   2.134   5.205  15.494  0.9141 -0.5026 -0.6280
 5200TIP3   OH237090   3.717   1.172  13.807  0.1092 -0.8420  0.4225
 5200TIP3    H137091   3.781   1.108  13.839  0.7518 -0.0314  0.7880
 5200TIP3    H237092   3.763   1.219  13.738 -0.0823 -0.2614  0.6820
 5201TIP3   OH237093   1.107   3.178  14.707 -0.7804  0.3615  0.2629
 5201TIP3    H137094   1.132   3.212  14.793 -1.3585  0.3526  0.4347
 5201TIP3    H237095   1.133   3.086  14.709 -1.0882  0.2828  0.5424
 5202TIP3   OH237096   2.851   1.578   2.665 -0.3164  0.9521 -0.1231
 5202TIP3    H137097   2.916   1.514   2.637 -0.6195 -0.0243  1.3283
 5202TIP3    H237098   2.899   1.637   2.723 -0.4587  0.9146  0.0344
 5203TIP3   OH237099   0.996   2.249   0.300  0.3280 -0.2555  0.4631
 5203TIP3    H137100   1.007   2.198   0.220 -1.5473  0.7970 -0.5342
 5203TIP3    H237101   0.986   2.339   0.270  0.3376  0.2652  1.9463
 5204TIP3   OH237102   4.615   0.727  13.602  0.5923 -0.7997  0.3059
 5204TIP3    H137103   4.680   0.658  13.590  2.9172  1.1175  1.0036
 5204TIP3    H237104   4.531   0.683  13.594  1.9430 -3.3803 -0.9481
 5205TIP3   OH237105   1.678   2.354   2.404  0.4328  0.4613  0.0959
 5205TIP3    H137106   1.766   2.330   2.374  0.2029  0.5291 -0.6606
 5205TIP3    H237107   1.690   2.379   2.495  1.5388  2.2392 -0.4797
 5206TIP3   OH237108   6.032   4.224   4.054 -0.7340  0.3116 -0.0813
 5206TIP3    H137109   6.094   4.168   4.101 -2.3961 -1.8912 -0.3545
 5206TIP3    H237110   6.031   4.306   4.104  0.9737 -0.2785  0.9965
 5207TIP3   OH237111   6.623   5.641   4.547  0.0002 -0.5329 -0.9412
 5207TIP3    H137112   6.612   5.653   4.641  0.0035 -0.3763 -0.9613
 5207TIP3    H237113   6.534   5.635   4.513 -0.1413  2.7157 -1.3715
 5208TIP3   OH237114   3.089   0.401  12.176  0.2260  0.9490 -0.2416
 5208TIP3    H137115   3.055   0.474  12.228 -0.3365  0.8686 -0.4988
 5208TIP3    H237116   3.047   0.324  12.213 -0.3950  0.9196 -1.0004
 5209TIP3   OH237117   0.523   5.155   2.376 -0.0902 -0.4944  0.0605
 5209TIP3    H137118   0.613   5.183   2.361  0.0662 -0.1178  1.5424
 5209TIP3    H237119   0.531   5.065   2.409 -0.2717 -0.5433 -0.0293
 5210TIP3   OH237120   0.618   0.745  12.777  0.4937  0.1902 -0.1066
 5210TIP3    H137121   0.580   0.668  12.821  0.1698 -0.2028 -1.0437
 5210TIP3    H237122   0.551   0.771  12.714  1.1172  0.4844 -0.6541
 5211TIP3   OH237123   6.317   2.561  16.256 -0.0703 -0.1033 -0.2456
 5211TIP3    H137124   6.389   2.512  16.296  0.6046  0.3650 -0.8588
 5211TIP3    H237125   6.342   2.653  16.266 -1.0620  0.1108  0.4120
 5212TIP3   OH237126   3.328   4.019  14.466 -0.3557  0.3873 -0.1314
 5212TIP3    H137127   3.240   4.038  14.432 -1.3256 -1.9990  0.7994
 5212TIP3    H237128   3.312   3.962  14.541  2.0430 -0.7907 -0.4421
 5213TIP3   OH237129   1.560   3.234   2.956 -0.1144 -0.1587 -0.0000
 5213TIP3    H137130   1.598   3.227   3.044  0.1855 -4.7943 -0.2416
 5213TIP3    H237131   1.473   3.271   2.970  0.3972  0.3760  2.0616
 5214TIP3   OH237132   1.037   4.488  11.212  0.4082  0.8958  0.2854
 5214TIP3    H137133   1.036   4.501  11.307 -0.9797  1.3360  0.2352
 5214TIP3    H237134   1.031   4.576  11.176 -0.3261  0.6641 -0.1790
 5215TIP3   OH237135   5.840   0.794   2.812  0.1475 -0.0102 -0.4853
 5215TIP3    H137136   5.772   0.857   2.837 -1.0733 -0.5669 -2.2442
 5215TIP3    H237137   5.905   0.847   2.766 -0.4454  0.1075 -1.1944
 5216TIP3   OH237138   3.925   2.438  13.418  0.3042 -0.1973 -0.1283
 5216TIP3    H137139   4.007   2.469  13.458  1.0936 -2.5916  0.2619
 5216TIP3    H237140   3.941   2.445  13.324  0.6275  0.1548 -0.0501
 5217TIP3   OH237141   2.633   2.412  11.577  0.4113 -0.0266 -0.3095
 5217TIP3    H137142   2.540   2.392  11.580  0.9042 -2.5561  0.6302
 5217TIP3    H237143   2.646   2.478  11.645 -0.6391  0.1582 -0.2779
 5218TIP3   OH237144   0.938   2.244  16.874  0.3183  0.1716  0.7060
 5218TIP3    H137145   0.874   2.209  16.936  0.4638 -1.3645  0.0378
 5218TIP3    H237146   1.022   2.237  16.920  0.2012  0.7595  1.0152
 5219TIP3   OH237147   6.491   5.246  12.964 -0.2925  0.5444  0.0140
 5219TIP3    H137148   6.467   5.316  12.904 -0.0408  0.7178  0.1156
 5219TIP3    H237149   6.409   5.199  12.980 -0.5905  1.1993  0.4471
 5220TIP3   OH237150   1.840   5.980   3.075 -0.6302  0.3234  0.3676
 5220TIP3    H137151   1.873   5.983   2.985  0.1829  0.4457  0.6587
 5220TIP3    H237152   1.745   5.973   3.066 -0.4797 -5.7004 -0.6539
 5221TIP3   OH237153   1.630   6.090   4.534  0.0017  0.4144 -0.5859
 5221TIP3    H137154   1.660   6.180   4.553 -1.0720  0.6884 -0.1003
 5221TIP3    H237155   1.710   6.037   4.538  0.1146  0.4988  4.4317
 5222TIP3   OH237156   6.222   0.748   2.446 -0.4475  0.1389 -0.1708
 5222TIP3    H137157   6.139   0.794   2.455 -0.8368 -0.1470 -2.0062
 5222TIP3    H237158   6.262   0.785   2.368  1.4051  0.6038  0.9137
 5223TIP3   OH237159   4.328   2.122   3.266 -0.0035 -0.5011  0.3001
 5223TIP3    H137160   4.285   2.165   3.193 -0.3297  0.5102  1.0781
 5223TIP3    H237161   4.421   2.146   3.257  0.0640 -0.9119 -0.1406
 5224TIP3   OH237162   1.022   5.085  15.083  0.7563  0.1923 -0.2771
 5224TIP3    H137163   1.083   5.016  15.109  0.9618  0.5808  0.2872
 5224TIP3    H237164   0.937   5.055  15.114  0.0486 -1.7512 -3.5305
 5225TIP3   OH237165   0.466   1.593  16.659  0.8542 -0.0985 -0.5066
 5225TIP3    H137166   0.440   1.532  16.727  1.8962 -0.1503 -0.1346
 5225TIP3    H237167   0.424   1.676  16.683 -0.0228 -0.4937 -0.6548
 5226TIP3   OH237168   5.776   5.012  13.718 -0.4631  0.5796 -0.0442
 5226TIP3    H137169   5.796   5.025  13.625  0.6688 -0.9055 -0.0502
 5226TIP3    H237170   5.684   4.986  13.719 -0.4839  0.6076 -0.7561
 5227TIP3   OH237171   3.754   2.620   1.247 -0.3116 -0.0838 -0.6134
 5227TIP3    H137172   3.713   2.592   1.329 -2.1718 -0.3098 -1.5633
 5227TIP3    H237173   3.762   2.540   1.196  1.2181 -0.0085 -0.5304
 5228TIP3   OH237174   1.432   0.068  13.314 -0.4840 -0.5465 -0.1197
 5228TIP3    H137175   1.411   0.056  13.221  1.0166 -1.1327 -0.4159
 5228TIP3    H237176   1.386  -0.003  13.358 -2.4045  0.5802 -0.1857
 5229TIP3   OH237177   1.252   2.283  12.859  0.2905 -0.6449  0.6184
 5229TIP3    H137178   1.306   2.360  12.842 -0.7854  0.1760  0.8517
 5229TIP3    H237179   1.176   2.294  12.802 -0.1610 -1.2264  1.1022
 5230TIP3   OH237180   5.445   4.074   2.627 -0.0587  0.2096 -0.0700
 5230TIP3    H137181   5.534   4.080   2.660 -0.6514  1.3377  1.4338
 5230TIP3    H237182   5.453   4.085   2.532  1.4041  0.1504  0.0347
 5231TIP3   OH237183   2.127   2.524  12.523 -0.1526  0.8417 -0.2229
 5231TIP3    H137184   2.179   2.523  12.604 -1.7804  0.1062  0.8539
 5231TIP3    H237185   2.037   2.512  12.552 -0.6712 -0.6911 -2.2423
 5232TIP3   OH237186   0.121   5.692  12.966 -0.3235  0.9038  0.3057
 5232TIP3    H137187   0.042   5.729  13.005 -1.4035 -1.7731  0.8662
 5232TIP3    H237188   0.120   5.600  12.992  0.8774 -0.1853 -2.9604
 5233TIP3   OH237189   0.118   6.500   5.232  0.3482  0.1000 -0.0733
 5233TIP3    H137190   0.089   6.443   5.304  1.5125  0.3876  0.6469
 5233TIP3    H237191   0.161   6.574   5.275  1.8146 -0.1244 -1.0614
 5234TIP3   OH237192   1.079   4.436   4.634 -0.2166 -0.6005 -0.6030
 5234TIP3    H137193   1.063   4.342   4.640 -1.3136 -0.3885  0.0268
 5234TIP3    H237194   1.116   4.459   4.720 -1.0942 -0.2619 -0.3052
 5235TIP3   OH237195   3.479   0.672  14.981  0.2989  0.2672  0.6970
 5235TIP3    H137196   3.398   0.651  15.028  0.7558 -2.6548  0.3541
 5235TIP3    H237197   3.477   0.616  14.903  1.7370  1.6225 -0.3723
 5236TIP3   OH237198   6.836   1.620   1.152 -0.4321  0.6349 -0.4843
 5236TIP3    H137199   6.775   1.613   1.225  0.3134 -1.5348  0.0170
 5236TIP3    H237200   6.791   1.577   1.079  0.3028 -0.6789 -0.2009
 5237TIP3   OH237201   3.019   1.517   0.959  0.3739  0.4436 -0.3261
 5237TIP3    H137202   3.048   1.492   1.046  1.0000 -0.6859 -0.8418
 5237TIP3    H237203   2.960   1.446   0.932  0.8843  0.3239 -1.1641
 5238TIP3   OH237204   3.435   5.765  12.023 -0.4062 -0.1110  0.4537
 5238TIP3    H137205   3.387   5.835  11.979  0.2143 -1.9918 -3.5920
 5238TIP3    H237206   3.492   5.811  12.086 -1.4377  2.8066 -0.5929
 5239TIP3   OH237207   4.698   2.243  16.346 -0.6443  0.0254  0.2672
 5239TIP3    H137208   4.620   2.214  16.298 -1.5869  1.4263  0.8903
 5239TIP3    H237209   4.748   2.293  16.281 -0.2601 -0.8487 -0.1258
 5240TIP3   OH237210   3.699   5.104  12.461 -0.0965 -0.3649 -0.3450
 5240TIP3    H137211   3.631   5.146  12.514 -1.4088 -1.6515 -0.9454
 5240TIP3    H237212   3.750   5.052  12.523 -0.5668 -0.5325 -0.0919
 5241TIP3   OH237213   5.857   6.342  12.493  0.0142  0.0403 -0.3407
 5241TIP3    H137214   5.915   6.390  12.434 -1.1002  1.1964 -0.5458
 5241TIP3    H237215   5.770   6.377  12.475 -0.4334  0.0998  1.6729
 5242TIP3   OH237216   3.293   5.216   2.180  0.5859  0.3063 -0.1236
 5242TIP3    H137217   3.286   5.281   2.250  1.7769 -0.3804  0.6696
 5242TIP3    H237218   3.244   5.254   2.107  1.1389  2.0475  0.3615
 5243TIP3   OH237219   3.151   5.836  14.081 -0.3347  0.1081 -0.5157
 5243TIP3    H137220   3.106   5.752  14.075  0.3504 -0.3548  0.4503
 5243TIP3    H237221   3.213   5.836  14.008 -0.1194 -0.3750 -0.3390
 5244TIP3   OH237222   6.011   1.838   3.924 -0.5660  0.1982  0.1388
 5244TIP3    H137223   5.935   1.896   3.931 -0.3308  0.4774  0.3857
 5244TIP3    H237224   5.978   1.753   3.953 -0.0149  0.9848  3.4598
 5245TIP3   OH237225   2.325   2.224   4.700 -0.3175 -0.4291  0.3217
 5245TIP3    H137226   2.267   2.264   4.634 -0.9427  0.2789  1.2677
 5245TIP3    H237227   2.345   2.138   4.665  0.4273  0.4096 -1.4296
 5246TIP3   OH237228   5.849   5.293   3.589  0.1101  0.2961 -0.3718
 5246TIP3    H137229   5.814   5.226   3.648 -0.9062  0.4778 -0.7659
 5246TIP3    H237230   5.776   5.353   3.574  1.0335  1.6003  0.0994
 5247TIP3   OH237231   6.776   5.517  14.138  0.1140 -0.2246 -0.2177
 5247TIP3    H137232   6.817   5.601  14.157  0.7244 -0.3757 -0.8359
 5247TIP3    H237233   6.825   5.482  14.063 -0.4497 -0.9024 -0.2862
 5248TIP3   OH237234   5.579   3.005   1.282 -0.2839 -1.0630  0.4765
 5248TIP3    H137235   5.539   2.953   1.213  0.8341  0.0588 -1.1078
 5248TIP3    H237236   5.508   3.023   1.343 -1.4838 -1.5773 -0.7153
 5249TIP3   OH237237   4.647   5.738   4.201  0.1333  0.1703 -0.0534
 5249TIP3    H137238   4.707   5.742   4.126 -0.4931  0.7747 -0.5336
 5249TIP3    H237239   4.648   5.827   4.237  2.1123 -0.5757  2.0395
 5250TIP3   OH237240   4.485   4.984  11.224 -0.1006  0.6205 -0.0031
 5250TIP3    H137241   4.494   5.025  11.309  2.5160  0.5566 -0.1563
 5250TIP3    H237242   4.434   5.046  11.172 -0.6862  1.2141  1.2408
 5251TIP3   OH237243   3.016   6.095   3.147 -0.0116 -0.2357 -0.1382
 5251TIP3    H137244   3.076   6.048   3.204 -0.5717 -0.8601 -0.0437
 5251TIP3    H237245   3.022   6.186   3.175  0.8575 -0.2978 -0.1130
 5252TIP3   OH237246   3.819   0.803   0.372  0.2678 -0.4163 -0.3214
 5252TIP3    H137247   3.860   0.717   0.369  0.3499 -0.3559 -1.7693
 5252TIP3    H237248   3.891   0.864   0.359  0.5421  0.0504  2.6411
 5253TIP3   OH237249   2.905   0.376   4.773  0.4321  0.8841  0.5065
 5253TIP3    H137250   2.871   0.315   4.837  1.8756  0.5453  0.9895
 5253TIP3    H237251   2.829   0.428   4.746 -0.2725  0.8285  2.2511
 5254TIP3   OH237252   3.888   5.157  11.524  0.1557  0.3891  0.0595
 5254TIP3    H137253   3.924   5.087  11.470 -1.1010 -0.8005  0.6752
 5254TIP3    H237254   3.960   5.184  11.581  1.0247  0.5105 -1.0851
 5255TIP3   OH237255   1.254   0.065   1.801  0.6061 -0.2012  0.2568
 5255TIP3    H137256   1.349   0.066   1.803  0.6012  0.1321  0.4144
 5255TIP3    H237257   1.232  -0.002   1.737  0.9761  1.8206 -2.1686
 5256TIP3   OH237258   6.839   0.758  12.939 -0.6293  0.4325  0.4769
 5256TIP3    H137259   6.786   0.719  12.870 -0.7086  3.7780 -1.5389
 5256TIP3    H237260   6.916   0.700  12.945 -1.2468 -0.6929 -1.4449
 5257TIP3   OH237261   5.611   0.163   0.358  0.4627 -0.0063 -0.0202
 5257TIP3    H137262   5.678   0.216   0.402 -0.5429  2.0813 -0.8467
 5257TIP3    H237263   5.637   0.073   0.374  2.5961  0.7254  0.9960
 5258TIP3   OH237264   5.706   6.303   1.260 -0.2666  0.1130 -0.3094
 5258TIP3    H137265   5.726   6.234   1.323  1.6055  1.7238  0.9834
 5258TIP3    H237266   5.785   6.312   1.208 -0.1606  1.8071  0.0939
 5259TIP3   OH237267   1.887   3.086   3.396  0.3045 -0.4614  0.0380
 5259TIP3    H137268   1.968   3.119   3.357  0.0106 -1.5984 -1.6528
 5259TIP3    H237269   1.821   3.099   3.329 -0.4938 -1.3800  0.6165
 5260TIP3   OH237270   5.356   5.913  13.648 -0.5358 -0.1721 -0.6560
 5260TIP3    H137271   5.278   5.962  13.621  0.9903  0.8481 -3.5883
 5260TIP3    H237272   5.406   5.976  13.701 -1.1740 -0.4976  0.3677
 5261TIP3   OH237273   3.492   4.169   4.897 -0.9390 -0.3498  0.3063
 5261TIP3    H137274   3.411   4.153   4.946 -0.7343 -3.3926 -0.1943
 5261TIP3    H237275   3.471   4.143   4.807  0.3096 -0.1277 -0.0692
 5262TIP3   OH237276   5.584   1.430   4.169 -0.2214 -0.0060  0.1491
 5262TIP3    H137277   5.619   1.372   4.102 -0.5922  0.5823 -0.5782
 5262TIP3    H237278   5.508   1.384   4.204  0.3145 -0.5678  0.5725
 5263TIP3   OH237279   4.616   2.775   2.145  0.6796  0.4202 -0.2009
 5263TIP3    H137280   4.599   2.821   2.227 -2.4251 -2.2725  0.8770
 5263TIP3    H237281   4.688   2.715   2.165  0.0168 -0.1393  0.5839
 5264TIP3   OH237282   2.013   2.597   2.173 -0.0673  0.6760 -0.5142
 5264TIP3    H137283   2.028   2.505   2.150 -2.9907  0.3324 -1.3693
 5264TIP3    H237284   1.980   2.594   2.263  1.0547  1.0532 -0.0696
 5265TIP3   OH237285   5.000   3.695   1.397 -0.3644 -0.1914 -0.8484
 5265TIP3    H137286   5.004   3.640   1.318  1.6560 -1.0965 -0.1969
 5265TIP3    H237287   5.078   3.750   1.391 -0.4587  0.0812  0.2731
 5266TIP3   OH237288   3.664   0.830  12.329 -0.1698  0.0182 -0.1788
 5266TIP3    H137289   3.661   0.739  12.300  2.3427 -1.4047  3.3714
 5266TIP3    H237290   3.751   0.861  12.304 -0.8410  1.3742 -0.9764
 5267TIP3   OH237291   6.433   1.106   6.580  0.1899 -0.2220  0.4117
 5267TIP3    H137292   6.457   1.197   6.560 -0.6630  0.1390  0.9329
 5267TIP3    H237293   6.356   1.114   6.636 -0.1023 -1.2826  0.1870
 5268TIP3   OH237294   3.528   3.031  10.371  0.0112  0.2881  0.7418
 5268TIP3    H137295   3.593   3.071  10.430 -1.5313  2.2315  1.2648
 5268TIP3    H237296   3.449   3.024  10.425 -0.2515 -2.0235  0.1271
 5269TIP3   OH237297   2.924   2.175  11.082  0.9148  0.2399  0.6131
 5269TIP3    H137298   2.838   2.139  11.106  0.7300  1.2787  1.6000
 5269TIP3    H237299   2.915   2.199  10.990 -0.1677  1.1805  0.9445
 5270TIP3   OH237300   4.942   4.622  15.570  0.2822  0.0090  0.2711
 5270TIP3    H137301   4.868   4.579  15.528 -1.5405  1.5019  1.7637
 5270TIP3    H237302   4.995   4.550  15.605 -1.3189 -1.0847  0.5406
 5271TIP3   OH237303   1.852   2.086   0.936 -0.1429  0.1648 -0.7316
 5271TIP3    H137304   1.903   2.088   1.017 -1.9389 -0.6869  0.5004
 5271TIP3    H237305   1.858   2.175   0.901  0.8460  0.4885  0.2159
 5272TIP3   OH237306   2.326   6.127   1.169  0.1154 -0.6068  0.0483
 5272TIP3    H137307   2.381   6.060   1.129 -1.4213 -1.7482 -0.2463
 5272TIP3    H237308   2.296   6.087   1.251  0.1435  0.2120  0.4670
 5273TIP3   OH237309   2.093   6.545  16.678 -0.2564  0.3936 -0.0298
 5273TIP3    H137310   2.062   6.497  16.601  1.3890 -1.9033  0.6264
 5273TIP3    H237311   2.184   6.519  16.688 -0.5230  0.1482  2.9757
 5274TIP3   OH237312   3.790   3.734   1.720 -0.5177 -0.3074  0.0970
 5274TIP3    H137313   3.810   3.644   1.743 -1.0994 -0.0971  1.5262
 5274TIP3    H237314   3.875   3.779   1.720 -0.4744 -0.3542  1.7668
 5275TIP3   OH237315   1.353   1.131  13.256  0.4899  0.1313 -0.5197
 5275TIP3    H137316   1.395   1.083  13.327  0.8508  1.4640  0.2016
 5275TIP3    H237317   1.349   1.069  13.184 -0.0414 -1.3145  0.7065
 5276TIP3   OH237318   0.185   3.133   1.678  0.0841 -0.4907  0.4147
 5276TIP3    H137319   0.152   3.103   1.763 -0.1345  0.0067  0.5107
 5276TIP3    H237320   0.153   3.224   1.671 -1.4340 -1.0729 -0.9833
 5277TIP3   OH237321   5.588   1.924  10.093  0.1871 -0.2531  0.0520
 5277TIP3    H137322   5.669   1.932  10.044  0.5734  1.6170  0.9459
 5277TIP3    H237323   5.547   1.844  10.058  1.5431 -0.2620 -1.6354
 5278TIP3   OH237324   0.070   5.028   2.285  0.2852 -0.1298  0.4734
 5278TIP3    H137325   0.055   5.081   2.207  0.7078 -0.8680 -0.1143
 5278TIP3    H237326  -0.015   5.027   2.329 -0.1034 -0.1691 -0.2597
 5279TIP3   OH237327   2.054   0.274  15.930 -0.0170 -0.0352 -0.4253
 5279TIP3    H137328   2.024   0.210  15.866  1.4588 -2.0032  0.7199
 5279TIP3    H237329   2.116   0.329  15.882 -0.9934  0.3094 -1.3210
 5280TIP3   OH237330   2.565   0.729   0.199  0.3498  0.0997 -0.3497
 5280TIP3    H137331   2.495   0.688   0.249  1.7187 -1.4838  0.3424
 5280TIP3    H237332   2.596   0.800   0.256  0.0654  0.0717 -0.1577
 5281TIP3   OH237333   1.952   2.373   3.905 -0.2772  0.4436 -0.0980
 5281TIP3    H137334   1.902   2.366   3.823  1.7172  1.5036 -1.4887
 5281TIP3    H237335   1.959   2.284   3.937 -2.3300  0.1693 -0.2771
 5282TIP3   OH237336   2.353   6.010  11.100 -0.0052 -0.0881 -0.4787
 5282TIP3    H137337   2.414   6.082  11.085 -0.7396  0.4832 -0.8055
 5282TIP3    H237338   2.343   6.007  11.196  0.8198 -0.4422 -0.3987
 5283TIP3   OH237339   0.982   2.604   3.102 -0.7787 -0.2580  0.5000
 5283TIP3    H137340   1.066   2.581   3.142 -1.1887 -2.2512  0.3440
 5283TIP3    H237341   0.922   2.614   3.175 -0.5033  0.7857  0.5923
 5284TIP3   OH237342   0.371   1.079   1.502 -0.5322 -0.5611  0.4479
 5284TIP3    H137343   0.387   1.005   1.561  2.0529 -1.8525 -1.6868
 5284TIP3    H237344   0.276   1.094   1.508 -0.8058 -2.5584  2.6112
 5285TIP3   OH237345   2.817   2.111   5.799 -0.2472  0.0463  0.2862
 5285TIP3    H137346   2.912   2.118   5.786 -0.2583  1.6152  0.7891
 5285TIP3    H237347   2.805   2.127   5.892 -0.8648 -2.2867  0.6539
 5286TIP3   OH237348   4.538   6.666   2.911 -0.0450  0.1582 -0.2788
 5286TIP3    H137349   4.442   6.666   2.911 -0.0484  0.5529 -0.5592
 5286TIP3    H237350   4.563   6.726   2.981 -0.0070  0.3664 -0.4697
 5287TIP3   OH237351   4.399   4.585   1.308  0.3459  0.1331 -0.9052
 5287TIP3    H137352   4.472   4.582   1.246  1.0493  0.7306 -0.1321
 5287TIP3    H237353   4.391   4.677   1.332  0.5544 -0.1703  0.4145
 5288TIP3   OH237354   5.288   6.128   5.429 -0.4128 -0.8886  0.1583
 5288TIP3    H137355   5.367   6.148   5.480 -0.1301  0.5681 -0.7893
 5288TIP3    H237356   5.223   6.191   5.461  0.0205  0.6568 -1.7791
 5289TIP3   OH237357   3.636   0.717  11.997  0.0064  0.3471 -0.0665
 5289TIP3    H137358   3.605   0.648  12.056 -1.7863  1.8837  0.9167
 5289TIP3    H237359   3.720   0.744  12.034 -0.5102  0.4458  1.0976
 5290TIP3   OH237360   1.620   3.651   1.233  0.2556  0.1564  0.0806
 5290TIP3    H137361   1.589   3.694   1.153  0.1362  1.7138  0.9183
 5290TIP3    H237362   1.638   3.723   1.293  0.6277 -0.9697  1.3672
 5291TIP3   OH237363   1.662   4.745  16.770 -0.1874  0.1646  0.1667
 5291TIP3    H137364   1.697   4.685  16.835  1.4835 -0.2879 -1.0690
 5291TIP3    H237365   1.625   4.817  16.821  0.4620 -0.4809  1.6018
 5292TIP3   OH237366   3.469   3.744  11.236 -0.1747  0.2142 -0.4159
 5292TIP3    H137367   3.513   3.706  11.311  1.1726 -0.0414 -1.3128
 5292TIP3    H237368   3.535   3.799  11.194  0.3989 -2.5858 -3.5693
 5293TIP3   OH237369   2.527   6.756  13.896  0.1087 -0.6240 -0.0891
 5293TIP3    H137370   2.515   6.806  13.816  1.7509 -1.0802 -0.6539
 5293TIP3    H237371   2.607   6.791  13.935  0.7523 -2.0924  0.0040
 5294TIP3   OH237372   5.611   5.326   3.775 -0.0305 -0.0241 -0.2140
 5294TIP3    H137373   5.526   5.314   3.818 -0.4348 -3.0259 -1.6351
 5294TIP3    H237374   5.661   5.248   3.800  2.2796  1.5720  0.4065
 5295TIP3   OH237375   6.055   1.106  16.666 -0.2615  0.5968 -0.0370
 5295TIP3    H137376   6.136   1.064  16.638  0.1314  0.9234  0.5982
 5295TIP3    H237377   5.992   1.035  16.674  0.5877  0.0080  1.7531
 5296TIP3   OH237378   2.024   4.661  14.895 -0.4071 -0.0051  0.0813
 5296TIP3    H137379   2.095   4.717  14.864 -0.5180  0.1007  0.0159
 5296TIP3    H237380   1.944   4.705  14.866 -0.5467  0.4525  1.0865
 5297TIP3   OH237381   6.393   6.843  17.057  0.1853  0.7031  0.2790
 5297TIP3    H137382   6.338   6.920  17.069  0.1181  0.7156 -0.0970
 5297TIP3    H237383   6.476   6.877  17.024  0.0729  0.5928 -0.1178
 5298TIP3   OH237384   1.575   1.643  15.807 -0.0551 -0.3949 -0.4882
 5298TIP3    H137385   1.604   1.574  15.748  0.6861 -4.1610  3.6691
 5298TIP3    H237386   1.654   1.672  15.852 -0.8598  0.2048  0.6097
 5299TIP3   OH237387   4.864   4.062   5.939 -0.0520  0.0834 -0.0852
 5299TIP3    H137388   4.850   4.109   6.021  1.6794 -1.3986  1.1438
 5299TIP3    H237389   4.877   3.971   5.966  2.0434 -0.2041 -1.8312
 5300TIP3   OH237390   5.146   5.516  15.182  0.6691 -0.1454  0.8953
 5300TIP3    H137391   5.220   5.458  15.169  1.7156  1.5131 -1.0969
 5300TIP3    H237392   5.075   5.478  15.130  1.5518  0.6425 -0.9628
 5301TIP3   OH237393   0.574   5.042   0.746  0.3519 -0.1657 -0.2021
 5301TIP3    H137394   0.602   4.952   0.766  1.0939 -0.3103 -1.7094
 5301TIP3    H237395   0.656   5.092   0.745  0.7013 -0.4783 -4.1391
 5302TIP3   OH237396   5.515   5.916   5.283  0.8449  0.1280 -0.3721
 5302TIP3    H137397   5.537   6.009   5.285  0.8119  0.1354  0.6705
 5302TIP3    H237398   5.583   5.876   5.230 -0.5099  1.0574 -2.9474
 5303TIP3   OH237399   0.998   5.509  14.922  0.5974  0.2980  0.1120
 5303TIP3    H137400   0.959   5.475  15.003 -0.2835  1.4006  0.1780
 5303TIP3    H237401   1.032   5.596  14.946  0.1330  0.7293 -0.7426
 5304TIP3   OH237402   5.446   1.791   4.981  0.1171  0.6661  0.1305
 5304TIP3    H137403   5.452   1.794   4.886 -0.3457  0.8117  0.1049
 5304TIP3    H237404   5.449   1.883   5.007 -1.4267  0.7281  0.1503
 5305TIP3   OH237405   0.814   1.766   3.201 -0.4691 -0.1457  0.4111
 5305TIP3    H137406   0.904   1.786   3.176  0.4111  0.4963  3.6292
 5305TIP3    H237407   0.761   1.826   3.148  1.0804  0.4713 -0.5176
 5306TIP3   OH237408   2.018   6.751  12.697 -0.5730 -0.1207 -0.5222
 5306TIP3    H137409   1.954   6.823  12.695  0.4328  0.7925 -1.3664
 5306TIP3    H237410   2.098   6.793  12.730  0.0570 -0.8438 -1.1311
 5307TIP3   OH237411   4.281   4.135   1.342  0.2434  0.0527 -0.1398
 5307TIP3    H137412   4.366   4.092   1.341  0.6711  0.7628  1.5319
 5307TIP3    H237413   4.264   4.153   1.435 -1.7840 -0.1488 -0.4153
 5308TIP3   OH237414   0.611   5.404  14.381 -0.3449 -0.1800  0.2603
 5308TIP3    H137415   0.696   5.414  14.338 -0.2071  0.2790  0.6339
 5308TIP3    H237416   0.630   5.409  14.474 -0.7468 -0.3628  0.3559
 5309TIP3   OH237417   4.785   0.384  13.761  0.1847 -0.0398 -0.8391
 5309TIP3    H137418   4.852   0.316  13.773 -0.6674 -0.8799 -0.7714
 5309TIP3    H237419   4.703   0.336  13.755 -0.9131  1.1231  2.6233
 5310TIP3   OH237420   0.356   4.730  14.214  0.9307  0.1643  0.2305
 5310TIP3    H137421   0.299   4.657  14.239 -0.9747  1.9276  1.3283
 5310TIP3    H237422   0.415   4.693  14.148 -0.9395 -1.9915 -0.3473
 5311TIP3   OH237423   2.473   4.248  14.139 -0.2117 -0.2165 -0.0489
 5311TIP3    H137424   2.427   4.289  14.066  0.1230 -0.1072 -0.1981
 5311TIP3    H237425   2.481   4.317  14.205  0.0669 -0.1332 -0.1712
 5312TIP3   OH237426   4.619   4.052   2.537 -0.0608  0.0994  0.0449
 5312TIP3    H137427   4.614   3.999   2.616 -3.2108  0.0007 -0.0878
 5312TIP3    H237428   4.681   4.006   2.480 -0.4178 -1.7602  1.1118
 5313TIP3   OH237429   4.256   0.700  16.891 -0.1643 -0.1516 -0.3733
 5313TIP3    H137430   4.307   0.659  16.961  0.0437 -2.3003 -1.6950
 5313TIP3    H237431   4.269   0.794  16.904  1.5776 -0.5473  1.1982
 5314TIP3   OH237432   2.129   0.760  12.962 -0.3629 -0.1913  0.1649
 5314TIP3    H137433   2.126   0.822  13.035  1.2516  2.0472 -1.5465
 5314TIP3    H237434   2.066   0.794  12.899  1.1953  0.2958 -1.1856
 5315TIP3   OH237435   6.009   1.338  13.398 -0.5865 -0.2507 -0.0713
 5315TIP3    H137436   5.966   1.403  13.342 -0.6519  0.2973  0.6048
 5315TIP3    H237437   6.074   1.297  13.341 -0.6797  0.2707 -0.5619
 5316TIP3   OH237438   4.664   3.777   0.546 -0.3326  0.4474 -0.4062
 5316TIP3    H137439   4.731   3.822   0.493 -1.2669 -0.7545 -2.7689
 5316TIP3    H237440   4.707   3.697   0.575 -0.3649  0.2284 -0.9453
 5317TIP3   OH237441   0.164   2.598  14.211 -0.0115  0.3289 -0.1914
 5317TIP3    H137442   0.156   2.615  14.305 -1.0630  0.0122 -0.2158
 5317TIP3    H237443   0.255   2.620  14.191  1.0505 -2.1418  1.4030
 5318TIP3   OH237444   0.807   3.445   0.079  0.0843 -0.1123 -0.4454
 5318TIP3    H137445   0.879   3.485   0.030  0.2237 -0.7450 -0.7695
 5318TIP3    H237446   0.728   3.485   0.042  0.0147 -2.0826 -2.7598
 5319TIP3   OH237447   6.253   5.506  14.327 -0.0299  0.1845 -0.3977
 5319TIP3    H137448   6.335   5.499  14.278  0.8308  1.2314  0.8166
 5319TIP3    H237449   6.190   5.541  14.263  0.9616  1.1672 -0.8840
 5320TIP3   OH237450   5.650   5.052  14.427 -0.0323 -0.1325 -0.3032
 5320TIP3    H137451   5.636   4.971  14.478  2.0248 -0.9193 -0.8987
 5320TIP3    H237452   5.742   5.074  14.443  0.1723  0.5778 -2.2893
 5321TIP3   OH237453   1.979   4.352  11.363 -0.2833  0.0943 -0.4029
 5321TIP3    H137454   2.068   4.348  11.397 -0.1271  1.8408 -0.5651
 5321TIP3    H237455   1.987   4.389  11.275 -1.0590 -1.0135 -0.9838
 5322TIP3   OH237456   3.675   5.131   3.929 -0.6674 -1.2791  0.0107
 5322TIP3    H137457   3.611   5.188   3.886 -1.8370 -2.3176  0.3222
 5322TIP3    H237458   3.738   5.111   3.860 -0.4929 -0.0264 -0.2349
 5323TIP3   OH237459   2.333   0.286   4.503 -0.1326 -0.4780 -0.7467
 5323TIP3    H137460   2.381   0.228   4.444  2.0374  1.7289 -1.3156
 5323TIP3    H237461   2.399   0.347   4.536 -1.6762 -0.3104  2.3951
 5324TIP3   OH237462   6.098   5.590  12.898  0.1864 -0.0577  0.1900
 5324TIP3    H137463   6.086   5.502  12.863 -2.0406  0.5124 -0.6332
 5324TIP3    H237464   6.010   5.626  12.905  0.8157  1.1878  3.0535
 5325TIP3   OH237465   2.185   2.066  10.719  0.3861 -0.3334 -0.0094
 5325TIP3    H137466   2.197   2.055  10.814 -3.2595  0.6981  0.7253
 5325TIP3    H237467   2.145   1.984  10.691 -0.3138  0.0676 -0.2172
 5326TIP3   OH237468   3.516   3.391  12.691 -0.1202 -0.5097  0.0552
 5326TIP3    H137469   3.507   3.472  12.741  1.7834  0.1293 -0.5792
 5326TIP3    H237470   3.452   3.400  12.620 -0.8420 -0.1608  0.7384
 5327TIP3   OH237471   2.581   6.495   0.312  0.2991 -0.3178 -0.4451
 5327TIP3    H137472   2.504   6.445   0.339  2.3542 -2.5750  1.7363
 5327TIP3    H237473   2.576   6.575   0.363 -0.0488 -0.9549  0.5637
 5328TIP3   OH237474   5.106   3.052  16.577  0.6762  0.0563  1.2066
 5328TIP3    H137475   5.016   3.043  16.545  0.8537  1.2242  0.3506
 5328TIP3    H237476   5.143   2.964  16.568  0.2158 -0.0161 -0.2687
 5329TIP3   OH237477   0.370   5.771   5.251 -0.6293 -0.2255 -0.1585
 5329TIP3    H137478   0.414   5.834   5.308 -0.3636 -0.5969  0.0545
 5329TIP3    H237479   0.351   5.820   5.171 -0.4805  0.1407  0.0277
 5330TIP3   OH237480   1.870   4.168  13.929  0.0726  0.4166 -0.2042
 5330TIP3    H137481   1.919   4.195  13.851  0.3158  2.1264  0.5051
 5330TIP3    H237482   1.793   4.124  13.895  0.7798  0.0381 -1.3787
 5331TIP3   OH237483   4.965   4.064   0.663  0.6070  0.0367  0.6638
 5331TIP3    H137484   4.984   4.089   0.753  0.8033  1.1380  0.3255
 5331TIP3    H237485   4.918   3.980   0.671 -0.4252  0.6876  1.8425
 5332TIP3   OH237486   2.578   0.774   4.264 -0.1496  0.6376  0.3063
 5332TIP3    H137487   2.554   0.685   4.239  2.6906 -0.9254  2.5188
 5332TIP3    H237488   2.600   0.818   4.182  0.3613 -1.3614 -0.6769
 5333TIP3   OH237489   0.079   0.010  11.427  0.8191 -0.5472  0.0639
 5333TIP3    H137490   0.061   0.098  11.461  1.6912  0.1064 -1.0939
 5333TIP3    H237491   0.001  -0.041  11.451  1.0582  0.0397  2.3283
 5334TIP3   OH237492   1.689   1.198  14.267  0.2305  0.8860  0.3163
 5334TIP3    H137493   1.620   1.248  14.311 -0.4367  0.5780 -0.3493
 5334TIP3    H237494   1.713   1.130  14.330  1.0979  1.9853  1.1997
 5335TIP3   OH237495   3.712   3.405   2.597  0.0231  0.0814  0.7681
 5335TIP3    H137496   3.777   3.349   2.555  0.2161  0.4015  0.6327
 5335TIP3    H237497   3.630   3.357   2.588  0.1793 -0.1588  0.6120
 5336TIP3   OH237498   3.055   1.424   1.693 -0.0567  0.3022 -0.3315
 5336TIP3    H137499   3.070   1.498   1.634  0.6110 -0.0799 -0.6448
 5336TIP3    H237500   3.050   1.465   1.780  0.7515  0.6770 -0.4508
 5337TIP3   OH237501   4.303   1.652  11.056  0.0100  0.5866  0.0924
 5337TIP3    H137502   4.358   1.727  11.033  0.7097 -0.5196 -2.1685
 5337TIP3    H237503   4.350   1.609  11.127  1.3426  0.5036 -0.7936
 5338TIP3   OH237504   2.869   0.233  12.809  0.2251  0.6478 -0.3456
 5338TIP3    H137505   2.857   0.263  12.899 -0.9925 -0.5272 -0.0887
 5338TIP3    H237506   2.783   0.239  12.770  0.4778 -0.0839 -1.0382
 5339TIP3   OH237507   4.403   2.830   2.519  0.4878  0.0455  0.1331
 5339TIP3    H137508   4.469   2.840   2.450 -1.6582  2.3907 -1.7596
 5339TIP3    H237509   4.423   2.900   2.581 -1.8731  2.9801 -2.0996
 5340TIP3   OH237510   1.799   6.121  13.587  0.4115 -0.9400  0.5625
 5340TIP3    H137511   1.743   6.068  13.644  1.3816 -1.2251  1.2875
 5340TIP3    H237512   1.742   6.191  13.554 -0.6583 -1.8930  0.3272
 5341TIP3   OH237513   6.336   2.702  12.315 -0.1238  0.3579  0.8725
 5341TIP3    H137514   6.320   2.622  12.266 -2.6806  0.9684  0.5782
 5341TIP3    H237515   6.349   2.673  12.406  0.7954 -0.4774  0.4919
 5342TIP3   OH237516   6.359   4.840   6.277 -0.2367  0.4258  0.3351
 5342TIP3    H137517   6.392   4.752   6.260 -1.1033 -0.1985  1.7482
 5342TIP3    H237518   6.277   4.826   6.325  0.8750  1.9894  2.8792
 5343TIP3   OH237519   4.107   6.041  16.712 -0.3677 -0.7099  0.7379
 5343TIP3    H137520   4.178   6.062  16.772 -0.6597  1.2446  0.4566
 5343TIP3    H237521   4.147   6.046  16.625 -0.7922  0.1761  0.5921
 5344TIP3   OH237522   3.646   5.969  12.595 -0.4490 -0.1720  0.4607
 5344TIP3    H137523   3.588   6.029  12.640 -0.6308 -0.8865  1.2103
 5344TIP3    H237524   3.611   5.962  12.506  0.0313  1.4061  0.1183
 5345TIP3   OH237525   3.841   0.836   3.789 -0.2199 -0.1318 -0.0511
 5345TIP3    H137526   3.866   0.744   3.786  0.2112 -0.1118  1.9300
 5345TIP3    H237527   3.762   0.838   3.842 -0.1184  0.6728  0.0854
 5346TIP3   OH237528   5.847   4.520  13.261  0.0046 -0.0679  0.3060
 5346TIP3    H137529   5.861   4.510  13.355  0.0211 -2.0314  0.1243
 5346TIP3    H237530   5.762   4.564  13.255 -0.3903 -0.6651  1.2371
 5347TIP3   OH237531   2.269   1.185   1.900  0.2013 -0.0159 -0.4766
 5347TIP3    H137532   2.292   1.277   1.891  0.0885  0.0049 -0.5533
 5347TIP3    H237533   2.251   1.156   1.810  0.8205 -0.2664 -0.5269
 5348TIP3   OH237534   1.598   4.095   0.766 -0.5455  0.0668  0.0584
 5348TIP3    H137535   1.617   4.189   0.765  0.5436 -0.1347  0.7329
 5348TIP3    H237536   1.647   4.061   0.840  1.6160 -1.5620 -1.9696
 5349TIP3   OH237537   6.784   6.517  15.807 -0.4722  0.6368 -0.2795
 5349TIP3    H137538   6.742   6.600  15.830  0.4894  1.2369 -0.6195
 5349TIP3    H237539   6.844   6.540  15.736 -0.6940 -0.4912 -0.8494
 5350TIP3   OH237540   5.895   5.603   2.940  0.2689 -0.3383 -0.2035
 5350TIP3    H137541   5.895   5.679   2.999  0.2030  0.0890 -0.7419
 5350TIP3    H237542   5.803   5.590   2.918  0.3294 -0.2272 -0.5394
 5351TIP3   OH237543   1.967   0.161   1.314  0.5259 -0.0434  0.7810
 5351TIP3    H137544   1.986   0.185   1.224  0.6802  1.9335  1.2921
 5351TIP3    H237545   1.889   0.211   1.337  0.2789 -0.7882  1.6549
 5352TIP3   OH237546   0.199   5.055   5.980 -0.3590  0.4538 -0.4562
 5352TIP3    H137547   0.145   5.102   5.917 -1.0038  0.1694 -0.1237
 5352TIP3    H237548   0.157   5.071   6.065 -0.3483 -0.3752 -0.2874
 5353TIP3   OH237549   2.967   0.606  11.007  0.3701 -0.0779  0.3026
 5353TIP3    H137550   2.955   0.511  11.001  0.1630 -0.0593  0.4281
 5353TIP3    H237551   2.880   0.640  11.026  0.3717  0.1696 -0.1165
 5354TIP3   OH237552   0.430   6.291  14.412 -0.2537 -0.0116 -0.3333
 5354TIP3    H137553   0.377   6.259  14.340  3.3871 -2.7295 -2.1478
 5354TIP3    H237554   0.472   6.370  14.379 -0.0740 -0.1742 -0.5002
 5355TIP3   OH237555   2.484   5.359   0.106  0.0189 -0.0087  0.2930
 5355TIP3    H137556   2.449   5.299   0.040  1.7238 -0.3916 -0.3074
 5355TIP3    H237557   2.576   5.336   0.113  0.9508  3.0320 -0.5125
 5356TIP3   OH237558   5.807   3.635   3.690  0.2872 -0.2961 -0.0602
 5356TIP3    H137559   5.820   3.610   3.782 -0.1983 -0.5456 -0.0522
 5356TIP3    H237560   5.828   3.729   3.687 -1.5780  0.1948  0.7370
 5357TIP3   OH237561   3.586   5.455  10.911  0.4452  0.2252  0.8582
 5357TIP3    H137562   3.616   5.485  10.997  2.3682 -2.1241  1.1069
 5357TIP3    H237563   3.548   5.369  10.928  2.5036 -1.1140 -0.8113
 5358TIP3   OH237564   5.906   5.183  13.089  0.2606  0.1958 -0.1251
 5358TIP3    H137565   5.852   5.108  13.064 -0.8841  0.5782  1.0214
 5358TIP3    H237566   5.978   5.146  13.140 -0.5435 -0.1209  0.8205
 5359TIP3   OH237567   1.203   6.430   3.176 -0.3456 -0.3854  0.9910
 5359TIP3    H137568   1.110   6.417   3.157 -0.3299 -2.0812  1.9071
 5359TIP3    H237569   1.224   6.363   3.242  1.7758 -0.7156  0.0516
 5360TIP3   OH237570   4.719   5.014   5.098  0.0917  0.0876 -0.1957
 5360TIP3    H137571   4.718   4.920   5.080 -0.1198 -0.2491  1.4852
 5360TIP3    H237572   4.710   5.055   5.011 -3.9613 -1.4431 -0.7030
 5361TIP3   OH237573   5.816   6.078   5.028  0.0454  0.4743  0.0674
 5361TIP3    H137574   5.804   6.009   5.093 -0.8816  0.8357  0.3016
 5361TIP3    H237575   5.854   6.034   4.952 -1.0262 -0.4022  0.0139
 5362TIP3   OH237576   4.545   2.334  13.862  0.7991  0.7303  0.0613
 5362TIP3    H137577   4.544   2.239  13.854  0.6213  0.7598 -0.2796
 5362TIP3    H237578   4.637   2.357  13.870  0.8305  0.5148  0.3627
 5363TIP3   OH237579   1.871   4.926   3.080  0.7539 -0.6163  0.4034
 5363TIP3    H137580   1.954   4.911   3.125  0.4866  2.0541  1.9934
 5363TIP3    H237581   1.859   5.021   3.082  1.1851  0.0847 -6.3397
 5364TIP3   OH237582   4.033   1.301   5.559  0.9000 -0.1074 -0.3573
 5364TIP3    H137583   4.022   1.251   5.640  0.7029 -0.5003 -0.6214
 5364TIP3    H237584   4.062   1.388   5.588  0.5029 -0.1369  0.1566
 5365TIP3   OH237585   3.160   0.740   0.981  0.5203 -0.0014  0.0413
 5365TIP3    H137586   3.220   0.691   1.037  1.0030 -1.6681 -1.7995
 5365TIP3    H237587   3.203   0.824   0.967  0.0370  0.7646  2.6781
 5366TIP3   OH237588   2.876   0.215   4.419 -0.0355  0.1216 -0.6579
 5366TIP3    H137589   2.953   0.199   4.474  0.3077 -0.8679 -1.3882
 5366TIP3    H237590   2.802   0.189   4.473  0.2973 -0.8293 -0.6359
 5367TIP3   OH237591   5.976   2.468   5.454 -0.0771 -0.3080 -0.0309
 5367TIP3    H137592   6.069   2.491   5.456 -0.6973  2.4728  1.0504
 5367TIP3    H237593   5.964   2.413   5.532  0.1629  1.8616  1.6306
 5368TIP3   OH237594   2.801   2.521   5.690 -0.2150 -0.0902  0.1902
 5368TIP3    H137595   2.886   2.500   5.728  0.0920 -1.0483 -0.9619
 5368TIP3    H237596   2.738   2.494   5.756  0.1673 -4.0734 -0.8138
 5369TIP3   OH237597   4.955   1.790   3.486 -0.1992  0.2508 -0.2731
 5369TIP3    H137598   4.874   1.819   3.529  0.1548  1.1105 -0.1521
 5369TIP3    H237599   4.969   1.854   3.417 -0.1742 -0.5013 -0.9720
 5370TIP3   OH237600   4.099   0.874  12.118 -0.3100 -0.6813  0.3814
 5370TIP3    H137601   4.096   0.938  12.047 -0.6816 -1.3785 -0.2535
 5370TIP3    H237602   4.190   0.845  12.121 -0.1361 -0.1247  0.6838
 5371TIP3   OH237603   1.826   3.485   3.268  0.8317  0.0441 -0.2258
 5371TIP3    H137604   1.780   3.567   3.252 -1.7522 -1.2884 -0.1901
 5371TIP3    H237605   1.919   3.509   3.271  0.3649  2.5887 -2.4662
 5372TIP3   OH237606   6.007   1.616  15.719  0.0796  0.2630  0.0400
 5372TIP3    H137607   6.088   1.667  15.720 -0.7843  1.7423  2.0755
 5372TIP3    H237608   6.012   1.564  15.639  1.6642  2.5240 -1.4483
 5373TIP3   OH237609   4.064   2.097  15.809 -0.1483 -0.0805  0.3836
 5373TIP3    H137610   4.094   2.169  15.865  2.4174 -0.0298 -0.9007
 5373TIP3    H237611   4.007   2.045  15.865  1.7491  0.3250  2.8876
 5374TIP3   OH237612   5.159   4.936   2.113  0.1532 -0.1762  0.3265
 5374TIP3    H137613   5.184   5.028   2.121  0.3885 -0.2130  0.0381
 5374TIP3    H237614   5.238   4.892   2.081  0.2547 -0.5980  1.1355
 5375TIP3   OH237615   5.594   4.450  11.612 -0.3206  0.2576  0.2138
 5375TIP3    H137616   5.630   4.516  11.672  0.7836 -1.4902  1.5811
 5375TIP3    H237617   5.499   4.453  11.629 -0.2900  1.3990  0.3164
 5376TIP3   OH237618   1.641   4.717  13.345  0.1709 -0.2061 -0.4240
 5376TIP3    H137619   1.621   4.636  13.392  1.0450 -0.5133 -0.5598
 5376TIP3    H237620   1.707   4.760  13.399 -0.0836  0.2829 -0.4962
 5377TIP3   OH237621   4.226   5.922  14.891  0.2027  0.0788  0.0391
 5377TIP3    H137622   4.179   6.005  14.882 -0.7881 -0.3828  0.8012
 5377TIP3    H237623   4.245   5.915  14.984  1.2269 -0.0631 -0.1646
 5378TIP3   OH237624   4.259   6.151  11.097 -0.0729  0.3489  0.4396
 5378TIP3    H137625   4.180   6.162  11.149 -0.0894  3.6324 -0.0318
 5378TIP3    H237626   4.256   6.224  11.034  2.3017 -0.6564 -0.9740
 5379TIP3   OH237627   6.796   2.335   5.902 -0.1670 -0.2654 -0.1133
 5379TIP3    H137628   6.834   2.406   5.851 -0.8274 -0.5666 -1.0549
 5379TIP3    H237629   6.869   2.276   5.919  0.0439 -0.2130 -0.8066
 5380TIP3   OH237630   2.000   1.009   4.512  0.1506 -0.1896  0.6488
 5380TIP3    H137631   2.092   1.004   4.536 -0.0103  0.6197  1.4617
 5380TIP3    H237632   1.985   0.930   4.460  1.2684 -0.3825  0.5959
 5381TIP3   OH237633   4.552   5.278   1.648  0.3642  0.8891  0.1884
 5381TIP3    H137634   4.626   5.217   1.647  0.2226  0.7165 -0.1210
 5381TIP3    H237635   4.475   5.222   1.642  0.2225  1.0845  0.1864
 5382TIP3   OH237636   1.438   4.338  13.403  0.0125  0.5636 -0.0352
 5382TIP3    H137637   1.433   4.379  13.317 -0.8359  0.0278 -0.2516
 5382TIP3    H237638   1.371   4.382  13.455 -1.9496 -1.4471 -0.6902
 5383TIP3   OH237639   2.310   4.744   0.345  0.1591  0.2680 -0.1118
 5383TIP3    H137640   2.392   4.773   0.306  0.3535  0.8613  0.7177
 5383TIP3    H237641   2.330   4.657   0.380  0.2742  0.1720 -0.4148
 5384TIP3   OH237642   4.214   3.834  14.784  0.7135  0.0396  0.8463
 5384TIP3    H137643   4.209   3.829  14.880  0.6849  0.9973  0.8986
 5384TIP3    H237644   4.197   3.926  14.764  1.8019  0.0679 -0.0098
 5385TIP3   OH237645   4.269   2.290   3.614  0.3324  0.5758 -0.5877
 5385TIP3    H137646   4.274   2.305   3.708  3.8409 -2.4102 -0.0666
 5385TIP3    H237647   4.205   2.220   3.604 -1.0105  1.7598 -0.6850
 5386TIP3   OH237648   5.256   4.942  16.606  0.3768  0.0238 -0.6611
 5386TIP3    H137649   5.197   5.012  16.633  1.4003  0.3286  0.9525
 5386TIP3    H237650   5.341   4.985  16.594  0.7983 -0.7702 -0.6179
 5387TIP3   OH237651   0.429   6.495  14.730 -0.2382  0.2668  0.0466
 5387TIP3    H137652   0.449   6.421  14.788 -0.5767 -1.0682 -1.4872
 5387TIP3    H237653   0.501   6.497  14.668 -0.7184  0.6329 -0.5058
 5388TIP3   OH237654   3.816   0.186  12.901 -0.4620  0.0428  0.3494
 5388TIP3    H137655   3.798   0.092  12.894 -1.7494  0.1455  1.6418
 5388TIP3    H237656   3.738   0.228  12.863 -0.4707  0.5671  0.9319
 5389TIP3   OH237657   3.663   4.039  12.422  0.2239 -0.0752  0.3625
 5389TIP3    H137658   3.569   4.037  12.440  0.4442 -0.6239  1.6056
 5389TIP3    H237659   3.672   4.004  12.333 -0.8167  1.0538 -0.2050
 5390TIP3   OH237660   6.437   2.138   4.690  0.3067 -0.6103 -0.0636
 5390TIP3    H137661   6.452   2.132   4.784 -1.5659 -2.3749  0.1829
 5390TIP3    H237662   6.394   2.223   4.678 -1.0657 -1.1464  0.9328
 5391TIP3   OH237663   3.353   4.182   1.506 -0.1276  0.6099  0.2593
 5391TIP3    H137664   3.272   4.215   1.467 -0.7741 -1.4860 -0.3124
 5391TIP3    H237665   3.327   4.148   1.591  0.8745  3.1122  1.6825
 5392TIP3   OH237666   0.054   5.370  13.730 -0.0265  0.1213 -0.4114
 5392TIP3    H137667  -0.020   5.348  13.786  0.3713 -0.6193 -0.1706
 5392TIP3    H237668   0.047   5.465  13.717 -0.1603  0.3024  0.8379
 5393TIP3   OH237669   2.616   4.081  11.987  0.0929  0.8893 -0.6488
 5393TIP3    H137670   2.609   3.992  12.022 -0.4957 -0.0205 -2.8931
 5393TIP3    H237671   2.708   4.104  11.998  0.1514  0.2023  0.3918
 5394TIP3   OH237672   6.379   3.402   3.390  0.3386  0.3310  0.0324
 5394TIP3    H137673   6.370   3.342   3.317  0.4151  0.2109  0.1207
 5394TIP3    H237674   6.473   3.424   3.392  0.6966 -1.1134  1.2270
 5395TIP3   OH237675   1.885   4.638  16.004 -0.0690 -0.1559  0.3855
 5395TIP3    H137676   1.798   4.604  16.027 -1.9075  2.3050 -2.2360
 5395TIP3    H237677   1.909   4.592  15.924  1.4313 -1.2712  1.4186
 5396TIP3   OH237678   4.803   1.200  12.361 -0.3614  0.3348  0.2371
 5396TIP3    H137679   4.761   1.240  12.285 -0.3301 -0.1363 -0.0366
 5396TIP3    H237680   4.739   1.135  12.391 -0.1013  0.0689  0.2150
 5397TIP3   OH237681   4.349   3.164  11.742  0.4679  0.0913  0.3033
 5397TIP3    H137682   4.334   3.170  11.648  0.6866 -0.6173  0.2165
 5397TIP3    H237683   4.444   3.149  11.750  0.7417  1.8941  0.7189
 5398TIP3   OH237684   2.330   4.730  13.830  0.1563  0.1076 -0.0794
 5398TIP3    H137685   2.387   4.753  13.757 -1.2978 -0.5146 -1.4663
 5398TIP3    H237686   2.262   4.797  13.829 -1.6736 -1.6503 -1.4090
 5399TIP3   OH237687   2.403   6.413  16.668  0.4674  0.4601  0.4448
 5399TIP3    H137688   2.408   6.443  16.578  1.1361 -2.6307 -0.6915
 5399TIP3    H237689   2.484   6.444  16.709  0.3539  1.5339 -0.1182
 5400TIP3   OH237690   2.196   3.261  13.737  0.4110 -0.1791  0.4869
 5400TIP3    H137691   2.280   3.302  13.761  1.4315 -1.6268 -0.4583
 5400TIP3    H237692   2.218   3.170  13.720 -1.7241 -1.0683  2.0887
 5401TIP3   OH237693   6.548   4.773   5.350  0.3117  0.4930 -0.1054
 5401TIP3    H137694   6.644   4.778   5.349  0.3999 -0.8638 -0.6522
 5401TIP3    H237695   6.527   4.743   5.439  0.5090 -0.7499 -0.4653
 5402TIP3   OH237696   1.448   0.601   6.616  0.6603  0.1846  0.1788
 5402TIP3    H137697   1.405   0.571   6.696 -0.2548  0.6461 -0.1248
 5402TIP3    H237698   1.393   0.568   6.545  1.0907  0.3484 -0.2364
 5403TIP3   OH237699   4.718   5.299  14.281  0.1954  0.2308  0.2868
 5403TIP3    H137700   4.800   5.339  14.310  0.9269 -1.2338  0.3868
 5403TIP3    H237701   4.744   5.244  14.207 -0.8614  0.4179 -0.2366
 5404TIP3   OH237702   3.962   2.248   2.756  0.3052  0.2235 -0.3989
 5404TIP3    H137703   3.916   2.268   2.675 -1.1638  2.2113  0.8314
 5404TIP3    H237704   3.973   2.153   2.755 -2.3321 -0.1581 -1.5858
 5405TIP3   OH237705   0.148   4.757  13.859  0.3275 -0.0046 -0.0876
 5405TIP3    H137706   0.231   4.717  13.834  0.9716  0.4100  1.3104
 5405TIP3    H237707   0.171   4.821  13.927 -1.1148  0.2113  0.2325
 5406TIP3   OH237708   6.746   1.697  17.071 -0.1853  0.3053 -0.2032
 5406TIP3    H137709   6.809   1.722  17.139  0.3669  1.7890 -1.1896
 5406TIP3    H237710   6.664   1.738  17.098 -0.6832 -1.3389  0.9051
 5407TIP3   OH237711   0.945   2.246  15.427 -0.0391  0.9533 -0.4498
 5407TIP3    H137712   0.960   2.197  15.508  0.1059  2.3122  0.3757
 5407TIP3    H237713   1.000   2.324  15.436 -0.8145  1.6265 -1.3986
 5408TIP3   OH237714   3.854   5.138  14.885  0.7043 -0.0916 -0.3045
 5408TIP3    H137715   3.940   5.170  14.857  0.9472 -0.9515 -0.5920
 5408TIP3    H237716   3.872   5.091  14.966  0.5421 -0.4117 -0.4507
 5409TIP3   OH237717   1.815   4.969  15.820  0.4448 -0.6124  0.3664
 5409TIP3    H137718   1.824   5.064  15.816 -3.1577 -0.0988  1.1188
 5409TIP3    H237719   1.844   4.947  15.909  1.3437 -0.2658  0.1740
 5410TIP3   OH237720   0.211   0.426   5.449 -0.2748 -0.3155  0.5215
 5410TIP3    H137721   0.254   0.419   5.363  1.4702 -0.8869  1.3953
 5410TIP3    H237722   0.246   0.506   5.487 -1.3807  0.1711  0.5532
 5411TIP3   OH237723   4.888   3.952  14.792  0.3923  0.1136 -0.4709
 5411TIP3    H137724   4.825   4.021  14.815  1.2045  1.1126 -1.1272
 5411TIP3    H237725   4.913   3.914  14.876  0.0018  0.6892 -0.0781
 5412TIP3   OH237726   0.975   0.376  15.707  0.6333 -0.2095  0.1304
 5412TIP3    H137727   1.001   0.454  15.756 -0.5332  0.2632  0.0221
 5412TIP3    H237728   0.890   0.353  15.742  0.5855 -0.9267 -0.4474
 5413TIP3   OH237729   1.259   6.236   4.425 -0.2634 -0.6090  0.3122
 5413TIP3    H137730   1.237   6.214   4.335  0.4041 -0.2387  0.0507
 5413TIP3    H237731   1.182   6.283   4.458  0.1155  0.7068 -0.5935
 5414TIP3   OH237732   3.273   2.107  12.901 -0.4488  0.1247  0.3096
 5414TIP3    H137733   3.324   2.131  12.978 -0.8757 -0.8142  0.9120
 5414TIP3    H237734   3.200   2.056  12.936 -0.7611 -0.1489 -0.7029
 5415TIP3   OH237735   4.925   1.888   6.208  0.3891 -0.0726 -0.0883
 5415TIP3    H137736   4.866   1.825   6.251 -0.3166 -1.3562 -2.7055
 5415TIP3    H237737   5.010   1.874   6.249 -0.1361 -1.5238  0.5699
 5416TIP3   OH237738   6.142   3.699  11.370 -0.8080 -0.5058  0.6489
 5416TIP3    H137739   6.061   3.648  11.359 -0.4735 -0.8941 -0.0713
 5416TIP3    H237740   6.134   3.771  11.308 -0.4763 -0.7208  0.3457
 5417TIP3   OH237741   4.975   4.137   6.410  0.1427 -0.1215  0.0292
 5417TIP3    H137742   4.933   4.052   6.419 -2.5948  1.1542  0.3356
 5417TIP3    H237743   5.037   4.141   6.483 -1.5602 -0.8905  1.6127
 5418TIP3   OH237744   0.591   0.474  13.280 -0.6180 -0.1610  0.7355
 5418TIP3    H137745   0.541   0.480  13.361 -0.2849  1.9280  0.8327
 5418TIP3    H237746   0.575   0.557  13.236  2.1071  0.2573  0.3820
 5419TIP3   OH237747   1.121   4.578   1.903 -0.2914  0.5635  0.4825
 5419TIP3    H137748   1.123   4.673   1.911  1.6347  0.7146 -0.9692
 5419TIP3    H237749   1.211   4.554   1.877 -0.9568 -1.5515 -0.1026
 5420TIP3   OH237750   6.786   1.864   3.334 -0.1872  0.1895  0.4529
 5420TIP3    H137751   6.708   1.913   3.361 -0.3283  0.4289 -0.3644
 5420TIP3    H237752   6.823   1.915   3.263 -0.1118 -0.6790 -0.1554
 5421TIP3   OH237753   5.928   1.797  14.105 -0.2920 -1.2979 -0.8856
 5421TIP3    H137754   5.985   1.778  14.031  0.1158 -2.9995 -0.1786
 5421TIP3    H237755   5.986   1.836  14.170 -1.2393  3.5422 -2.5729
 5422TIP3   OH237756   0.045   6.707  12.136 -0.1145  0.0851  0.5185
 5422TIP3    H137757   0.132   6.702  12.097 -0.6680 -1.1773 -0.6778
 5422TIP3    H237758   0.007   6.787  12.100 -0.4702 -0.8525 -1.3724
 5423TIP3   OH237759   5.169   2.233   4.933  0.5882  0.2936  0.9818
 5423TIP3    H137760   5.153   2.299   5.002 -0.7328 -1.6114  2.6121
 5423TIP3    H237761   5.247   2.186   4.962  0.7433  0.2655  0.5250
 5424TIP3   OH237762   4.997   0.829  15.254  0.7590 -0.2430 -0.1346
 5424TIP3    H137763   4.986   0.734  15.257  0.6103 -0.2446 -0.6294
 5424TIP3    H237764   4.982   0.852  15.162  2.4178  0.0507 -0.3708
 5425TIP3   OH237765   1.083   5.846   1.907  0.2904 -0.2087 -0.1201
 5425TIP3    H137766   1.143   5.898   1.962  0.1677  0.0958 -0.2692
 5425TIP3    H237767   1.109   5.867   1.817  1.8092 -2.2312 -0.2263
 5426TIP3   OH237768   3.648   0.826   0.754  0.6617  0.7705 -0.0993
 5426TIP3    H137769   3.609   0.911   0.772  1.4063  1.7957 -2.8420
 5426TIP3    H237770   3.738   0.834   0.786  0.1918  0.2254  1.4857
 5427TIP3   OH237771   3.987   4.804  10.963 -0.0649  0.1836  0.1579
 5427TIP3    H137772   3.974   4.838  10.875 -2.2776  1.4121  0.8793
 5427TIP3    H237773   4.062   4.853  10.997 -0.5268  1.2694 -0.3350
 5428TIP3   OH237774   1.784   3.703   5.625 -0.1800 -0.6665  0.4131
 5428TIP3    H137775   1.805   3.613   5.601 -1.3343 -0.8639  0.0769
 5428TIP3    H237776   1.688   3.705   5.628 -0.1752  0.6087  0.1663
 5429TIP3   OH237777   3.685   0.242  13.547 -0.3518 -0.2959  0.7406
 5429TIP3    H137778   3.740   0.283  13.614 -1.3979  0.0222  1.4415
 5429TIP3    H237779   3.667   0.313  13.485  0.3245 -0.4985  0.3022
 5430TIP3   OH237780   2.133   5.531  15.078 -0.3176  0.0696 -0.1172
 5430TIP3    H137781   2.057   5.541  15.136  0.3122  0.1913  0.7183
 5430TIP3    H237782   2.163   5.620  15.061 -0.3609  0.0231 -0.4404
 5431TIP3   OH237783   1.696   1.803   4.881  0.1168  0.1625  0.4190
 5431TIP3    H137784   1.753   1.844   4.947  0.3837 -0.9877  0.9190
 5431TIP3    H237785   1.749   1.733   4.843 -1.2916 -1.6985  1.7075
 5432TIP3   OH237786   3.543   0.665  15.235 -0.2757  0.3032  0.3566
 5432TIP3    H137787   3.557   0.683  15.142  0.1773  0.7597  0.5096
 5432TIP3    H237788   3.563   0.572  15.244 -3.4722 -0.6137 -0.5976
 5433TIP3   OH237789   4.636   5.240  13.486  0.4293 -0.5118 -0.4716
 5433TIP3    H137790   4.684   5.185  13.424  1.4545  0.1656 -0.2982
 5433TIP3    H237791   4.680   5.225  13.570  0.9136  0.7611 -0.4733
 5434TIP3   OH237792   2.778   6.420  13.206  0.1626 -0.0774  0.2460
 5434TIP3    H137793   2.784   6.441  13.299 -1.4028  0.2668  0.2890
 5434TIP3    H237794   2.779   6.324  13.203 -1.3570 -0.1353  0.7734
 5435TIP3   OH237795   6.362   2.325  13.744  0.2910  0.2486  0.1708
 5435TIP3    H137796   6.440   2.272  13.728  1.2726  2.0786 -1.5518
 5435TIP3    H237797   6.384   2.378  13.821  0.1592 -0.2440  0.5558
 5436TIP3   OH237798   1.132   3.760  16.103  0.2826  0.2091 -0.4188
 5436TIP3    H137799   1.160   3.696  16.037  1.9791  1.2744 -0.7846
 5436TIP3    H237800   1.139   3.713  16.186 -1.9262 -1.1636 -0.9099
 5437TIP3   OH237801   6.650   3.102  16.566  0.1415 -0.3355  0.5841
 5437TIP3    H137802   6.738   3.068  16.551  0.0718 -0.3254  0.1512
 5437TIP3    H237803   6.601   3.027  16.601  1.1219  0.4011  3.9847
 5438TIP3   OH237804   6.390   3.536   2.752 -0.2212 -0.1735 -1.0753
 5438TIP3    H137805   6.308   3.580   2.728 -0.3700  0.1651 -0.0233
 5438TIP3    H237806   6.423   3.587   2.827  0.5865 -0.7307 -1.0422
 5439TIP3   OH237807   3.155   3.205  11.234 -0.3421 -0.1223 -0.6326
 5439TIP3    H137808   3.132   3.140  11.300 -0.2296  1.2869  0.8624
 5439TIP3    H237809   3.079   3.263  11.230  0.3764  0.8656 -0.3550
 5440TIP3   OH237810   3.957   0.750  15.783  0.1190  0.0467 -0.0652
 5440TIP3    H137811   3.993   0.662  15.795  1.4793  0.4145 -1.1751
 5440TIP3    H237812   3.868   0.744  15.818 -0.8372 -2.5209 -2.5082
 5441TIP3   OH237813   1.972   2.879  14.914 -0.4346  0.4415  0.3323
 5441TIP3    H137814   1.902   2.860  14.852  0.6816 -0.3117 -0.7475
 5441TIP3    H237815   2.015   2.795  14.929 -0.6147  0.6304  2.0700
 5442TIP3   OH237816   0.407   6.464   6.031 -0.0593 -0.6028  0.9226
 5442TIP3    H137817   0.499   6.446   6.054  0.0927  0.0391  0.8238
 5442TIP3    H237818   0.387   6.546   6.075 -0.3364 -0.3251  0.2897
 5443TIP3   OH237819   3.727   4.810  16.831  0.0918  0.1136 -0.2882
 5443TIP3    H137820   3.763   4.721  16.832  0.2512  0.1336  1.8653
 5443TIP3    H237821   3.804   4.867  16.843 -0.2929  0.2866  1.8600
 5444TIP3   OH237822   5.606   4.341   6.159  1.1470  0.1082 -0.2937
 5444TIP3    H137823   5.579   4.270   6.216 -0.3508  0.4530 -0.5354
 5444TIP3    H237824   5.546   4.337   6.084  1.1059  1.5306 -0.3743
 5445TIP3   OH237825   6.692   3.559  15.334  0.3602 -0.0773  0.1282
 5445TIP3    H137826   6.697   3.574  15.429  0.7240  1.7718 -0.1464
 5445TIP3    H237827   6.729   3.638  15.296 -0.6873 -0.3708 -1.5854
 5446TIP3   OH237828   5.693   5.602   0.654 -0.8161  0.0397 -0.3400
 5446TIP3    H137829   5.623   5.657   0.619 -0.1232  0.7345 -0.6431
 5446TIP3    H237830   5.769   5.622   0.600 -0.6794 -1.6320 -0.8292
 5447TIP3   OH237831   6.306   5.494   2.180 -0.3269 -0.0893 -0.7304
 5447TIP3    H137832   6.269   5.480   2.093 -0.0863  0.4057 -0.9132
 5447TIP3    H237833   6.279   5.582   2.204  0.5378  0.1919 -0.7692
 5448TIP3   OH237834   1.021   3.722  11.987 -0.4259 -0.3513 -0.7016
 5448TIP3    H137835   1.082   3.686  11.922  0.2757  0.3516 -0.4526
 5448TIP3    H237836   1.076   3.741  12.063 -1.1995 -0.9473  0.0239
 5449TIP3   OH237837   5.298   2.771   5.573 -0.3777 -0.1984  0.4708
 5449TIP3    H137838   5.253   2.792   5.655 -1.0250 -1.4181  0.4611
 5449TIP3    H237839   5.233   2.721   5.523 -0.4358  1.5543 -1.3264
 5450TIP3   OH237840   0.063   1.099   1.921 -0.1253 -0.4425 -0.2589
 5450TIP3    H137841  -0.015   1.149   1.898  0.2203 -0.2716 -1.1039
 5450TIP3    H237842   0.097   1.068   1.837  0.6298 -0.6365  0.1112
 5451TIP3   OH237843   3.362   5.871  14.255 -0.1200 -0.2916 -0.2836
 5451TIP3    H137844   3.298   5.855  14.186 -0.6147 -2.3536  0.5659
 5451TIP3    H237845   3.313   5.912  14.325 -0.5221 -1.6588  0.2753
 5452TIP3   OH237846   6.774   3.644   4.077 -0.4036  0.5486 -0.5128
 5452TIP3    H137847   6.860   3.648   4.118 -0.3001  2.6521 -0.8400
 5452TIP3    H237848   6.786   3.683   3.991 -1.4884 -0.0245 -0.9404
 5453TIP3   OH237849   3.973   0.596   3.808 -0.4477 -0.1818 -0.1275
 5453TIP3    H137850   3.918   0.520   3.790 -0.5994 -0.0911 -0.0544
 5453TIP3    H237851   3.987   0.593   3.903 -0.2774 -0.2376 -0.1545
 5454TIP3   OH237852   4.093   4.602  15.750 -0.3955 -0.2656 -0.8707
 5454TIP3    H137853   4.009   4.603  15.796  0.4012  0.9112  0.6549
 5454TIP3    H237854   4.145   4.537  15.797  0.6168  1.3443  0.3431
 5455TIP3   OH237855   0.976   2.480   5.064  0.3771 -0.2556  0.3003
 5455TIP3    H137856   0.945   2.525   4.985  0.6663  0.5956  0.6571
 5455TIP3    H237857   0.898   2.436   5.098  0.2550 -0.6563 -0.4643
 5456TIP3   OH237858   0.965   4.828  14.638  0.5034 -0.0118  0.7591
 5456TIP3    H137859   0.904   4.774  14.688  0.3986 -0.2064  0.4232
 5456TIP3    H237860   0.911   4.898  14.601  0.6661  0.4334  1.3338
 5457TIP3   OH237861   3.387   2.891   3.780 -0.2247 -0.3147 -0.0052
 5457TIP3    H137862   3.463   2.925   3.827 -0.0963  1.0662 -1.1487
 5457TIP3    H237863   3.374   2.952   3.707 -1.9494 -0.9584 -0.2966
 5458TIP3   OH237864   6.629   6.217   5.562  0.4027  0.3835 -0.5582
 5458TIP3    H137865   6.534   6.201   5.562  0.4912 -0.4782  1.4903
 5458TIP3    H237866   6.665   6.149   5.505 -0.1307  0.0260 -0.4762
 5459TIP3   OH237867   5.778   4.756   0.759  0.4461 -0.2184  0.0663
 5459TIP3    H137868   5.834   4.782   0.832 -0.4650  1.0882  0.3164
 5459TIP3    H237869   5.754   4.838   0.716 -0.3676 -0.8474 -0.7095
 5460TIP3   OH237870   4.380   6.278   1.072  0.5771  0.0651  0.3975
 5460TIP3    H137871   4.428   6.347   1.026  3.0888 -1.1326  1.0505
 5460TIP3    H237872   4.388   6.300   1.165 -0.8111  0.2198  0.4970
 5461TIP3   OH237873   2.257   2.482   2.781 -0.5776 -0.1511  0.0058
 5461TIP3    H137874   2.275   2.568   2.742 -0.3363  0.5993  1.7144
 5461TIP3    H237875   2.163   2.483   2.799 -0.6306 -0.3778 -0.2411
 5462TIP3   OH237876   0.716   4.457  16.923  0.4012  0.3449  0.1012
 5462TIP3    H137877   0.704   4.378  16.975  2.1512 -0.7893 -1.1365
 5462TIP3    H237878   0.799   4.494  16.955  0.2317  0.9942 -0.1954
 5463TIP3   OH237879   4.906   4.348  10.846  0.1356 -0.0262 -0.6918
 5463TIP3    H137880   4.975   4.413  10.859 -0.7096  0.3432  2.6801
 5463TIP3    H237881   4.832   4.398  10.812 -0.2498  0.6933  1.1258
 5464TIP3   OH237882   0.424   6.740   4.135 -0.0130  0.0847  0.1055
 5464TIP3    H137883   0.417   6.825   4.091  0.4111  0.6824  1.1477
 5464TIP3    H237884   0.333   6.715   4.153 -0.1216  1.4841  1.8810
 5465TIP3   OH237885   4.299   3.360   4.482  0.5188  0.5312  0.2172
 5465TIP3    H137886   4.367   3.304   4.445 -1.6664 -1.7559 -0.5788
 5465TIP3    H237887   4.307   3.348   4.576  1.0773  0.1178  0.1264
 5466TIP3   OH237888   5.098   1.685  16.109 -0.2399  0.0426  0.1438
 5466TIP3    H137889   5.087   1.761  16.167 -0.8715 -0.6108  0.9019
 5466TIP3    H237890   5.044   1.617  16.148 -1.6381 -0.0819 -1.8874
 5467TIP3   OH237891   6.315   2.810  13.441 -0.0998 -0.2565  0.2569
 5467TIP3    H137892   6.239   2.813  13.500  0.5825 -2.0651  1.3019
 5467TIP3    H237893   6.383   2.859  13.488 -0.5064  1.1764 -0.5832
 5468TIP3   OH237894   1.237   6.792   5.867  0.1345 -0.5372  0.3463
 5468TIP3    H137895   1.179   6.792   5.942 -4.4255 -1.9681 -2.7384
 5468TIP3    H237896   1.276   6.704   5.867 -1.4980 -1.3046  0.0617
 5469TIP3   OH237897   2.764   5.374  15.579 -0.1729  0.9641 -0.0817
 5469TIP3    H137898   2.794   5.458  15.544  2.7758 -0.2627 -0.8663
 5469TIP3    H237899   2.678   5.361  15.539 -0.4562  3.3099 -0.3919
 5470TIP3   OH237900   3.448   0.276   5.354 -0.0291  0.2755  0.3195
 5470TIP3    H137901   3.389   0.280   5.430 -0.8510  0.5636 -0.3187
 5470TIP3    H237902   3.518   0.338   5.375 -0.9382  1.3552  0.2875
 5471TIP3   OH237903   1.244   0.188  10.961 -0.1005 -0.4997  0.1551
 5471TIP3    H137904   1.239   0.249  11.034 -1.7414 -1.0334  0.5412
 5471TIP3    H237905   1.315   0.129  10.984  0.1231  0.0060  0.7889
 5472TIP3   OH237906   2.349   4.366   3.686 -0.6849 -0.1215 -0.0062
 5472TIP3    H137907   2.441   4.369   3.662 -1.0776  1.3903 -1.5031
 5472TIP3    H237908   2.335   4.445   3.739 -1.0194 -0.6146  0.6589
 5473TIP3   OH237909   2.276   3.345  16.667  0.2647  0.2541 -0.1805
 5473TIP3    H137910   2.299   3.421  16.614  0.7227  1.9550  2.2907
 5473TIP3    H237911   2.358   3.318  16.708 -0.0691 -1.0035 -0.2912
 5474TIP3   OH237912   5.183   0.824   0.477 -0.2565  0.4542 -0.1265
 5474TIP3    H137913   5.193   0.920   0.482  0.5796  0.3858 -0.4077
 5474TIP3    H237914   5.137   0.801   0.558 -1.2171  1.1839 -0.4378
 5475TIP3   OH237915   6.570   1.322   5.456  0.0682  0.4089 -0.2632
 5475TIP3    H137916   6.650   1.272   5.440  0.1575  0.8504 -1.2774
 5475TIP3    H237917   6.567   1.334   5.551 -0.0282 -1.6233  0.0315
 5476TIP3   OH237918   2.434   4.250  14.721 -0.3343  0.0550 -0.3110
 5476TIP3    H137919   2.350   4.254  14.675  0.2726 -0.3357 -1.4978
 5476TIP3    H237920   2.493   4.302  14.667  0.4344 -0.5390 -0.0509
 5477TIP3   OH237921   3.642   1.409  15.836 -0.2685 -0.1004 -0.5541
 5477TIP3    H137922   3.561   1.359  15.831 -0.5867  0.0237  2.0650
 5477TIP3    H237923   3.711   1.343  15.844 -0.2908 -0.1698 -0.9154
 5478TIP3   OH237924   0.030   0.821  11.483 -0.5507  0.1380 -0.6915
 5478TIP3    H137925   0.070   0.853  11.402 -0.1963  0.1504 -0.5132
 5478TIP3    H237926  -0.018   0.896  11.518  0.0341  0.3921 -0.4277
 5479TIP3   OH237927   4.160   0.722  13.367 -0.6829  0.4777 -0.2974
 5479TIP3    H137928   4.191   0.655  13.305 -0.2208 -0.5916  1.0386
 5479TIP3    H237929   4.068   0.701  13.380 -0.6168  0.2926 -0.1225
 5480TIP3   OH237930   3.515   2.612  15.395  0.3502 -0.3062  0.6427
 5480TIP3    H137931   3.428   2.613  15.434  0.3919  1.6551  0.7685
 5480TIP3    H237932   3.574   2.593  15.468  0.2985  1.8459  1.2948
 5481TIP3   OH237933   5.240   1.852   5.982  0.4150 -0.0969 -0.0162
 5481TIP3    H137934   5.196   1.787   6.037  0.7894  0.4325  0.9343
 5481TIP3    H237935   5.248   1.929   6.038  1.5326  0.1903 -0.5493
 5482TIP3   OH237936   0.418   2.009  13.977 -0.2150 -0.5346 -0.0724
 5482TIP3    H137937   0.492   2.055  14.016 -0.4168  1.3744 -1.7665
 5482TIP3    H237938   0.430   1.918  14.004  2.5075 -0.2327  0.0703
 5483TIP3   OH237939   5.062   2.925   1.974  0.2022 -0.1209 -0.0361
 5483TIP3    H137940   5.006   2.947   1.899 -0.0929  0.3101  0.3037
 5483TIP3    H237941   5.116   2.852   1.943  0.3625  0.3127 -0.7980
 5484TIP3   OH237942   6.694   2.573   3.366 -0.2151  0.0685 -0.3846
 5484TIP3    H137943   6.623   2.590   3.428  1.6994  1.8995  1.4815
 5484TIP3    H237944   6.700   2.653   3.313  1.8560  0.9912  1.0850
 5485TIP3   OH237945   0.421   4.634  11.403 -0.0743  0.1878  0.3773
 5485TIP3    H137946   0.343   4.590  11.439  0.4152 -2.7636 -1.7801
 5485TIP3    H237947   0.400   4.648  11.311  2.0968 -1.2992 -0.4326
 5486TIP3   OH237948   5.375   2.477  12.731 -0.2696 -0.4907 -0.0041
 5486TIP3    H137949   5.372   2.456  12.637  0.9826  2.0456 -0.7086
 5486TIP3    H237950   5.454   2.434  12.763 -0.0033 -0.3364 -0.4330
 5487TIP3   OH237951   2.940   0.026  15.077  0.0728 -0.0369 -0.2352
 5487TIP3    H137952   2.956   0.094  15.143  0.0064 -0.4330  0.1919
 5487TIP3    H237953   2.901  -0.046  15.126  1.7922 -1.1037 -0.3452
 5488TIP3   OH237954   0.184   3.109  13.752 -0.0622 -0.0218 -0.5159
 5488TIP3    H137955   0.210   3.021  13.727  1.7690  0.2902  0.1188
 5488TIP3    H237956   0.094   3.100  13.785 -0.2547 -1.4489 -1.3527
 5489TIP3   OH237957   6.605   5.645   3.895 -0.3149 -0.3935 -0.2970
 5489TIP3    H137958   6.672   5.580   3.874  0.5905  0.5413 -0.4117
 5489TIP3    H237959   6.545   5.600   3.955 -0.3422 -1.6594 -1.2338
 5490TIP3   OH237960   5.412   1.199  11.296 -0.4726  0.2079 -0.1924
 5490TIP3    H137961   5.421   1.165  11.207 -2.7383 -0.2951 -0.2945
 5490TIP3    H237962   5.331   1.249  11.295  0.2056  1.4310  1.2528
 5491TIP3   OH237963   6.645   4.974  11.887 -0.0715 -0.0265 -0.1453
 5491TIP3    H137964   6.614   5.021  11.810 -0.5109  0.6553  0.4348
 5491TIP3    H237965   6.732   5.012  11.905 -0.3568  0.4678  0.2257
 5492TIP3   OH237966   5.051   4.754   0.949 -0.1999  0.2109 -0.2223
 5492TIP3    H137967   4.991   4.796   1.010 -0.4160 -0.2538 -0.1091
 5492TIP3    H237968   5.020   4.781   0.862  0.1122  0.8760 -0.1268
 5493TIP3   OH237969   0.345   1.500  13.747  0.1467 -0.7437  0.2503
 5493TIP3    H137970   0.317   1.533  13.662  1.6534 -0.2092 -0.0648
 5493TIP3    H237971   0.351   1.405  13.735  2.3299 -0.5201 -0.9076
 5494TIP3   OH237972   0.569   1.748  17.082  0.4171 -0.2397 -0.0346
 5494TIP3    H137973   0.516   1.826  17.098  2.1898  0.5389  2.8246
 5494TIP3    H237974   0.510   1.675  17.097 -1.0085  0.4850 -1.7328
 5495TIP3   OH237975   5.286   0.542  13.871 -0.3162 -0.5053  0.4267
 5495TIP3    H137976   5.238   0.622  13.850  2.2813  1.5726  1.6513
 5495TIP3    H237977   5.232   0.497  13.936 -0.7853  1.5528  1.5407
 5496TIP3   OH237978   0.301   6.660   0.356 -0.2722  0.2497  0.2011
 5496TIP3    H137979   0.276   6.600   0.286  1.6823 -1.1081  0.5944
 5496TIP3    H237980   0.227   6.658   0.416 -0.8239 -0.6851 -0.4732
 5497TIP3   OH237981   3.951   3.387  15.157  0.7599 -0.7073  0.8835
 5497TIP3    H137982   3.996   3.464  15.193  1.8087 -0.9432  0.1087
 5497TIP3    H237983   3.863   3.392  15.194  0.5668  1.2878  0.2401
 5498TIP3   OH237984   0.374   1.723   2.108  0.2834 -0.0595 -0.3771
 5498TIP3    H137985   0.332   1.641   2.083 -0.1038 -0.4543  1.4028
 5498TIP3    H237986   0.309   1.791   2.087 -1.2434 -0.6304  2.0113
 5499TIP3   OH237987   4.707   1.806  12.651  0.0103  0.0957 -0.1062
 5499TIP3    H137988   4.747   1.734  12.700  2.6141  0.1583 -1.9532
 5499TIP3    H237989   4.667   1.763  12.574  2.3413  0.5643 -1.6875
 5500TIP3   OH237990   3.287   3.670   2.701  0.1304  0.0094  0.2748
 5500TIP3    H137991   3.213   3.726   2.723  0.4311  0.7547 -0.5834
 5500TIP3    H237992   3.264   3.632   2.616  0.7856  0.3502 -0.0588
 5501TIP3   OH237993   1.702   5.980  16.139 -0.0906  0.1801  0.1122
 5501TIP3    H137994   1.708   5.901  16.194  0.5136 -0.2446 -0.5528
 5501TIP3    H237995   1.791   5.996  16.110 -0.3761  0.4933 -0.6226
 5502TIP3   OH237996   2.110   0.035  14.994  0.5318 -0.1414 -0.2751
 5502TIP3    H137997   2.023   0.048  15.031  0.9106 -0.4334  0.7561
 5502TIP3    H237998   2.120   0.106  14.930 -1.6014 -1.8269 -2.6340
 5503TIP3   OH237999   6.284   6.051  12.676 -0.2487 -0.1845 -0.2526
 5503TIP3    H138000   6.190   6.049  12.656 -0.5243  0.5086  0.8624
 5503TIP3    H238001   6.289   6.090  12.763  1.0525 -0.6780 -0.0831
 5504TIP3   OH238002   3.123   2.588  13.741 -0.5026 -0.9804 -0.1470
 5504TIP3    H138003   3.128   2.535  13.662  1.7942 -1.5267  0.2647
 5504TIP3    H238004   3.140   2.526  13.812 -0.2893 -0.1249  0.5671
 5505TIP3   OH238005   1.435   1.880   3.268 -0.1151  0.0173 -0.1771
 5505TIP3    H138006   1.530   1.870   3.272 -0.1189 -0.6817 -1.2267
 5505TIP3    H238007   1.400   1.800   3.309 -0.1710 -1.9223 -3.5627
 5506TIP3   OH238008   5.474   6.098  12.610 -0.3413 -0.2593  0.6070
 5506TIP3    H138009   5.541   6.157  12.645  2.1806 -1.8348 -1.1912
 5506TIP3    H238010   5.463   6.032  12.678 -1.4734  0.9407  1.6523
 5507TIP3   OH238011   3.329   3.594   1.486  0.4214 -0.3753 -0.2309
 5507TIP3    H138012   3.391   3.581   1.558 -0.0463 -0.5656  0.1465
 5507TIP3    H238013   3.378   3.643   1.420  1.2861 -1.4030 -0.3797
 5508TIP3   OH238014   5.571   6.363   4.038 -0.2056  0.1190 -0.5421
 5508TIP3    H138015   5.574   6.330   3.948  1.4130  1.0839 -0.8665
 5508TIP3    H238016   5.663   6.371   4.065 -0.6395  0.5854  0.9342
 5509TIP3   OH238017   0.215   4.601  14.881 -0.1673 -0.6652 -0.3735
 5509TIP3    H138018   0.160   4.665  14.928 -0.6124 -0.4644 -1.1427
 5509TIP3    H238019   0.300   4.644  14.874  0.0379 -0.8795  0.6230
 5510TIP3   OH238020   3.884   3.471   6.183  0.0593 -0.2091  0.0434
 5510TIP3    H138021   3.912   3.385   6.152  1.0253 -0.2464  0.9788
 5510TIP3    H238022   3.929   3.533   6.126  0.5054 -0.3069  0.2830
 5511TIP3   OH238023   2.897   1.294   0.354  0.1355 -0.7473 -0.4973
 5511TIP3    H138024   2.950   1.240   0.413  0.3975  0.9408  0.9089
 5511TIP3    H238025   2.834   1.337   0.412  0.2403  0.7927 -1.4633
 5512TIP3   OH238026   1.167   4.180   1.975  0.7867 -0.1298  0.6433
 5512TIP3    H138027   1.145   4.184   2.068 -0.7660 -1.2594  0.3577
 5512TIP3    H238028   1.133   4.096   1.945  0.9014  0.3823 -1.0378
 5513TIP3   OH238029   3.982   1.271   2.201 -0.0718 -0.2832 -0.0862
 5513TIP3    H138030   3.903   1.323   2.183  1.2690  1.4507 -1.3512
 5513TIP3    H238031   3.998   1.223   2.120  0.9457  0.4769 -0.3483
 5514TIP3   OH238032   2.894   3.837   5.357  0.5215 -0.2154  0.2556
 5514TIP3    H138033   2.832   3.902   5.324  1.4454  0.6081  0.0993
 5514TIP3    H238034   2.934   3.878   5.433  1.7114 -0.2579 -0.3262
 5515TIP3   OH238035   3.203   4.227  13.451  0.2913  0.5075 -0.0253
 5515TIP3    H138036   3.263   4.300  13.435 -0.7656  1.6548  1.0718
 5515TIP3    H238037   3.230   4.192  13.536  0.6700 -0.2864 -0.4585
 5516TIP3   OH238038   4.209   0.062   3.135 -0.3902  0.6686 -0.6970
 5516TIP3    H138039   4.271   0.089   3.202  1.2127 -0.3397 -1.7073
 5516TIP3    H238040   4.211   0.132   3.070 -0.7994  0.9280 -0.4360
 5517TIP3   OH238041   4.440   1.116   4.327  0.1975  0.0083  0.6045
 5517TIP3    H138042   4.535   1.129   4.328  0.4661 -1.6784  0.3957
 5517TIP3    H238043   4.409   1.161   4.405  1.1554  0.6518  0.6346
 5518TIP3   OH238044   4.315   0.671   1.435  0.2587 -0.0531  0.3231
 5518TIP3    H138045   4.337   0.691   1.344 -3.5989  1.4419 -0.4500
 5518TIP3    H238046   4.339   0.749   1.484  0.4662 -0.0582  0.2292
 5519TIP3   OH238047   2.736   3.905   5.770  0.4603 -0.5686 -0.0134
 5519TIP3    H138048   2.670   3.883   5.704 -0.2026  1.2989 -0.0392
 5519TIP3    H238049   2.811   3.935   5.720  0.5175 -0.5804  0.0653
 5520TIP3   OH238050   1.208   5.331   4.736 -0.2861 -0.0579  0.0365
 5520TIP3    H138051   1.222   5.425   4.723 -1.1366 -0.1224 -1.6324
 5520TIP3    H238052   1.119   5.324   4.770  0.6880 -0.1429  2.8026
 5521TIP3   OH238053   2.044   4.500  14.673  0.1894 -0.2127 -0.1165
 5521TIP3    H138054   2.092   4.425  14.708  1.6941  0.2493 -1.0813
 5521TIP3    H238055   2.045   4.564  14.744  0.6749 -0.3618  0.0163
 5522TIP3   OH238056   1.495   2.196   0.380 -0.0629  0.3411 -0.0855
 5522TIP3    H138057   1.450   2.257   0.321  0.3115 -0.5547 -1.3494
 5522TIP3    H238058   1.427   2.133   0.405  0.3023 -0.6961 -1.5609
 5523TIP3   OH238059   3.260   1.670  16.906  0.7008  0.3356  0.2768
 5523TIP3    H138060   3.193   1.656  16.973  0.0274 -0.5973 -0.5462
 5523TIP3    H238061   3.319   1.735  16.943 -0.2796  0.6643  1.3147
 5524TIP3   OH238062   0.560   5.401  10.963  0.1971  0.5128  0.0622
 5524TIP3    H138063   0.619   5.383  11.036  0.0355 -0.9140 -0.1265
 5524TIP3    H238064   0.491   5.335  10.971 -0.0431  0.5900 -1.1246
 5525TIP3   OH238065   3.552   5.557  14.031  0.3254  0.1351  0.1708
 5525TIP3    H138066   3.639   5.581  13.999 -0.5879  2.1529 -0.9379
 5525TIP3    H238067   3.563   5.550  14.126  1.6126  0.7657  0.0914
 5526TIP3   OH238068   0.653   5.143  12.216 -0.1922  0.6581  0.1512
 5526TIP3    H138069   0.708   5.066  12.230 -0.9709  0.0012 -0.2872
 5526TIP3    H238070   0.690   5.209  12.274  0.6289  0.0245  0.3793
 5527TIP3   OH238071   1.613   0.977   4.928 -0.1683  0.2344  0.2508
 5527TIP3    H138072   1.615   0.926   4.847  1.2421  2.3623 -1.1626
 5527TIP3    H238073   1.677   0.934   4.984 -1.6657 -1.6898  0.5824
 5528TIP3   OH238074   0.721   4.808  15.951  0.2334 -0.6420  0.0658
 5528TIP3    H138075   0.772   4.809  16.032  0.3506 -0.6671 -0.0078
 5528TIP3    H238076   0.674   4.892  15.952 -1.0400 -1.3296  0.9596
 5529TIP3   OH238077   3.323   2.545   2.765  0.0319 -0.4727  0.1612
 5529TIP3    H138078   3.287   2.536   2.677 -0.7030 -0.1379  0.4176
 5529TIP3    H238079   3.298   2.633   2.792  0.5319 -0.4562  0.5836
 5530TIP3   OH238080   5.995   6.254   6.252 -0.3800  0.1776 -0.0963
 5530TIP3    H138081   6.081   6.215   6.239 -0.5227 -0.1788  0.0418
 5530TIP3    H238082   5.976   6.242   6.345  0.2688  1.9897  0.3114
 5531TIP3   OH238083   3.548   3.782   4.900  0.0934  0.2923 -0.0377
 5531TIP3    H138084   3.508   3.715   4.956  1.3466 -0.8537 -0.4644
 5531TIP3    H238085   3.483   3.796   4.831 -0.7153  0.4349  0.7271
 5532TIP3   OH238086   1.722   2.587  14.601 -0.1821 -0.7211 -0.0571
 5532TIP3    H138087   1.746   2.496  14.586  0.2708 -0.4558 -1.0367
 5532TIP3    H238088   1.671   2.612  14.524  2.5370  0.8024 -1.5006
 5533TIP3   OH238089   5.641   4.749  13.437 -0.8345  0.2832 -0.1583
 5533TIP3    H138090   5.713   4.782  13.383 -1.4841 -0.3686 -1.4872
 5533TIP3    H238091   5.566   4.803  13.411 -0.7603  1.3116  1.5872
 5534TIP3   OH238092   0.735   6.173   4.732 -0.2798  0.2051  0.3312
 5534TIP3    H138093   0.687   6.243   4.687 -2.2277 -2.6956 -2.5124
 5534TIP3    H238094   0.682   6.155   4.810 -0.5429  0.9444  0.3345
 5535TIP3   OH238095   0.073   4.473   1.126 -0.4410 -0.7274 -0.6019
 5535TIP3    H138096   0.152   4.501   1.171  1.5293 -2.0323 -2.9877
 5535TIP3    H238097   0.007   4.466   1.195  1.1875  1.3984  1.3317
 5536TIP3   OH238098   0.102   3.155   4.515  0.1180 -0.2700 -0.4666
 5536TIP3    H138099   0.159   3.210   4.569 -1.4050  1.7303 -0.7430
 5536TIP3    H238100   0.162   3.096   4.468  1.5290 -1.8467  3.0005
 5537TIP3   OH238101   0.634   5.767   3.590  0.1515  0.1615 -0.0596
 5537TIP3    H138102   0.695   5.806   3.653  0.2846  0.4634 -0.3708
 5537TIP3    H238103   0.681   5.691   3.554  0.5421  0.6622 -0.6427
 5538TIP3   OH238104   6.428   5.504   1.700  0.0482  0.0833  0.0140
 5538TIP3    H138105   6.415   5.439   1.770  0.5483  0.1173  0.1460
 5538TIP3    H238106   6.370   5.576   1.723  0.4263  0.2204  0.5636
 5539TIP3   OH238107   5.652   4.392   2.165 -0.3096  0.2318 -0.2287
 5539TIP3    H138108   5.647   4.459   2.097  0.7663 -0.2652 -0.8292
 5539TIP3    H238109   5.650   4.309   2.117  2.7807 -0.1405  0.0652
 5540TIP3   OH238110   1.956   6.776  16.700 -0.1873 -0.5231  0.2219
 5540TIP3    H138111   1.958   6.800  16.792  1.1583 -1.9090  0.5797
 5540TIP3    H238112   1.988   6.686  16.697 -2.2233 -1.2869 -1.3745
 5541TIP3   OH238113   4.300   5.146   1.977  0.2958 -0.2091 -0.0285
 5541TIP3    H138114   4.294   5.199   2.056  1.9556  1.0362 -0.6701
 5541TIP3    H238115   4.209   5.124   1.955 -0.1918 -0.5575  2.1569
 5542TIP3   OH238116   6.822   5.361  10.535 -0.2065  0.5004  0.2118
 5542TIP3    H138117   6.903   5.363  10.585 -0.3884 -0.9155  0.6056
 5542TIP3    H238118   6.814   5.450  10.500  1.8391  0.5031 -0.3934
 5543TIP3   OH238119   3.547   3.720   5.913 -0.4017 -0.4104 -0.3083
 5543TIP3    H138120   3.582   3.639   5.950 -1.4195 -0.0182  1.7039
 5543TIP3    H238121   3.611   3.747   5.848  1.5077 -1.2726  1.1102
 5544TIP3   OH238122   5.193   3.419  13.164  0.2746  0.2058 -0.6175
 5544TIP3    H138123   5.261   3.413  13.098  0.6346  1.9730 -0.4392
 5544TIP3    H238124   5.118   3.372  13.126  0.9060  0.0529 -1.6873
 5545TIP3   OH238125   5.444   2.126   3.887  0.9870  0.8776  0.0219
 5545TIP3    H138126   5.501   2.180   3.832  2.9628  0.6692  1.7451
 5545TIP3    H238127   5.500   2.097   3.958 -0.6120 -1.6098  0.3891
 5546TIP3   OH238128   3.169   1.127   3.553 -0.1413 -0.5912  0.6740
 5546TIP3    H138129   3.106   1.196   3.577  1.8281  0.9908  1.5835
 5546TIP3    H238130   3.224   1.117   3.631  1.3966 -1.1266 -0.4371
 5547TIP3   OH238131   5.921   3.878  14.443 -0.3204  0.1343 -0.0435
 5547TIP3    H138132   5.895   3.886  14.351  0.7127  1.6835 -0.2404
 5547TIP3    H238133   5.926   3.784  14.458  0.9790 -0.1845 -2.0430
 5548TIP3   OH238134   4.912   2.027   0.743  0.1193  0.2130 -0.1397
 5548TIP3    H138135   4.832   1.974   0.747 -0.4664  1.1221  0.5340
 5548TIP3    H238136   4.899   2.094   0.809  1.3186  0.5654 -0.2491
 5549TIP3   OH238137   1.818   5.675   0.584 -0.0512 -0.1081 -0.2064
 5549TIP3    H138138   1.816   5.584   0.552 -0.6145 -0.9625  2.0462
 5549TIP3    H238139   1.900   5.710   0.549  0.7028 -1.8311 -0.3168
 5550TIP3   OH238140   2.138   3.483  16.416  0.9643  0.4203 -0.0857
 5550TIP3    H138141   2.069   3.420  16.437 -0.0307  1.2962 -0.6355
 5550TIP3    H238142   2.192   3.438  16.350  1.4003 -0.5617  0.9048
 5551TIP3   OH238143   0.287   0.425   0.952 -0.3881 -0.5537 -0.3940
 5551TIP3    H138144   0.350   0.423   0.880  0.3429 -0.3263  0.2230
 5551TIP3    H238145   0.222   0.359   0.930  0.5766 -1.4460 -0.5973
 5552TIP3   OH238146   1.178   5.035  11.681 -0.0543  0.6184  0.7270
 5552TIP3    H138147   1.223   5.105  11.633  0.5319 -0.6864 -0.7591
 5552TIP3    H238148   1.162   4.968  11.614 -0.1994 -0.8412  2.1695
 5553TIP3   OH238149   1.116   4.297  10.688  0.0696 -0.1556  0.1360
 5553TIP3    H138150   1.047   4.355  10.719 -0.0368  0.9362 -1.9628
 5553TIP3    H238151   1.095   4.211  10.726 -1.2243  0.6152  1.2260
 5554TIP3   OH238152   0.949   5.667   0.773  0.3369  0.2282 -0.1458
 5554TIP3    H138153   1.015   5.609   0.812  0.9613  0.8317 -0.2837
 5554TIP3    H238154   0.999   5.724   0.715 -0.2124  1.1318  0.2448
 5555TIP3   OH238155   6.768   1.311  11.058 -0.3801  0.0611  0.1924
 5555TIP3    H138156   6.812   1.296  10.975 -0.2511  2.1665 -0.1863
 5555TIP3    H238157   6.838   1.309  11.124  0.0691  1.7114 -0.1961
 5556TIP3   OH238158   1.615   5.261  16.307 -0.0203  0.3374 -0.4952
 5556TIP3    H138159   1.603   5.173  16.343 -1.2493  0.2828 -0.9923
 5556TIP3    H238160   1.530   5.283  16.269  0.3411  1.6579 -0.5683
 5557TIP3   OH238161   1.096   2.274  13.644 -0.3296  0.2785 -0.2658
 5557TIP3    H138162   1.064   2.202  13.698  0.0277 -0.0442 -0.4687
 5557TIP3    H238163   1.026   2.290  13.580  0.0370 -0.6613 -0.9350
 5558TIP3   OH238164   5.145   3.481   5.574 -0.1588 -0.1072 -0.6067
 5558TIP3    H138165   5.171   3.573   5.569 -2.0813  0.5175  0.0884
 5558TIP3    H238166   5.172   3.445   5.490  1.4962  0.8372 -0.5142
 5559TIP3   OH238167   0.764   2.033   2.484 -0.1083 -0.0631  0.0598
 5559TIP3    H138168   0.751   2.065   2.395 -1.5227  0.1354  0.3127
 5559TIP3    H238169   0.716   1.950   2.487  0.9946 -0.7148  0.2863
 5560TIP3   OH238170   4.094   0.188  11.220 -0.3684 -0.1137  0.1955
 5560TIP3    H138171   4.036   0.118  11.251 -0.9286  1.0128  1.8110
 5560TIP3    H238172   4.178   0.171  11.263 -0.3152 -0.1247  0.0901
 5561TIP3   OH238173   4.583   1.371  11.140 -0.6397  0.2118  0.6344
 5561TIP3    H138174   4.583   1.450  11.085 -1.1214 -0.9485 -1.1060
 5561TIP3    H238175   4.524   1.393  11.213 -0.1487  1.7134  0.6286
 5562TIP3   OH238176   2.060   2.845   2.341 -0.1655  0.1292  0.2634
 5562TIP3    H138177   1.975   2.823   2.304 -0.3922  1.3288  0.0308
 5562TIP3    H238178   2.123   2.821   2.272 -0.4903  1.1511 -0.4225
 5563TIP3   OH238179   3.054   3.095   4.109 -0.1329 -0.1568 -0.1688
 5563TIP3    H138180   3.116   3.148   4.059  1.9759 -2.2183  0.0755
 5563TIP3    H238181   3.000   3.053   4.042  0.8460 -0.7582 -0.6064
 5564TIP3   OH238182   5.721   1.165  12.839 -0.2176  0.0211  0.2030
 5564TIP3    H138183   5.789   1.192  12.777 -0.4687  0.8597  0.2755
 5564TIP3    H238184   5.684   1.247  12.872  1.0324 -0.3332  2.7493
 5565TIP3   OH238185   2.112   4.613  16.641 -0.0053 -0.6448 -0.6188
 5565TIP3    H138186   2.060   4.588  16.718 -0.4687  0.0728 -0.6840
 5565TIP3    H238187   2.094   4.545  16.577  0.3059 -1.1992 -0.1287
 5566TIP3   OH238188   2.076   0.042   3.145 -0.0410 -0.1879  0.7597
 5566TIP3    H138189   2.016  -0.027   3.117 -1.9695  2.0638 -1.1711
 5566TIP3    H238190   2.155   0.028   3.092 -0.3740 -0.9645  0.4496
 5567TIP3   OH238191   6.126   6.104  12.116 -0.7369  0.2666  0.2092
 5567TIP3    H138192   6.130   6.032  12.053 -0.0347 -0.4626  1.0705
 5567TIP3    H238193   6.046   6.152  12.092 -0.4011  0.1044 -1.3277
 5568TIP3   OH238194   1.769   4.427  15.064 -0.2067  0.0535  0.1294
 5568TIP3    H138195   1.759   4.353  15.004 -2.6283 -0.0222  0.5245
 5568TIP3    H238196   1.688   4.428  15.114 -1.5935  4.6727 -1.7151
 5569TIP3   OH238197   6.826   6.571  16.585 -0.0454 -0.1469 -0.3706
 5569TIP3    H138198   6.913   6.544  16.555  0.5413  0.4330  0.7440
 5569TIP3    H238199   6.831   6.569  16.680  0.2994  4.3198 -0.0836
 5570TIP3   OH238200   2.522   0.803  11.723  1.0634  0.4679 -0.2830
 5570TIP3    H138201   2.460   0.772  11.657  1.9148  3.1956 -2.5313
 5570TIP3    H238202   2.477   0.876  11.765  2.1770  1.5850 -0.9803
 5571TIP3   OH238203   0.050   6.302  11.640  0.0041  0.1633 -0.2411
 5571TIP3    H138204   0.128   6.266  11.682  0.2666  0.8034 -0.1619
 5571TIP3    H238205   0.044   6.257  11.556  0.8566  0.5958 -0.5452
 5572TIP3   OH238206   4.550   4.705  14.510 -0.5593 -0.1975 -0.8868
 5572TIP3    H138207   4.583   4.715  14.420 -1.9332  0.3277 -1.3581
 5572TIP3    H238208   4.455   4.713  14.501 -0.6088  2.6303  0.9410
 5573TIP3   OH238209   0.642   6.650   4.988  0.2916  0.0139  0.3601
 5573TIP3    H138210   0.653   6.694   5.072 -1.8098  4.1810 -1.2475
 5573TIP3    H238211   0.591   6.571   5.009 -2.8177  2.3915  2.8866
 5574TIP3   OH238212   2.063   0.905  10.419 -0.6127  0.4970  0.5311
 5574TIP3    H138213   1.996   0.847  10.454  1.6095 -1.8685  1.1330
 5574TIP3    H238214   2.018   0.954  10.350 -2.5715 -2.1402 -0.2286
 5575TIP3   OH238215   5.648   6.580   1.216  0.0285 -0.3469 -0.0592
 5575TIP3    H138216   5.655   6.484   1.220 -0.0140 -0.3391  0.2445
 5575TIP3    H238217   5.720   6.611   1.271 -0.8090 -0.2276  0.9983
 5576TIP3   OH238218   5.183   1.325  14.105 -0.1938 -0.4579  0.5426
 5576TIP3    H138219   5.201   1.378  14.027  0.5007  1.4677  1.9276
 5576TIP3    H238220   5.104   1.363  14.142  0.8001  0.2376  2.0372
 5577TIP3   OH238221   5.962   2.800   1.109  0.0715  0.4449  0.2090
 5577TIP3    H138222   5.997   2.775   1.024  0.1290  0.1251  0.3237
 5577TIP3    H238223   5.892   2.736   1.126  1.1425 -0.5322  1.1406
 5578TIP3   OH238224   3.437   0.532   2.633 -0.0829 -0.3238 -0.0078
 5578TIP3    H138225   3.459   0.592   2.704 -0.3592 -1.8336  1.4127
 5578TIP3    H238226   3.391   0.459   2.676 -1.0056 -0.8975 -1.8468
 5579TIP3   OH238227   4.182   5.173  15.450 -0.0058  0.2660 -0.0616
 5579TIP3    H138228   4.147   5.250  15.495  2.3229  0.9527  0.7272
 5579TIP3    H238229   4.155   5.100  15.504 -1.7489  0.5460 -0.4984
 5580TIP3   OH238230   2.174   3.508  14.464 -0.1528  0.2206 -0.0512
 5580TIP3    H138231   2.238   3.577  14.483 -1.2830  0.9007  1.4898
 5580TIP3    H238232   2.114   3.509  14.539 -0.7432 -1.8349 -0.4273
 5581TIP3   OH238233   6.835   5.034  11.000  0.5239  0.0250  0.1233
 5581TIP3    H138234   6.831   5.081  10.917 -0.4530  1.4209  0.9269
 5581TIP3    H238235   6.926   5.006  11.007  1.0007  1.2934 -0.6617
 5582TIP3   OH238236   3.627   1.125  10.981 -0.0985 -0.0656  0.1524
 5582TIP3    H138237   3.551   1.078  10.948 -1.2023  1.0564  1.0275
 5582TIP3    H238238   3.675   1.151  10.902 -0.3906 -1.1162 -0.3921
 5583TIP3   OH238239   3.232   1.247   1.533  0.1421  0.3557  0.2113
 5583TIP3    H138240   3.175   1.300   1.590  0.7518  0.8455  0.3741
 5583TIP3    H238241   3.182   1.167   1.518 -0.4694  0.6529  0.5947
 5584TIP3   OH238242   3.104   0.770  14.059 -0.0496 -0.2093 -0.2438
 5584TIP3    H138243   3.022   0.781  14.010 -0.8030  0.3727  1.0919
 5584TIP3    H238244   3.134   0.682  14.036 -1.0959 -0.4731 -0.6726
 5585TIP3   OH238245   4.723   5.738   5.513  0.1444 -0.5374 -0.2525
 5585TIP3    H138246   4.732   5.678   5.587 -1.3202 -0.5882 -0.0810
 5585TIP3    H238247   4.712   5.824   5.553 -1.9045 -0.7182 -0.3075
 5586TIP3   OH238248   1.271   0.835   3.266 -0.0409  0.8432  0.2865
 5586TIP3    H138249   1.270   0.928   3.289 -0.8072  0.1900  3.2610
 5586TIP3    H238250   1.256   0.834   3.171 -0.5382  3.7079  0.2461
 5587TIP3   OH238251   6.710   0.013   2.592  0.4760  0.0513  0.0738
 5587TIP3    H138252   6.709   0.025   2.687 -2.2331  2.0617 -0.0836
 5587TIP3    H238253   6.714   0.102   2.557 -0.7260 -0.5148 -1.6389
 5588TIP3   OH238254   1.699   4.465   1.035 -0.6088  0.0201  0.1990
 5588TIP3    H138255   1.647   4.431   0.962  0.3648 -1.7408  0.2755
 5588TIP3    H238256   1.635   4.483   1.104 -1.4946  1.3333 -0.9038
 5589TIP3   OH238257   4.341   2.937  16.636 -0.0876  0.2321  0.0741
 5589TIP3    H138258   4.329   3.018  16.586 -1.8647  1.6566  2.5622
 5589TIP3    H238259   4.436   2.930  16.647  0.3243  0.2249 -2.7446
 5590TIP3   OH238260   4.487   5.643   5.052 -0.2692 -0.3833  0.4895
 5590TIP3    H138261   4.517   5.701   5.121 -1.3987  0.0267  0.6500
 5590TIP3    H238262   4.448   5.701   4.986  1.1304 -0.7210 -0.7130
 5591TIP3   OH238263   2.691   2.109  15.527  0.9480  0.3101 -0.0342
 5591TIP3    H138264   2.622   2.149  15.582 -0.1625 -2.2144  0.5572
 5591TIP3    H238265   2.770   2.114  15.581 -0.0267 -1.7043  1.7237
 5592TIP3   OH238266   5.162   4.102  15.155 -0.2153 -0.4105  0.3119
 5592TIP3    H138267   5.204   4.174  15.107 -1.6432 -0.4174 -0.9925
 5592TIP3    H238268   5.111   4.146  15.223 -1.0594 -0.1716 -0.4614
 5593TIP3   OH238269   2.106   6.505  12.558 -0.0656 -0.2016 -0.3248
 5593TIP3    H138270   2.077   6.576  12.615  1.7508  0.1165  0.2916
 5593TIP3    H238271   2.121   6.547  12.473  0.1132 -0.0419 -0.2154
 5594TIP3   OH238272   0.234   5.028   1.376  0.1367  0.2739 -0.1471
 5594TIP3    H138273   0.284   4.948   1.361  0.3441  0.4664 -0.5278
 5594TIP3    H238274   0.276   5.068   1.452  0.4790  0.3562 -0.3704
 5595TIP3   OH238275   0.133   6.404  16.384  0.4111  0.1475  0.3007
 5595TIP3    H138276   0.129   6.312  16.412  1.0111 -0.6541 -2.0037
 5595TIP3    H238277   0.099   6.403  16.295 -1.6583  2.5692  0.9363
 5596TIP3   OH238278   3.176   6.151  10.608  0.2934  0.3484  0.1006
 5596TIP3    H138279   3.245   6.090  10.633  1.3227  0.9803 -1.0808
 5596TIP3    H238280   3.126   6.104  10.541  1.3222  0.8864 -1.0951
 5597TIP3   OH238281   2.892   2.492  15.869  0.2438 -0.1102 -0.7918
 5597TIP3    H138282   2.870   2.449  15.952  1.2958  1.5782  0.4233
 5597TIP3    H238283   2.840   2.572  15.868  0.7022  0.1904 -1.4595
 5598TIP3   OH238284   4.304   5.270  14.470 -0.3018 -0.4076  0.4313
 5598TIP3    H138285   4.310   5.238  14.380  1.1541  1.7335 -0.2859
 5598TIP3    H238286   4.372   5.222  14.517 -1.3532 -1.8540  0.5506
 5599TIP3   OH238287   1.921   0.271  10.410  0.4103 -0.2021  0.0126
 5599TIP3    H138288   1.929   0.355  10.365  0.1779 -1.1139 -1.7952
 5599TIP3    H238289   1.842   0.280  10.463  0.3541  0.6973 -0.2144
 5600TIP3   OH238290   4.161   0.879  11.603 -0.2413  0.2925  0.0165
 5600TIP3    H138291   4.239   0.830  11.628 -0.5342  0.1637  0.6958
 5600TIP3    H238292   4.103   0.813  11.563 -1.3383 -0.3176  2.4462
 5601TIP3   OH238293   6.693   4.693  14.946  0.4435 -0.5677 -0.1275
 5601TIP3    H138294   6.659   4.609  14.916 -3.1738  0.7738 -0.2779
 5601TIP3    H238295   6.725   4.676  15.035 -1.2205 -1.9202  0.2640
 5602TIP3   OH238296   5.559   0.718   3.053  0.6080 -0.1865  0.4681
 5602TIP3    H138297   5.653   0.738   3.055  0.8762 -1.4063  0.8779
 5602TIP3    H238298   5.520   0.782   3.112  1.0646  0.8504 -0.3239
 5603TIP3   OH238299   1.595   0.600   1.205  0.2568 -0.6240  0.1923
 5603TIP3    H138300   1.628   0.665   1.266  3.7677 -1.2111 -0.8580
 5603TIP3    H238301   1.591   0.646   1.121 -2.3556 -0.4554  0.2982
 5604TIP3   OH238302   3.721   2.074  14.325  0.4683  0.6177  0.4470
 5604TIP3    H138303   3.640   2.109  14.361 -0.4723 -0.0730 -0.9399
 5604TIP3    H238304   3.780   2.150  14.320  0.1534  1.0059  2.0186
 5605TIP3   OH238305   6.454   4.694  16.326 -0.3840 -0.7419  0.3910
 5605TIP3    H138306   6.433   4.722  16.237 -2.0619 -0.0020  0.9931
 5605TIP3    H238307   6.541   4.732  16.342 -1.8641  3.0352  0.5988
 5606TIP3   OH238308   3.581   6.068  16.811  0.6599 -0.5976  0.0894
 5606TIP3    H138309   3.657   6.039  16.761  1.9887 -0.1578  1.7825
 5606TIP3    H238310   3.527   5.989  16.819  1.2412 -1.0766 -0.5768
 5607TIP3   OH238311   6.586   5.070   5.260  0.0782 -0.0499 -0.0351
 5607TIP3    H138312   6.595   5.024   5.344 -1.2921  0.8145  0.6012
 5607TIP3    H238313   6.506   5.121   5.268  1.1807  1.9597 -0.9647
 5608TIP3   OH238314   1.890   1.553   2.313  0.3001  0.0208 -0.5933
 5608TIP3    H138315   1.858   1.617   2.376 -1.6182 -0.1132 -1.3713
 5608TIP3    H238316   1.880   1.595   2.228 -1.8399 -1.5165 -1.2118
 5609TIP3   OH238317   2.811   5.199   1.531  0.0085  0.0606  0.3895
 5609TIP3    H138318   2.874   5.200   1.459  0.0178  1.1956  0.3977
 5609TIP3    H238319   2.726   5.205   1.488 -0.0167  0.1207  0.4477
 5610TIP3   OH238320   0.633   0.269  15.572 -0.3076  0.1313 -0.0784
 5610TIP3    H138321   0.541   0.290  15.557 -0.4413 -0.3310  0.0731
 5610TIP3    H238322   0.643   0.180  15.537  0.1286  0.2584 -0.2794
 5611TIP3   OH238323   2.751   1.446  13.567 -0.0024  0.3368 -1.0221
 5611TIP3    H138324   2.822   1.463  13.628 -0.5318 -0.6923 -0.1025
 5611TIP3    H238325   2.771   1.502  13.491  0.6904  1.5844  0.0417
 5612TIP3   OH238326   5.288   2.358   6.003  0.4346  0.1379  0.1902
 5612TIP3    H138327   5.229   2.432   5.989  0.0438 -0.3082 -0.5764
 5612TIP3    H238328   5.346   2.386   6.073  0.1289  1.0727  0.0745
 5613TIP3   OH238329   3.273   3.237   3.321 -0.3442 -0.2461 -0.6246
 5613TIP3    H138330   3.261   3.158   3.374 -1.7128 -0.5636 -1.3435
 5613TIP3    H238331   3.234   3.215   3.236 -0.3538  1.0482 -0.9852
 5614TIP3   OH238332   4.394   2.427   2.831 -0.2589  0.6799 -0.0060
 5614TIP3    H138333   4.451   2.357   2.799 -1.5145  0.9081 -3.1052
 5614TIP3    H238334   4.366   2.473   2.752 -2.5859  2.2557  1.6029
 5615TIP3   OH238335   2.204   0.622  15.293  0.1766  0.0679  0.3636
 5615TIP3    H138336   2.193   0.692  15.228 -1.6727  1.1543  1.7375
 5615TIP3    H238337   2.118   0.616  15.336  1.4105 -0.3179  2.9626
 5616TIP3   OH238338   5.776   1.144  13.420  0.0437 -0.1847 -0.2627
 5616TIP3    H138339   5.847   1.203  13.395  1.2463 -2.0062 -1.3177
 5616TIP3    H238340   5.819   1.070  13.463 -1.4612 -0.1881  1.3774
 5617TIP3   OH238341   3.257   6.278   0.722  0.5375 -0.5911 -0.5603
 5617TIP3    H138342   3.233   6.302   0.633  0.7098  0.2648 -0.3899
 5617TIP3    H238343   3.308   6.353   0.754  0.8528 -1.0763  0.1037
 5618TIP3   OH238344   2.814   4.566  14.455  0.7461 -0.2136  0.3153
 5618TIP3    H138345   2.791   4.652  14.492  0.5669  0.2450 -0.8187
 5618TIP3    H238346   2.910   4.567  14.450  0.9531 -1.1359  2.7068
 5619TIP3   OH238347   1.383   3.749  12.670 -0.3377  0.5544 -0.3470
 5619TIP3    H138348   1.394   3.723  12.578 -0.6017 -2.4042  0.3795
 5619TIP3    H238349   1.291   3.732  12.690  0.4942 -2.4856  1.4127
 5620TIP3   OH238350   3.241   3.232   5.488 -0.0269  0.4826 -0.0596
 5620TIP3    H138351   3.198   3.309   5.452  1.2753  0.3098 -2.2013
 5620TIP3    H238352   3.172   3.166   5.494 -1.1199  1.7097  1.6539
 5621TIP3   OH238353   5.851   5.327  12.590 -0.6751 -0.1407  0.3162
 5621TIP3    H138354   5.829   5.235  12.574 -1.8482  0.0880  0.5303
 5621TIP3    H238355   5.774   5.376  12.560  1.2555  1.0859 -3.1054
 5622TIP3   OH238356   4.068   6.384   3.491 -0.2552  0.3384  0.0983
 5622TIP3    H138357   4.006   6.355   3.559 -0.5646  0.9558  0.0927
 5622TIP3    H238358   4.028   6.357   3.409  0.0676 -0.3154  0.1489
 5623TIP3   OH238359   0.455   3.081   0.902 -1.0028 -0.0366  0.0927
 5623TIP3    H138360   0.405   3.093   0.983 -1.1361  0.6954 -0.0952
 5623TIP3    H238361   0.399   3.025   0.848 -0.1229 -2.0763  1.1967
 5624TIP3   OH238362   4.525   2.944  13.421  0.0783  0.3086  0.0332
 5624TIP3    H138363   4.503   3.003  13.493  0.3549  1.3619 -0.7351
 5624TIP3    H238364   4.618   2.959  13.405 -0.1735  0.7410 -1.1170
 5625TIP3   OH238365   6.621   3.388   3.183 -0.1336 -0.4827  0.3257
 5625TIP3    H138366   6.632   3.427   3.096 -1.4933  2.2466  1.2504
 5625TIP3    H238367   6.614   3.294   3.166  1.5847 -0.2606 -2.2887
 5626TIP3   OH238368   3.601   6.269  12.488 -0.6648  0.0695 -0.0967
 5626TIP3    H138369   3.670   6.263  12.553 -1.3560  0.8778  0.7398
 5626TIP3    H238370   3.523   6.293  12.538 -1.2385  0.5883 -1.2076
 5627TIP3   OH238371   6.446   5.442   3.252  0.1518 -0.0295  0.3809
 5627TIP3    H138372   6.403   5.364   3.285 -1.8212  0.9940  0.4064
 5627TIP3    H238373   6.394   5.515   3.286  0.5954  1.2213 -1.4169
 5628TIP3   OH238374   2.490   5.368   0.639 -0.2602  0.7724  0.7511
 5628TIP3    H138375   2.565   5.411   0.681  2.0981 -1.9410 -0.3295
 5628TIP3    H238376   2.455   5.433   0.579  1.6865  1.9609  0.8101
 5629TIP3   OH238377   5.836   1.756  12.968  0.3685 -0.2164 -0.1939
 5629TIP3    H138378   5.917   1.711  12.946 -0.1476 -1.5569  0.5168
 5629TIP3    H238379   5.864   1.842  13.001  1.5354 -0.8422  0.5148
 5630TIP3   OH238380   4.606   1.532  16.902  0.2582 -0.3999 -0.2439
 5630TIP3    H138381   4.658   1.557  16.826  2.9388 -0.2603  1.4940
 5630TIP3    H238382   4.516   1.552  16.878  1.0294 -0.1186 -3.2381
 5631TIP3   OH238383   4.396   3.423  12.701 -0.2634  0.0720  0.0916
 5631TIP3    H138384   4.374   3.408  12.792 -1.7519  1.9265  0.0953
 5631TIP3    H238385   4.422   3.515  12.697 -1.4958  0.3994 -1.5482
 5632TIP3   OH238386   4.998   6.333  13.713  0.0836  0.3836  0.7724
 5632TIP3    H138387   4.942   6.309  13.639  1.7519 -2.3179  0.2473
 5632TIP3    H238388   5.066   6.388  13.674  1.3586 -1.6030  0.0520
 5633TIP3   OH238389   5.914   6.663  14.792  0.1886 -0.5237 -0.1489
 5633TIP3    H138390   5.983   6.617  14.840  0.3751  0.0978  0.1957
 5633TIP3    H238391   5.835   6.613  14.810 -0.2202  0.9851  2.8061
 5634TIP3   OH238392   6.785   3.718   3.104  0.3831 -0.4851 -0.1980
 5634TIP3    H138393   6.850   3.685   3.041  0.1647  0.1694 -0.7829
 5634TIP3    H238394   6.832   3.787   3.152  0.1359 -0.0078 -0.6249
 5635TIP3   OH238395   1.860   2.282  16.990  0.1977 -0.4808 -0.0859
 5635TIP3    H138396   1.839   2.325  16.907  1.1493  2.1779  0.9451
 5635TIP3    H238397   1.815   2.197  16.985 -0.1710 -0.2163 -3.0749
 5636TIP3   OH238398   2.672   5.944   4.122  0.9457 -0.3309  0.5813
 5636TIP3    H138399   2.711   5.860   4.147  1.7132 -0.0341  0.4094
 5636TIP3    H238400   2.744   6.006   4.128  0.5216  0.2121  0.1357
 5637TIP3   OH238401   0.986   6.328  16.848  0.0179 -0.1659  0.0414
 5637TIP3    H138402   0.893   6.350  16.841  0.0875  0.1440  0.0711
 5637TIP3    H238403   0.994   6.244  16.802 -0.2778 -0.1999  0.0495
 5638TIP3   OH238404   4.904   0.633   1.303 -0.0166  0.1005  0.6394
 5638TIP3    H138405   4.983   0.580   1.316  0.1252  0.2353  0.3411
 5638TIP3    H238406   4.906   0.655   1.210 -1.6083 -1.8276  0.0725
 5639TIP3   OH238407   0.872   2.603  13.066 -0.5034 -0.1226  0.4285
 5639TIP3    H138408   0.948   2.621  13.121 -1.2300 -2.4084  2.3539
 5639TIP3    H238409   0.881   2.511  13.042 -1.7231  0.0615 -0.8782
 5640TIP3   OH238410   0.812   5.276  11.084 -0.6713 -0.1005 -0.5158
 5640TIP3    H138411   0.842   5.280  11.175 -0.7710  0.1045 -0.4905
 5640TIP3    H238412   0.893   5.273  11.033 -0.5986  0.6003 -0.4535
 5641TIP3   OH238413   0.797   4.135  15.425 -0.5301 -0.0077 -0.8194
 5641TIP3    H138414   0.784   4.130  15.520  0.2462 -0.1356 -0.7130
 5641TIP3    H238415   0.716   4.100  15.388 -1.0018  0.4188 -0.2074
 5642TIP3   OH238416   4.466   3.739  11.893  0.2174  0.9817 -1.1188
 5642TIP3    H138417   4.454   3.757  11.986  0.0143 -1.2794 -0.6546
 5642TIP3    H238418   4.549   3.781  11.871  0.0115  1.9881 -0.0665
 5643TIP3   OH238419   1.160   4.675   6.719 -0.1000 -0.0537  0.1444
 5643TIP3    H138420   1.238   4.728   6.701 -0.2251  0.0309 -0.1563
 5643TIP3    H238421   1.161   4.608   6.651 -0.0596 -0.3089  0.3948
 5644TIP3   OH238422   0.613   2.969  13.425  0.0124 -0.0203  0.5658
 5644TIP3    H138423   0.685   2.914  13.395  0.2035  0.0090  0.9549
 5644TIP3    H238424   0.614   3.045  13.367  0.4878  0.1224  0.7488
 5645TIP3   OH238425   2.592   4.900   5.155  0.1892  0.4470 -0.4938
 5645TIP3    H138426   2.542   4.964   5.207  1.6111  0.2769  1.1781
 5645TIP3    H238427   2.570   4.816   5.195  0.1473  0.1385 -1.1643
 5646TIP3   OH238428   6.630   5.072   5.576 -0.2481  0.4830  0.1802
 5646TIP3    H138429   6.654   5.080   5.669  1.2665 -0.7623 -0.0659
 5646TIP3    H238430   6.537   5.049   5.577 -0.8123  2.5545  1.2897
 5647TIP3   OH238431   4.274   3.390  13.583  0.1291  0.2355  0.0106
 5647TIP3    H138432   4.223   3.319  13.545 -0.4756  0.9537 -0.5624
 5647TIP3    H238433   4.214   3.465  13.585  0.2700  0.3455  2.0327
 5648TIP3   OH238434   4.778   3.918   1.609 -0.3994  0.0231 -0.2401
 5648TIP3    H138435   4.813   3.987   1.666  1.1603 -1.0025  0.0913
 5648TIP3    H238436   4.808   3.941   1.521 -0.8378  0.3541 -0.3078
 5649TIP3   OH238437   4.308   2.742   1.909  0.4819 -0.4511  0.1683
 5649TIP3    H138438   4.250   2.791   1.967  0.2407  0.0972 -0.5262
 5649TIP3    H238439   4.381   2.802   1.891  2.3750 -1.7932  2.6283
 5650TIP3   OH238440   3.056   6.290   2.631 -0.1033  0.2257 -0.4788
 5650TIP3    H138441   3.117   6.364   2.640 -0.5764  0.5204  0.3854
 5650TIP3    H238442   3.016   6.282   2.717 -0.4880 -0.6716 -0.7394
 5651TIP3   OH238443   5.823   0.503   3.019 -0.0439 -0.2225 -0.4081
 5651TIP3    H138444   5.863   0.584   3.050 -2.4648  1.7436 -1.9754
 5651TIP3    H238445   5.729   0.515   3.034 -0.5533 -2.4866 -1.2864
 5652TIP3   OH238446   1.822   5.323  15.062 -0.0266  0.8487 -0.2918
 5652TIP3    H138447   1.877   5.320  15.140  0.0671  1.9134 -0.2936
 5652TIP3    H238448   1.849   5.248  15.010 -0.1291  0.0944  0.7141
 5653TIP3   OH238449   5.758   5.808  11.811 -0.0509  0.6404 -0.2762
 5653TIP3    H138450   5.818   5.734  11.821 -2.1375 -1.1642 -0.2303
 5653TIP3    H238451   5.753   5.846  11.899  0.4079  0.2778 -0.0866
 5654TIP3   OH238452   2.892   0.236  14.626 -0.7072 -0.0523  0.0473
 5654TIP3    H138453   2.969   0.277  14.667 -0.6471 -0.5081  0.4003
 5654TIP3    H238454   2.861   0.173  14.692 -2.2435  1.1326  0.5133
 5655TIP3   OH238455   3.196   5.631  15.252 -0.0589 -0.3903 -0.7670
 5655TIP3    H138456   3.138   5.559  15.276 -0.8430  0.2532 -0.6957
 5655TIP3    H238457   3.152   5.674  15.178  0.8812 -0.5689 -1.4550
 5656TIP3   OH238458   5.365   0.362  16.579  0.1675  0.0209  0.0776
 5656TIP3    H138459   5.329   0.423  16.643 -1.7781 -0.6483 -0.2926
 5656TIP3    H238460   5.330   0.277  16.606  0.5973 -0.5043 -0.9706
 5657TIP3   OH238461   6.122   0.670   6.400  0.3144  0.1150  0.2159
 5657TIP3    H138462   6.157   0.665   6.311 -0.3961  0.3476 -0.0839
 5657TIP3    H238463   6.072   0.589   6.410  0.2141  0.1909  0.3279
 5658TIP3   OH238464   3.085   2.466   1.872  0.1703  0.1755 -0.1545
 5658TIP3    H138465   3.092   2.561   1.885 -0.6384  0.1329  0.7371
 5658TIP3    H238466   3.146   2.429   1.937  0.3689  0.0825 -0.3941
 5659TIP3   OH238467   1.514   2.915   5.233  0.5081  0.0287 -0.0393
 5659TIP3    H138468   1.501   2.983   5.167 -1.2933  0.4636  0.7028
 5659TIP3    H238469   1.596   2.940   5.276  1.4533  0.0109 -1.7310
 5660TIP3   OH238470   6.642   6.518   2.994 -0.2052  0.3091 -0.0534
 5660TIP3    H138471   6.562   6.538   2.944 -0.9734 -0.2056  0.9294
 5660TIP3    H238472   6.698   6.472   2.932 -0.5417  0.9416 -0.8517
 5661TIP3   OH238473   6.336   6.549  13.492  0.2916  0.4953 -0.0366
 5661TIP3    H138474   6.325   6.638  13.524  0.3330  0.4490  0.1062
 5661TIP3    H238475   6.246   6.518  13.476  0.2843  0.6137 -0.2249
 5662TIP3   OH238476   2.997   2.691  14.999  0.0747 -0.3646 -0.1899
 5662TIP3    H138477   3.050   2.617  15.027  0.4825 -1.1915 -2.8691
 5662TIP3    H238478   2.927   2.697  15.065  0.1795 -2.9659  0.2511
 5663TIP3   OH238479   6.160   2.574   4.631  0.0008  0.5327 -0.4289
 5663TIP3    H138480   6.153   2.479   4.619  2.8420  0.0753  0.7226
 5663TIP3    H238481   6.071   2.602   4.652 -0.8413 -1.9578 -0.3591
 5664TIP3   OH238482   3.423   5.098  12.254  0.2023 -0.0885 -0.0386
 5664TIP3    H138483   3.412   5.026  12.192  1.5401 -1.5302  1.2953
 5664TIP3    H238484   3.351   5.158  12.235 -0.6269 -1.5023 -1.5826
 5665TIP3   OH238485   5.619   4.319   5.800 -0.3684  0.8977  0.1247
 5665TIP3    H138486   5.655   4.401   5.834  1.2013 -0.0342  0.7890
 5665TIP3    H238487   5.524   4.331   5.804 -0.1762  2.8698 -0.2819
 5666TIP3   OH238488   3.315   4.535   6.213  0.3272 -0.0002 -0.2268
 5666TIP3    H138489   3.270   4.596   6.271  1.2625  0.3092  0.1984
 5666TIP3    H238490   3.372   4.590   6.159  2.5838 -0.5843  1.4315
 5667TIP3   OH238491   5.695   2.912  15.581  0.1415 -0.2463 -0.0639
 5667TIP3    H138492   5.670   2.831  15.536  0.5456  0.7392 -2.1748
 5667TIP3    H238493   5.787   2.898  15.606  0.8269  0.1883 -2.1139
 5668TIP3   OH238494   3.126   3.328  15.236  0.0261  0.0269  0.8891
 5668TIP3    H138495   3.158   3.412  15.203 -3.2147  0.9783 -0.2436
 5668TIP3    H238496   3.092   3.348  15.324 -0.8431 -0.0426  0.5783
 5669TIP3   OH238497   0.987   0.036  14.204  0.0879 -0.3594 -0.1715
 5669TIP3    H138498   1.025   0.100  14.263  0.2741 -1.2459  0.7034
 5669TIP3    H238499   1.048  -0.039  14.208  0.2015 -0.3804 -1.6220
 5670TIP3   OH238500   0.466   5.741  15.521 -0.2859  0.1142 -0.1837
 5670TIP3    H138501   0.513   5.661  15.541  1.4654  0.7196 -1.5635
 5670TIP3    H238502   0.527   5.812  15.543 -1.5929  1.0777  0.5264
 5671TIP3   OH238503   5.159   1.629  10.307 -0.1144 -0.5144  0.1424
 5671TIP3    H138504   5.114   1.583  10.237 -0.5748 -0.0035  0.0922
 5671TIP3    H238505   5.112   1.604  10.387 -1.4203  1.0723 -0.0519
 5672TIP3   OH238506   4.797   2.521   4.210 -0.6679  0.3675  0.3035
 5672TIP3    H138507   4.742   2.584   4.257 -2.0133 -0.6054  0.1124
 5672TIP3    H238508   4.772   2.530   4.118 -1.3440 -0.8451  0.3448
 5673TIP3   OH238509   2.415   4.817   0.924 -0.1987  0.0602  0.7126
 5673TIP3    H138510   2.339   4.847   0.875  0.8599  0.2375 -0.9240
 5673TIP3    H238511   2.379   4.760   0.993 -1.7365 -0.8748 -0.7761
 5674TIP3   OH238512   1.627   6.580   2.375 -0.2076 -0.0271  0.0438
 5674TIP3    H138513   1.715   6.561   2.343  1.0209  1.5331  2.1871
 5674TIP3    H238514   1.641   6.610   2.465 -2.8296  1.3502  0.0840
 5675TIP3   OH238515   6.530   4.117  15.100  0.5038 -0.4624 -0.2954
 5675TIP3    H138516   6.477   4.052  15.146 -0.2402  0.5196  0.2949
 5675TIP3    H238517   6.472   4.152  15.032 -0.0315  1.3401  1.0012
 5676TIP3   OH238518   3.801   4.867  13.391  0.1862 -0.3400 -0.0994
 5676TIP3    H138519   3.860   4.895  13.321  0.8549 -1.0046  0.1904
 5676TIP3    H238520   3.719   4.844  13.345  0.7350 -1.1250 -0.7087
 5677TIP3   OH238521   3.644   1.715  13.806 -0.2786  0.0517  0.3205
 5677TIP3    H138522   3.571   1.680  13.857  0.7643  0.3876  2.1056
 5677TIP3    H238523   3.696   1.638  13.781 -0.6486 -0.0874 -0.0362
 5678TIP3   OH238524   0.401   4.177  14.209  0.5001 -0.4364 -0.3679
 5678TIP3    H138525   0.434   4.090  14.184 -0.3003 -0.8822  0.0810
 5678TIP3    H238526   0.474   4.236  14.191  1.0105 -1.1798 -0.8239
 5679TIP3   OH238527   4.822   6.786  11.962 -0.2292 -0.1153 -0.2500
 5679TIP3    H138528   4.874   6.822  12.033 -0.1105 -0.0497 -0.3690
 5679TIP3    H238529   4.843   6.842  11.887 -0.3995 -0.1454 -0.3212
 5680TIP3   OH238530   4.401   5.302  16.358  0.0631  0.4398 -0.1817
 5680TIP3    H138531   4.414   5.281  16.265  0.6098 -0.7266  0.1399
 5680TIP3    H238532   4.340   5.375  16.358  1.5095  1.7071 -1.5393
 5681TIP3   OH238533   1.636   5.511  11.086 -0.3149  0.1158 -0.4508
 5681TIP3    H138534   1.640   5.605  11.102  1.7728 -0.3801  2.7701
 5681TIP3    H238535   1.708   5.494  11.026 -0.3458  0.4670 -0.5917
 5682TIP3   OH238536   0.717   2.325  11.929  0.0696  0.1613  0.0726
 5682TIP3    H138537   0.641   2.379  11.906 -1.2515 -1.2771  0.9067
 5682TIP3    H238538   0.781   2.387  11.963 -0.6132  1.4412 -0.8874
 5683TIP3   OH238539   3.382   3.995   2.373  0.2660 -0.1236  0.5151
 5683TIP3    H138540   3.316   4.046   2.326  1.1313  0.9992  0.4592
 5683TIP3    H238541   3.407   3.926   2.312  0.1949  0.3308 -0.0355
 5684TIP3   OH238542   3.238   3.077  15.377  0.1809 -0.2864 -0.2980
 5684TIP3    H138543   3.205   3.115  15.459 -1.1587  0.1478 -1.0075
 5684TIP3    H238544   3.324   3.117  15.365  0.0598  0.2417  0.4968
 5685TIP3   OH238545   1.747   4.987   4.028  0.1270 -0.0538 -0.5553
 5685TIP3    H138546   1.761   4.934   3.950 -1.0179  0.5353 -1.1895
 5685TIP3    H238547   1.652   5.001   4.031  0.3277  1.3751 -0.0335
 5686TIP3   OH238548   6.294   2.314  12.390 -0.6998 -0.7463  0.9655
 5686TIP3    H138549   6.390   2.314  12.386 -0.7161 -0.5357  0.2933
 5686TIP3    H238550   6.273   2.273  12.473  0.0420  2.3034  2.8085
 5687TIP3   OH238551   4.196   0.076   2.139 -0.9857  0.0965 -0.3980
 5687TIP3    H138552   4.277   0.053   2.183  0.7616  4.0285 -1.1149
 5687TIP3    H238553   4.133   0.091   2.210 -0.1352  0.0987  0.3704
 5688TIP3   OH238554   0.525   2.849   6.260  0.1189  0.1182 -0.0415
 5688TIP3    H138555   0.512   2.924   6.318 -1.2510 -0.7592  0.8528
 5688TIP3    H238556   0.573   2.785   6.313  2.3921  0.7816 -1.1991
 5689TIP3   OH238557   4.188   3.495  13.247  0.0023  0.7449  0.4950
 5689TIP3    H138558   4.281   3.499  13.267  0.0090 -1.0511  1.0502
 5689TIP3    H238559   4.144   3.526  13.326  0.1209  0.8005  0.5382
 5690TIP3   OH238560   0.477   2.814  17.077 -0.0703 -0.6921 -0.5960
 5690TIP3    H138561   0.506   2.871  17.148 -0.2821  0.1964 -1.2167
 5690TIP3    H238562   0.557   2.769  17.049  0.1600 -0.4578 -0.3251
 5691TIP3   OH238563   4.374   1.586  11.720  0.2201  0.7009  0.0349
 5691TIP3    H138564   4.462   1.554  11.737 -0.3687 -0.4854  0.9201
 5691TIP3    H238565   4.327   1.510  11.686 -0.3659  1.4236 -0.8105
 5692TIP3   OH238566   2.406   6.250  16.098  0.1590  0.2353  0.0697
 5692TIP3    H138567   2.409   6.323  16.037 -0.1597  2.1691  2.2180
 5692TIP3    H238568   2.452   6.179  16.053  2.0687  2.2850 -1.4273
 5693TIP3   OH238569   2.646   4.807   5.663 -0.1191 -0.5386 -0.2472
 5693TIP3    H138570   2.685   4.871   5.723 -1.5529  1.2491 -1.1066
 5693TIP3    H238571   2.705   4.806   5.587  0.3536 -0.8995  0.1164
 5694TIP3   OH238572   2.235   3.115   2.276  0.7214 -0.0732  0.3495
 5694TIP3    H138573   2.267   3.126   2.365  0.4719 -0.6223  0.5110
 5694TIP3    H238574   2.245   3.021   2.258 -0.8680 -0.2788  0.4352
 5695TIP3   OH238575   1.747   6.244   1.447 -0.3228 -0.0630  0.0141
 5695TIP3    H138576   1.731   6.186   1.522  0.8372  0.8785  1.0401
 5695TIP3    H238577   1.726   6.331   1.479  1.8319  0.5773 -0.1462
 5696TIP3   OH238578   3.084   6.489   5.117 -0.4510 -0.6399 -0.5377
 5696TIP3    H138579   3.097   6.578   5.151 -0.0240 -1.0180  0.3172
 5696TIP3    H238580   3.029   6.501   5.039 -0.0655  0.4089 -0.6646
 5697TIP3   OH238581   0.767   0.616  15.841 -0.6173 -0.0973 -0.3784
 5697TIP3    H138582   0.763   0.690  15.902  0.2950 -0.6185  0.3486
 5697TIP3    H238583   0.697   0.558  15.870 -1.7556  0.7612 -1.3532
 5698TIP3   OH238584   6.097   1.239  11.573  0.4774 -0.0927  0.3487
 5698TIP3    H138585   6.158   1.165  11.582 -2.0065 -2.1281  1.9748
 5698TIP3    H238586   6.083   1.269  11.663  0.5746  1.6854 -0.2018
 5699TIP3   OH238587   4.897   6.206   2.809  0.3231 -0.1621  0.9119
 5699TIP3    H138588   4.866   6.283   2.761 -2.3079 -2.3777 -1.3143
 5699TIP3    H238589   4.869   6.221   2.899 -0.5328  1.2624  0.4443
 5700TIP3   OH238590   0.886   2.649   1.218  0.1689  0.3393  0.3023
 5700TIP3    H138591   0.887   2.553   1.212 -0.3151  0.3892 -0.8325
 5700TIP3    H238592   0.894   2.679   1.128 -1.2932  1.3498  0.4696
 5701TIP3   OH238593   5.025   3.016  11.702  0.7689 -0.0175  0.2986
 5701TIP3    H138594   5.090   3.064  11.754 -0.3856  0.9562  0.8921
 5701TIP3    H238595   5.072   2.989  11.623  1.7122  1.2775  0.3959
 5702TIP3   OH238596   1.789   3.495   2.881 -0.0515  0.0942 -0.3191
 5702TIP3    H138597   1.694   3.500   2.870 -0.6043  0.2309  3.2141
 5702TIP3    H238598   1.807   3.402   2.894  0.1563  0.1511 -0.1790
 5703TIP3   OH238599   0.003   5.023   5.455  0.2161 -0.0467 -0.3060
 5703TIP3    H138600  -0.073   5.050   5.507  0.6610 -0.2642  0.4679
 5703TIP3    H238601   0.030   5.102   5.408  1.9519  1.1318  2.4643
 5704TIP3   OH238602   3.729   2.686  13.477 -0.4114  0.3127 -0.1615
 5704TIP3    H138603   3.671   2.760  13.456  1.2281  1.3296 -1.3899
 5704TIP3    H238604   3.766   2.660  13.393 -1.5045 -2.4854  0.1103
 5705TIP3   OH238605   6.075   2.269  14.108  0.1079  0.0876  0.4654
 5705TIP3    H138606   6.110   2.188  14.071  0.4226 -0.0346  1.0251
 5705TIP3    H238607   5.982   2.268  14.083 -0.2609 -1.1882  1.6916
 5706TIP3   OH238608   6.593   1.134  15.655 -0.1619  0.2360 -0.4356
 5706TIP3    H138609   6.517   1.186  15.682 -0.5618  1.3425 -3.3677
 5706TIP3    H238610   6.635   1.109  15.737 -2.0637  2.0456  1.1973
 5707TIP3   OH238611   3.877   0.664  13.001 -0.3270  0.7374  0.1211
 5707TIP3    H138612   3.782   0.671  13.000 -0.4045 -0.0928  0.8819
 5707TIP3    H238613   3.896   0.591  12.942 -0.3729 -1.0898  2.2830
 5708TIP3   OH238614   3.764   2.258  12.279 -0.0977  0.3662 -0.5397
 5708TIP3    H138615   3.799   2.171  12.260  0.1573  0.4883 -0.6314
 5708TIP3    H238616   3.808   2.285  12.360 -0.0172  0.4966 -0.6258
 5709TIP3   OH238617   0.325   1.452  14.486 -0.0183  0.0879  0.3112
 5709TIP3    H138618   0.248   1.507  14.498  0.7887  1.0228  1.4269
 5709TIP3    H238619   0.303   1.396  14.412 -0.5281  2.5935 -1.5838
 5710TIP3   OH238620   4.165   5.820   3.456 -0.2962  0.3512 -0.8684
 5710TIP3    H138621   4.087   5.837   3.404 -1.3191  0.2993  0.5901
 5710TIP3    H238622   4.200   5.738   3.420 -2.2565 -0.9212 -0.0650
 5711TIP3   OH238623   4.365   2.079   1.478  0.2993 -0.2546  0.5367
 5711TIP3    H138624   4.420   2.157   1.489  0.1146  0.4182 -2.4692
 5711TIP3    H238625   4.425   2.011   1.447 -0.0099 -0.5119  0.5002
 5712TIP3   OH238626   0.327   2.472  10.493 -0.5097  0.4268  0.3070
 5712TIP3    H138627   0.232   2.488  10.487 -0.5930 -0.2668 -0.2967
 5712TIP3    H238628   0.359   2.543  10.549 -1.1619  1.5523 -0.7088
 5713TIP3   OH238629   4.595   3.863   0.808 -0.0527  0.3461 -0.3045
 5713TIP3    H138630   4.609   3.782   0.856 -1.0653 -0.4180 -1.2624
 5713TIP3    H238631   4.609   3.840   0.716 -0.1837  1.2938 -0.5792
 5714TIP3   OH238632   2.901   0.924  10.896  0.3420  0.0722  0.6539
 5714TIP3    H138633   2.947   0.889  10.820  2.1474  1.3320  1.1051
 5714TIP3    H238634   2.936   1.012  10.907 -0.4538  0.2068  2.4740
 5715TIP3   OH238635   2.755   6.529  15.532 -0.2525  0.1100 -0.3604
 5715TIP3    H138636   2.743   6.445  15.487  1.3728 -1.0439  1.2535
 5715TIP3    H238637   2.762   6.593  15.461  1.0177 -1.4678 -1.7480
 5716TIP3   OH238638   0.996   5.960  14.128  0.1299  0.2652 -0.2248
 5716TIP3    H138639   0.951   5.877  14.142 -1.5193  1.0410 -0.6914
 5716TIP3    H238640   0.994   6.004  14.213 -0.5345  0.5439 -0.3795
 5717TIP3   OH238641   3.953   0.086  15.319  0.4198  0.1950 -0.0225
 5717TIP3    H138642   3.862   0.114  15.307  0.6008  0.3454 -1.1794
 5717TIP3    H238643   3.963   0.075  15.413 -1.5379 -2.2863  0.0221
 5718TIP3   OH238644   6.303   1.288  12.665 -0.1726 -0.2720 -0.0442
 5718TIP3    H138645   6.355   1.359  12.629 -0.5263  0.6508  1.2213
 5718TIP3    H238646   6.296   1.307  12.758  0.3623 -2.3798  0.4702
 5719TIP3   OH238647   6.648   3.971  11.691 -0.6883  0.6309 -0.1802
 5719TIP3    H138648   6.555   3.992  11.700 -0.7189  0.1799  0.6375
 5719TIP3    H238649   6.661   3.893  11.746  0.0937  0.4678 -0.5779
 5720TIP3   OH238650   1.484   1.200  11.206  0.5210  0.2694  0.4459
 5720TIP3    H138651   1.429   1.257  11.152  0.7129  1.2068  1.2018
 5720TIP3    H238652   1.422   1.141  11.250  0.4699 -1.5589 -1.9115
 5721TIP3   OH238653   4.629   5.953   3.448  0.5908  0.4165  0.7658
 5721TIP3    H138654   4.592   6.038   3.470 -1.5611 -0.4906  0.8600
 5721TIP3    H238655   4.654   5.915   3.533 -1.4855 -0.3366  1.0903
 5722TIP3   OH238656   0.489   5.467   5.485 -0.8113  0.1156 -0.5502
 5722TIP3    H138657   0.468   5.374   5.482 -0.1464 -0.0300 -0.8614
 5722TIP3    H238658   0.584   5.470   5.495 -0.6917  0.7688 -1.7195
 5723TIP3   OH238659   6.753   5.797   0.465 -0.4158 -0.6382  0.2688
 5723TIP3    H138660   6.720   5.787   0.375 -1.7321 -1.6143  0.8224
 5723TIP3    H238661   6.676   5.826   0.515  0.2425 -0.3509  1.1300
 5724TIP3   OH238662   4.256   5.641  16.066 -0.4259  0.5604  0.3454
 5724TIP3    H138663   4.317   5.704  16.106  0.4295 -0.8688  1.4289
 5724TIP3    H238664   4.280   5.640  15.973  0.4941  0.8102  0.5668
 5725TIP3   OH238665   2.918   1.225  15.210  0.2600 -0.1252  0.3051
 5725TIP3    H138666   2.840   1.280  15.213  0.4366  0.1409 -0.0279
 5725TIP3    H238667   2.902   1.158  15.278 -0.0981  0.1352  0.4814
 5726TIP3   OH238668   0.778   4.225  11.960 -0.4902 -0.4204  0.1020
 5726TIP3    H138669   0.834   4.182  12.026 -1.2278  0.6940  1.5002
 5726TIP3    H238670   0.733   4.294  12.008 -0.9411  0.5491 -1.6355
 5727TIP3   OH238671   6.314   4.343  13.680 -0.7160  0.6473  0.1861
 5727TIP3    H138672   6.220   4.325  13.679 -0.4338 -0.9449 -0.0903
 5727TIP3    H238673   6.346   4.307  13.597 -0.0822  2.6312 -0.4886
 5728TIP3   OH238674   2.784   3.238   3.635  0.1703 -0.3293 -0.1622
 5728TIP3    H138675   2.714   3.192   3.683 -0.6838 -0.0906 -1.1490
 5728TIP3    H238676   2.790   3.191   3.552  1.8688 -0.9398  0.2753
 5729TIP3   OH238677   4.715   3.123  14.995 -0.2640  0.1811  0.2291
 5729TIP3    H138678   4.770   3.121  14.917 -0.3257 -0.1064  0.1918
 5729TIP3    H238679   4.667   3.206  14.989 -0.4162  0.0666 -0.1377
 5730TIP3   OH238680   6.716   0.430  12.564 -0.4087  0.1570 -0.5886
 5730TIP3    H138681   6.763   0.363  12.614 -0.4217 -0.5700 -1.5371
 5730TIP3    H238682   6.784   0.479  12.518 -0.3375  1.2870  0.6517
 5731TIP3   OH238683   5.828   4.198  13.432 -0.3206  0.6807 -0.2921
 5731TIP3    H138684   5.849   4.105  13.436  0.7987  0.9187 -0.1915
 5731TIP3    H238685   5.752   4.203  13.374 -1.0423 -0.3803  0.5152
 5732TIP3   OH238686   4.068   2.988   6.056 -0.5309 -0.1859  0.2418
 5732TIP3    H138687   4.086   2.926   6.126 -2.3934 -0.5716  0.4435
 5732TIP3    H238688   4.087   2.941   5.975  2.0053  0.3896  0.4310
 5733TIP3   OH238689   0.041   4.784  12.101  0.1480 -0.3878 -0.2227
 5733TIP3    H138690   0.107   4.772  12.169 -1.1419 -1.5987  0.8675
 5733TIP3    H238691  -0.036   4.818  12.147  0.0176  1.2319 -1.5024
 5734TIP3   OH238692   4.159   6.467   2.378  0.0626 -0.4299  0.0047
 5734TIP3    H138693   4.067   6.477   2.404 -0.2406 -0.2194 -1.0756
 5734TIP3    H238694   4.169   6.373   2.361 -0.0963 -0.3803 -0.3691
 5735TIP3   OH238695   4.861   1.734   4.907 -0.2684  0.2428 -0.4130
 5735TIP3    H138696   4.947   1.771   4.887  0.6304 -2.0003 -0.9990
 5735TIP3    H238697   4.870   1.640   4.888 -2.0920 -0.5075  1.9875
 5736TIP3   OH238698   3.619   5.356   0.512  0.3845 -0.6329 -0.2096
 5736TIP3    H138699   3.673   5.380   0.588  0.3991 -0.9501 -0.1165
 5736TIP3    H238700   3.530   5.380   0.538  0.3460 -1.0300  0.0367
 5737TIP3   OH238701   2.071   2.535   6.497  0.4600 -0.2949 -0.6480
 5737TIP3    H138702   1.979   2.540   6.471  0.6200 -2.6055 -1.9123
 5737TIP3    H238703   2.096   2.626   6.513 -2.4885  0.3150  1.5745
 5738TIP3   OH238704   3.053   3.080   3.116 -0.2268  0.1919  0.1099
 5738TIP3    H138705   3.038   2.993   3.153  1.7091 -0.3695 -0.2987
 5738TIP3    H238706   3.096   3.063   3.032  0.6890  1.5304  0.2720
 5739TIP3   OH238707   6.547   2.120  13.668 -0.4005  0.7263  0.0374
 5739TIP3    H138708   6.636   2.148  13.688 -0.0173 -1.2901  1.4085
 5739TIP3    H238709   6.546   2.108  13.573  0.3773  1.9781 -0.1581
 5740TIP3   OH238710   6.798   3.659  16.967  0.3233  0.3624  0.7268
 5740TIP3    H138711   6.717   3.670  16.917  1.7667 -0.1217 -1.8924
 5740TIP3    H238712   6.796   3.729  17.032 -1.0287  1.9866 -0.9607
 5741TIP3   OH238713   3.397   0.980  10.903 -0.4678  0.1917  0.3206
 5741TIP3    H138714   3.398   1.018  10.815  1.9032 -1.6986 -0.5904
 5741TIP3    H238715   3.325   0.917  10.901  0.0039 -0.3289 -0.5091
 5742TIP3   OH238716   3.376   5.382  10.324  0.3295 -0.2203 -0.3967
 5742TIP3    H138717   3.470   5.396  10.335 -0.3121  3.9191  1.4749
 5742TIP3    H238718   3.369   5.290  10.298  4.7505 -1.1230  0.7618
 5743TIP3   OH238719   4.650   4.657  14.259 -0.0939  0.2048 -0.1407
 5743TIP3    H138720   4.645   4.597  14.185 -1.6573 -1.7099  1.4300
 5743TIP3    H238721   4.736   4.699  14.250  0.1214 -0.5829 -2.5116
 5744TIP3   OH238722   5.230   1.473   3.182 -0.5365  0.4770 -0.0596
 5744TIP3    H138723   5.299   1.500   3.121 -0.6594  2.1322  0.4894
 5744TIP3    H238724   5.187   1.399   3.138 -0.4793  1.4679 -1.8926
 5745TIP3   OH238725   0.022   1.454  10.795 -1.0237  0.6855 -0.4640
 5745TIP3    H138726   0.030   1.541  10.757  0.5061  0.8062  0.0625
 5745TIP3    H238727   0.073   1.397  10.737 -0.1262  0.5655  0.3982
 5746TIP3   OH238728   6.666   3.820  11.905 -0.0128  0.5997 -0.0395
 5746TIP3    H138729   6.703   3.732  11.914  0.9153  0.7023 -2.2013
 5746TIP3    H238730   6.614   3.833  11.985  0.9686 -1.3398  0.9785
 5747TIP3   OH238731   1.876   0.050  12.234  0.2746 -0.3505 -0.2661
 5747TIP3    H138732   1.945   0.110  12.265 -0.0730 -0.7574  1.3989
 5747TIP3    H238733   1.795   0.090  12.264 -0.2288 -0.0113 -1.9946
 5748TIP3   OH238734   1.264   0.442   4.916 -0.3299  0.0883  1.0464
 5748TIP3    H138735   1.263   0.532   4.948 -1.5122  0.2785  0.5034
 5748TIP3    H238736   1.188   0.435   4.860 -0.3013 -1.2850  1.1392
 5749TIP3   OH238737   0.445   5.196   5.469  0.3259  0.2537 -0.1622
 5749TIP3    H138738   0.365   5.203   5.521 -0.4236  0.1023 -1.2646
 5749TIP3    H238739   0.430   5.122   5.412  1.7022 -0.4437  0.3304
 5750TIP3   OH238740   0.783   5.252   1.510  0.2992 -0.6025  0.0409
 5750TIP3    H138741   0.706   5.307   1.501 -0.5768 -1.8685 -0.5486
 5750TIP3    H238742   0.756   5.181   1.568  1.7802  0.1970  1.7903
 5751TIP3   OH238743   3.076   5.574  14.486 -0.1151  0.0358 -0.0940
 5751TIP3    H138744   2.989   5.559  14.523  0.1092  1.4815  1.1084
 5751TIP3    H238745   3.089   5.500  14.426 -2.7377  0.5163 -1.4123
 5752TIP3   OH238746   4.793   1.828   0.281  0.1672  0.7693 -0.1779
 5752TIP3    H138747   4.784   1.733   0.294 -0.2204  0.7949 -0.2410
 5752TIP3    H238748   4.705   1.857   0.255  0.0189  1.3241  0.8998
 5753TIP3   OH238749   6.463   3.954   0.237  0.3376  0.2594 -0.1389
 5753TIP3    H138750   6.387   3.896   0.229 -0.6158  1.3962  0.3583
 5753TIP3    H238751   6.458   4.012   0.161 -0.0366  1.1534  0.5424
 5754TIP3   OH238752   1.638   3.361  16.951 -0.1442 -0.0133 -0.1069
 5754TIP3    H138753   1.685   3.439  16.979 -0.3935  0.6200 -1.3802
 5754TIP3    H238754   1.547   3.377  16.978 -0.0443 -0.2396  0.3698
 5755TIP3   OH238755   6.392   1.449  15.201  0.4123  0.5617 -0.2063
 5755TIP3    H138756   6.327   1.462  15.132  1.3314  0.7285 -1.0660
 5755TIP3    H238757   6.403   1.536  15.240 -0.0529  0.4832  0.1016
 5756TIP3   OH238758   4.089   0.692  14.473 -0.0280  0.0828  0.2934
 5756TIP3    H138759   4.150   0.765  14.480 -0.3456  0.2938  1.0541
 5756TIP3    H238760   4.071   0.684  14.380 -1.0155  1.8553  0.2885
 5757TIP3   OH238761   4.877   3.976   2.047 -0.0749 -0.2291  0.6699
 5757TIP3    H138762   4.836   4.025   2.118  1.6853  1.0847  0.8572
 5757TIP3    H238763   4.911   3.897   2.090 -0.7948 -0.4489  0.8572
 5758TIP3   OH238764   2.208   0.927   2.414  0.7467 -0.2859  0.1708
 5758TIP3    H138765   2.127   0.885   2.387 -0.3087  2.9158 -2.3414
 5758TIP3    H238766   2.194   0.950   2.506  0.4485 -3.0516  0.8980
 5759TIP3   OH238767   3.670   4.374  13.856  0.2093 -0.1343  0.5367
 5759TIP3    H138768   3.712   4.347  13.938 -1.4324 -0.8982  1.1603
 5759TIP3    H238769   3.674   4.470  13.858 -2.6119  0.0753  3.1374
 5760TIP3   OH238770   5.613   4.960  13.098  0.0595  0.2935  0.3148
 5760TIP3    H138771   5.526   4.972  13.059  0.2875 -1.0217 -0.6842
 5760TIP3    H238772   5.671   4.947  13.023  1.5307  3.1518  0.8390
 5761TIP3   OH238773   1.967   6.441  14.298 -0.5545  0.6087 -0.3536
 5761TIP3    H138774   2.020   6.454  14.219  2.1084 -0.6993  1.0737
 5761TIP3    H238775   1.999   6.507  14.359 -1.6810  0.7681  0.0875
 5762TIP3   OH238776   0.127   0.787   4.326 -0.1051 -0.9062  0.4565
 5762TIP3    H138777   0.060   0.849   4.297 -0.2109 -1.8484 -1.5183
 5762TIP3    H238778   0.205   0.840   4.341 -1.1071  0.1343  2.2595
 5763TIP3   OH238779   5.062   3.344   6.051  0.4664  0.1334  0.3786
 5763TIP3    H138780   5.060   3.251   6.031 -1.3681 -0.0268  1.0955
 5763TIP3    H238781   5.066   3.387   5.965  2.6387 -0.5562  0.0659
 5764TIP3   OH238782   2.762   3.351   2.749 -0.4557  0.3383  0.3340
 5764TIP3    H138783   2.671   3.382   2.750 -0.7508 -0.2607 -1.7349
 5764TIP3    H238784   2.804   3.403   2.680  0.0239 -1.2381 -0.6035
 5765TIP3   OH238785   4.117   5.805   3.727  0.3364 -0.5525  0.2088
 5765TIP3    H138786   4.175   5.880   3.737 -0.8971  0.5445 -0.6274
 5765TIP3    H238787   4.125   5.780   3.635 -1.7246  0.6893 -0.3709
 5766TIP3   OH238788   2.822   5.895  16.956 -0.1541 -0.2236  0.1493
 5766TIP3    H138789   2.852   5.816  17.000 -1.5359 -0.6620  0.3251
 5766TIP3    H238790   2.777   5.864  16.877 -0.9556  0.3604  0.3630
 5767TIP3   OH238791   5.154   3.352  14.542 -0.4626 -0.0360  0.2243
 5767TIP3    H138792   5.211   3.341  14.466  0.6523  3.4398  0.4056
 5767TIP3    H238793   5.070   3.380  14.505 -0.8029 -1.1021  0.1667
 5768TIP3   OH238794   2.210   1.827  15.427  0.2059  0.5938  0.5683
 5768TIP3    H138795   2.278   1.823  15.360  0.2273  0.4628  0.5992
 5768TIP3    H238796   2.243   1.891  15.490  0.0726  0.9054  0.3269
 5769TIP3   OH238797   0.236   6.503   2.468 -0.4229 -0.2996  0.2061
 5769TIP3    H138798   0.319   6.548   2.454  0.4918 -2.1806 -0.8355
 5769TIP3    H238799   0.177   6.570   2.501  1.5175  1.0837  1.0211
 5770TIP3   OH238800   2.645   6.202   5.621  0.1775 -0.2476 -0.6514
 5770TIP3    H138801   2.700   6.280   5.625 -1.6614  1.1852 -1.6080
 5770TIP3    H238802   2.579   6.215   5.689 -0.5674 -0.6065 -1.2824
 5771TIP3   OH238803   4.965   3.992   5.404  0.3541 -0.3573 -0.0908
 5771TIP3    H138804   4.921   3.907   5.409 -0.9157  0.2762  0.0028
 5771TIP3    H238805   5.000   3.995   5.315  1.9197 -1.6581  0.4188
 5772TIP3   OH238806   4.592   5.055   1.425 -1.0055  0.1321  0.2178
 5772TIP3    H138807   4.674   5.096   1.453 -0.1946 -1.8586  0.8833
 5772TIP3    H238808   4.585   5.078   1.332  1.0271 -0.7903 -0.1980
 5773TIP3   OH238809   4.500   1.746   5.772 -0.3627 -0.1517 -0.2325
 5773TIP3    H138810   4.558   1.670   5.768  0.2003  0.2474  0.2200
 5773TIP3    H238811   4.493   1.767   5.866 -2.4388 -1.0952 -0.1143
 5774TIP3   OH238812   4.685   5.472  11.650  0.9262 -0.4099  0.1797
 5774TIP3    H138813   4.736   5.409  11.700  0.3721 -1.0715 -0.0739
 5774TIP3    H238814   4.651   5.422  11.576 -1.2120 -0.3519  1.0512
 5775TIP3   OH238815   3.627   5.614   5.210  0.6015 -0.9097  0.3179
 5775TIP3    H138816   3.579   5.579   5.285 -1.7356  0.5516 -0.3872
 5775TIP3    H238817   3.587   5.571   5.134  0.9467 -0.2184 -0.2663
 5776TIP3   OH238818   1.515   5.927  13.455  0.0145  0.0483  0.0666
 5776TIP3    H138819   1.585   5.862  13.461 -0.2943 -0.2887  0.0618
 5776TIP3    H238820   1.513   5.967  13.542 -0.2723 -0.4551  0.2961
 5777TIP3   OH238821   2.421   1.294  14.139 -0.0886  0.2817  0.0017
 5777TIP3    H138822   2.452   1.324  14.054  2.5792  0.3551  0.8996
 5777TIP3    H238823   2.357   1.226  14.120  1.4885 -0.7146 -2.0851
 5778TIP3   OH238824   3.736   3.484   4.837 -0.9955  0.5926 -0.1766
 5778TIP3    H138825   3.657   3.467   4.787 -1.1453  1.9885 -0.4613
 5778TIP3    H238826   3.804   3.495   4.770 -0.7254  0.1980  0.0311
 5779TIP3   OH238827   0.073   6.604   0.515  0.2412 -0.5618  0.5892
 5779TIP3    H138828   0.025   6.687   0.517  1.7317  0.3624 -0.3854
 5779TIP3    H238829   0.008   6.540   0.486 -0.8499  0.3062  1.0193
 5780TIP3   OH238830   6.385   2.837   2.553 -0.1280 -0.3738 -0.2595
 5780TIP3    H138831   6.470   2.797   2.574 -0.4198 -0.8914 -0.0723
 5780TIP3    H238832   6.341   2.772   2.498 -1.4734 -1.2673  1.7779
 5781TIP3   OH238833   2.420   4.907   5.450  0.4498  0.4487 -0.0400
 5781TIP3    H138834   2.405   4.873   5.538  1.8069  1.8429  0.7763
 5781TIP3    H238835   2.443   4.830   5.398 -1.5914 -0.5807  0.4700
 5782TIP3   OH238836   0.529   3.832  16.009  0.0069  0.3854  0.4170
 5782TIP3    H138837   0.573   3.917  16.007  0.5409  0.0959 -0.5089
 5782TIP3    H238838   0.443   3.849  15.969 -0.7100  0.9126  2.0762
 5783TIP3   OH238839   5.894   1.109   5.101 -0.6229  0.0574  0.4871
 5783TIP3    H138840   5.872   1.202   5.108 -0.9101  0.0361 -0.1092
 5783TIP3    H238841   5.954   1.104   5.027  0.5841 -0.0325  1.4399
 5784TIP3   OH238842   1.917   5.196   3.022 -0.2515 -0.5873  0.3344
 5784TIP3    H138843   1.841   5.239   2.982  1.7523  1.5167 -1.4613
 5784TIP3    H238844   1.894   5.190   3.115 -2.1405  1.0581  0.0486
 5785TIP3   OH238845   2.142   4.669   1.371  0.5451  0.1926  0.8388
 5785TIP3    H138846   2.157   4.762   1.354  1.3705 -0.1293 -0.3363
 5785TIP3    H238847   2.052   4.653   1.343  1.5019 -0.0906 -2.6633
 5786TIP3   OH238848   2.491   0.207  14.167  0.2571  0.2214  0.2836
 5786TIP3    H138849   2.556   0.199  14.098  0.2587  1.1328  0.1683
 5786TIP3    H238850   2.515   0.140  14.231 -0.2703 -1.2512 -1.0040
 5787TIP3   OH238851   5.976   2.896  15.399  0.2063  0.7464  0.1534
 5787TIP3    H138852   5.985   2.813  15.352 -0.4015 -0.3916  1.9464
 5787TIP3    H238853   6.049   2.950  15.367  0.0133 -0.0717 -1.7948
 5788TIP3   OH238854   5.694   3.712   5.474  0.1476  0.0770 -0.5177
 5788TIP3    H138855   5.647   3.762   5.408 -0.9733  0.4127  0.4802
 5788TIP3    H238856   5.636   3.639   5.494  0.8644 -0.5049 -0.5245
 5789TIP3   OH238857   5.494   5.705  15.858 -0.3458 -0.8439  0.3836
 5789TIP3    H138858   5.551   5.776  15.831 -1.0475 -0.8128 -1.1543
 5789TIP3    H238859   5.442   5.741  15.930 -0.0611 -0.0996  0.2187
 5790TIP3   OH238860   4.217   2.514   3.845  0.4641 -0.0692  0.4869
 5790TIP3    H138861   4.125   2.539   3.846  0.8868  1.6501 -0.0553
 5790TIP3    H238862   4.251   2.550   3.763  1.3118 -1.9102 -0.0188
 5791TIP3   OH238863   2.882   5.271   4.436  0.8191  0.5552  0.5570
 5791TIP3    H138864   2.803   5.318   4.408  0.9437  0.5912  0.2596
 5791TIP3    H238865   2.955   5.327   4.409  0.9191  1.7377  3.0157
 5792TIP3   OH238866   2.553   4.674  14.081  0.0551 -0.1719 -1.0229
 5792TIP3    H138867   2.632   4.623  14.097 -0.3559 -0.4069  0.4075
 5792TIP3    H238868   2.493   4.613  14.038  0.2650 -0.3018 -1.1323
 5793TIP3   OH238869   0.507   1.547  11.231  0.0177  0.6024  0.0994
 5793TIP3    H138870   0.482   1.555  11.139 -0.2214 -1.9014 -0.1014
 5793TIP3    H238871   0.430   1.513  11.274  1.4129 -2.5410  0.3632
 5794TIP3   OH238872   0.432   2.655  13.425  0.2763 -0.0080  0.4655
 5794TIP3    H138873   0.381   2.578  13.400 -0.5132 -0.3476  2.8572
 5794TIP3    H238874   0.523   2.626  13.423  0.1446 -0.3850 -0.5923
 5795TIP3   OH238875   3.083   0.824  14.707 -0.7345 -0.0837  0.0876
 5795TIP3    H138876   3.175   0.810  14.685 -0.8689  1.0618 -1.4026
 5795TIP3    H238877   3.035   0.781  14.636 -1.4300 -1.9405  1.6127
 5796TIP3   OH238878   2.978   6.406  16.998  1.0246 -0.1188  0.0721
 5796TIP3    H138879   2.991   6.445  16.912  1.4572 -0.5428 -0.0611
 5796TIP3    H238880   3.057   6.430  17.047  0.7106  0.2494  0.3976
 5797TIP3   OH238881   2.792   5.228  14.648  0.3284 -0.4201  0.7015
 5797TIP3    H138882   2.696   5.219  14.649  0.0695  1.7692  2.3139
 5797TIP3    H238883   2.819   5.177  14.571 -2.1659 -0.6525 -0.1463
 5798TIP3   OH238884   1.120   4.218  13.244 -0.1414  0.4103  0.1485
 5798TIP3    H138885   1.056   4.279  13.208 -2.3535 -1.7682  0.0858
 5798TIP3    H238886   1.069   4.139  13.262  2.4658 -1.2544  0.6887
 5799TIP3   OH238887   4.587   3.450   4.704 -0.0245 -0.1473  0.7760
 5799TIP3    H138888   4.542   3.489   4.629  0.7562 -0.3771  0.1658
 5799TIP3    H238889   4.549   3.362   4.711  0.8337 -0.6320 -0.2334
 5800TIP3   OH238890   0.388   2.355  12.652  0.4070  0.8510  0.2658
 5800TIP3    H138891   0.294   2.337  12.657  0.4926  0.3974  0.3156
 5800TIP3    H238892   0.415   2.319  12.567  0.7736 -0.1926  0.8022
 5801TIP3   OH238893   1.752   2.468  15.779  0.4434  0.3393  0.0367
 5801TIP3    H138894   1.810   2.494  15.851 -0.1913  0.5439  0.4794
 5801TIP3    H238895   1.700   2.396  15.815 -0.0223  0.5830 -0.1525
 5802TIP3   OH238896   2.080   2.433   6.207  0.2613 -0.4698  0.0385
 5802TIP3    H138897   2.060   2.404   6.296 -2.1025  0.0705 -0.2400
 5802TIP3    H238898   2.163   2.479   6.215 -1.0759  1.8066  2.5565
 5803TIP3   OH238899   0.717   4.018  10.257 -0.2334  0.1249  0.6971
 5803TIP3    H138900   0.665   3.965  10.197 -1.6267  0.0753  1.8881
 5803TIP3    H238901   0.732   3.962  10.333 -3.9510  2.0324  3.1466
 5804TIP3   OH238902   1.577   0.337   0.706  0.0270 -0.1562  0.1002
 5804TIP3    H138903   1.561   0.269   0.771  0.3552 -0.4304 -0.1054
 5804TIP3    H238904   1.516   0.316   0.634 -0.9825  0.6609  0.6862
 5805TIP3   OH238905   2.640   4.335   1.896 -0.5008  0.8910 -0.2410
 5805TIP3    H138906   2.674   4.364   1.812 -0.2573  2.6482  0.4084
 5805TIP3    H238907   2.549   4.366   1.897 -0.8453 -0.0948 -0.2883
 5806TIP3   OH238908   1.536   4.786  11.644  0.4190  0.3062 -0.9082
 5806TIP3    H138909   1.605   4.735  11.686  0.0623  0.6945  0.1904
 5806TIP3    H238910   1.574   4.815  11.561  1.2850 -0.1516 -0.6766
 5807TIP3   OH238911   0.924   6.059  14.492  0.0991 -0.0838 -0.1216
 5807TIP3    H138912   0.931   6.137  14.437  0.2983  0.0117  0.0349
 5807TIP3    H238913   0.843   6.071  14.541  0.0293 -0.0684 -0.2426
 5808TIP3   OH238914   6.496   3.347  10.526  0.5521  0.5289  0.1097
 5808TIP3    H138915   6.485   3.414  10.593 -2.3285 -0.7303  1.0624
 5808TIP3    H238916   6.409   3.337  10.488  1.1676 -1.7817 -0.8473
 5809TIP3   OH238917   5.304   3.714   5.899  0.1608  0.0024  0.0051
 5809TIP3    H138918   5.308   3.764   5.981 -0.9110 -1.5450  1.0581
 5809TIP3    H238919   5.341   3.629   5.922  2.3934  0.3973 -1.8701
 5810TIP3   OH238920   0.177   4.308  15.223  0.5001 -0.0348 -0.3236
 5810TIP3    H138921   0.088   4.278  15.243 -0.2805  2.2001 -0.1874
 5810TIP3    H238922   0.212   4.338  15.307  1.7184 -1.5623 -0.2305
 5811TIP3   OH238923   4.553   2.601   3.004 -0.0587  0.3877  0.1753
 5811TIP3    H138924   4.557   2.538   3.077 -0.9956  0.5475  0.3662
 5811TIP3    H238925   4.508   2.554   2.934 -3.6295  1.8009  1.3440
 5812TIP3   OH238926   0.270   3.283  16.874 -0.1845 -0.0692  0.2336
 5812TIP3    H138927   0.319   3.323  16.802 -0.5743  0.7668  0.4208
 5812TIP3    H238928   0.183   3.323  16.869  0.3924  1.6694  2.4700
 5813TIP3   OH238929   5.413   2.861  15.334  0.0930  0.1304 -0.4467
 5813TIP3    H138930   5.401   2.948  15.373  0.6562 -0.3441  0.8543
 5813TIP3    H238931   5.470   2.815  15.395  0.5215 -0.8748 -1.5643
 5814TIP3   OH238932   1.366   6.180  10.649  0.1604  0.2601  0.0773
 5814TIP3    H138933   1.351   6.239  10.575  0.2682 -0.2884 -0.3814
 5814TIP3    H238934   1.360   6.237  10.726  2.8655  1.4167 -0.4534
 5815TIP3   OH238935   3.748   4.904   2.047  0.3788  0.6582 -0.2414
 5815TIP3    H138936   3.708   4.925   2.132 -0.5450 -0.0552 -0.4843
 5815TIP3    H238937   3.779   4.814   2.056  0.1578  0.5314 -0.6980
 5816TIP3   OH238938   1.587   2.546  12.773  0.0845  0.0464  0.1366
 5816TIP3    H138939   1.567   2.638  12.789 -0.4661 -0.0437 -0.0063
 5816TIP3    H238940   1.507   2.510  12.733  0.4146 -0.4082 -0.1336
 5817TIP3   OH238941   5.878   3.107  15.965  0.1435 -0.2171  0.8355
 5817TIP3    H138942   5.957   3.074  15.923 -0.1956 -0.0432  0.0309
 5817TIP3    H238943   5.856   3.042  16.032  0.3045 -0.8621  0.2700
 5818TIP3   OH238944   6.249   4.969   1.366  0.0636  0.8593 -0.1251
 5818TIP3    H138945   6.312   5.017   1.420 -1.0689  2.5470 -0.2126
 5818TIP3    H238946   6.173   4.959   1.423  0.7672 -2.2566  0.4092
 5819TIP3   OH238947   0.882   3.807   5.440 -0.3359  0.1336  0.1649
 5819TIP3    H138948   0.873   3.772   5.351 -0.4001 -1.9982  0.9498
 5819TIP3    H238949   0.967   3.775   5.470 -0.7908 -0.1146  1.2332
 5820TIP3   OH238950   4.530   5.516  13.896  0.1193 -0.0269  0.2187
 5820TIP3    H138951   4.584   5.559  13.963  1.8143 -0.4123 -0.8446
 5820TIP3    H238952   4.529   5.578  13.823  1.2026 -1.0353 -0.6923
 5821TIP3   OH238953   1.172   4.883   1.653 -0.2567  0.2490  0.2910
 5821TIP3    H138954   1.133   4.924   1.730 -0.7269  1.1163 -0.3915
 5821TIP3    H238955   1.123   4.919   1.579 -0.4850 -1.3295 -0.3674
 5822TIP3   OH238956   6.337   2.197  13.405 -0.3624 -0.4682 -0.6292
 5822TIP3    H138957   6.312   2.259  13.474  2.5811 -0.4940  0.6133
 5822TIP3    H238958   6.352   2.252  13.328  1.7060  0.4167  0.3189
 5823TIP3   OH238959   0.329   1.037   2.119  0.3517  0.1540 -0.2060
 5823TIP3    H138960   0.259   0.976   2.096 -0.3788  0.6274  0.7521
 5823TIP3    H238961   0.409   0.983   2.115  0.1683 -0.0823 -2.6550
 5824TIP3   OH238962   3.423   2.957   2.318  0.1952  0.3739  0.2299
 5824TIP3    H138963   3.498   2.979   2.264 -1.1832  0.5939 -1.6752
 5824TIP3    H238964   3.375   3.039   2.327 -0.5512 -0.0573  0.2423
 5825TIP3   OH238965   3.389   4.664  16.232 -0.0373 -1.0004 -0.7109
 5825TIP3    H138966   3.469   4.691  16.186 -0.0487  0.2313 -0.0425
 5825TIP3    H238967   3.319   4.712  16.187 -0.1330 -0.3650  0.1009
 5826TIP3   OH238968   3.381   0.349  12.235  0.2812  0.0985  0.6202
 5826TIP3    H138969   3.319   0.339  12.163 -1.2706 -1.5059  2.0604
 5826TIP3    H238970   3.340   0.414  12.293  0.4321 -0.2311  1.1029
 5827TIP3   OH238971   2.370   1.698   0.583 -0.1137 -0.6976  0.1139
 5827TIP3    H138972   2.398   1.788   0.600 -1.5399 -0.3955  0.9908
 5827TIP3    H238973   2.451   1.647   0.589  0.8611  0.5994 -1.1922
 5828TIP3   OH238974   6.831   6.642  14.634 -0.3252  0.3477  0.4660
 5828TIP3    H138975   6.779   6.706  14.585 -0.6950 -0.1072  0.2644
 5828TIP3    H238976   6.843   6.683  14.720 -0.4555  0.7418  0.3008
 5829TIP3   OH238977   2.608   0.018   0.726  0.6353  0.3466  0.0242
 5829TIP3    H138978   2.694  -0.014   0.700  0.6678  0.8690 -0.5227
 5829TIP3    H238979   2.623   0.063   0.809  0.8857  0.4202 -0.0603
 5830TIP3   OH238980   5.774   2.405  14.334 -0.1284  0.6279  0.6838
 5830TIP3    H138981   5.791   2.344  14.406  0.4681 -0.3663 -0.2619
 5830TIP3    H238982   5.697   2.369  14.290 -2.2042  2.7229  2.3645
 5831TIP3   OH238983   4.625   0.358  16.819  0.5602 -0.1064 -0.7074
 5831TIP3    H138984   4.669   0.313  16.891 -3.7268 -3.0709  0.4570
 5831TIP3    H238985   4.591   0.438  16.858  1.9483  0.5171 -0.7233
 5832TIP3   OH238986   0.849   5.002  14.302  0.2170 -0.3201 -0.5703
 5832TIP3    H138987   0.923   5.010  14.242  1.0575 -1.3566  0.2817
 5832TIP3    H238988   0.776   4.971  14.248  0.6187 -0.0483 -1.2701
 5833TIP3   OH238989   3.771   4.738  16.533  0.2038  0.0844  0.1042
 5833TIP3    H138990   3.743   4.736  16.624  0.1116  0.9868  0.1037
 5833TIP3    H238991   3.861   4.770  16.536 -0.8460  3.4550 -0.3097
 5834TIP3   OH238992   0.044   6.195  11.380  0.4712 -0.2345  0.8401
 5834TIP3    H138993   0.116   6.257  11.369  2.7006 -2.8139 -0.3654
 5834TIP3    H238994  -0.011   6.208  11.303  0.3912  0.7916  1.0508
 5835TIP3   OH238995   0.534   2.137  12.076 -0.0431  0.5164 -0.0106
 5835TIP3    H138996   0.607   2.191  12.046 -1.0455  0.8304 -2.1178
 5835TIP3    H238997   0.471   2.199  12.111 -1.0479  0.7884 -2.1179
 5836TIP3   OH238998   1.780   2.770   4.441 -0.2548  0.1954 -0.3677
 5836TIP3    H138999   1.829   2.772   4.524  0.3739 -1.4659 -0.6576
 5836TIP3    H239000   1.844   2.798   4.375 -0.7766  1.5922 -0.3189
 5837TIP3   OH239001   1.473   4.659  10.256  0.0400  0.1754 -0.5359
 5837TIP3    H139002   1.381   4.663  10.282 -0.1668 -0.5406 -1.1112
 5837TIP3    H239003   1.478   4.583  10.198  0.6532  1.2089 -1.8821
 5838TIP3   OH239004   2.890   1.095  12.591 -0.1879  0.1943  0.3174
 5838TIP3    H139005   2.844   1.023  12.635 -0.6005 -0.6478 -1.4026
 5838TIP3    H239006   2.958   1.051  12.540 -0.5882  0.9949 -0.9369
 5839TIP3   OH239007   5.388   2.087   2.758  0.3601  0.0820 -0.2937
 5839TIP3    H139008   5.448   2.034   2.811 -0.0387 -0.3712 -0.2827
 5839TIP3    H239009   5.320   2.115   2.819  0.8109  0.9875 -0.2061
 5840TIP3   OH239010   0.196   1.936   2.764 -0.3585 -0.2715 -0.2631
 5840TIP3    H139011   0.210   1.845   2.790 -0.4981 -0.2225 -0.0114
 5840TIP3    H239012   0.189   1.984   2.847  2.1891  0.3793 -0.3254
 5841TIP3   OH239013   4.285   6.021   4.634  0.2814 -0.1921 -0.4483
 5841TIP3    H139014   4.196   6.011   4.669 -0.0363 -3.0687 -1.7685
 5841TIP3    H239015   4.272   6.022   4.539  1.6372 -0.0981 -0.6427
 5842TIP3   OH239016   1.031   5.597  16.827  0.1922 -0.2690 -0.0417
 5842TIP3    H139017   1.007   5.514  16.868 -0.6418 -0.6728 -1.2731
 5842TIP3    H239018   0.949   5.647  16.826  0.5920  0.4051  0.3029
 5843TIP3   OH239019   3.291   3.832  12.985  0.3788  0.1144 -0.3270
 5843TIP3    H139020   3.341   3.832  13.066 -0.6862 -0.9816  0.3730
 5843TIP3    H239021   3.301   3.920  12.950  1.8439  0.2438  0.3599
 5844TIP3   OH239022   6.156   4.757  12.304  0.2125  0.1366  0.2054
 5844TIP3    H139023   6.202   4.795  12.379  2.8721 -0.9004 -0.7859
 5844TIP3    H239024   6.175   4.664  12.309  0.6818  0.0774 -1.8800
 5845TIP3   OH239025   0.970   4.964   4.038  0.4865 -0.2731  0.2636
 5845TIP3    H139026   0.928   4.885   4.072  0.9521 -0.4164  0.5152
 5845TIP3    H239027   1.064   4.949   4.051  0.7456 -0.6409 -1.7505
 5846TIP3   OH239028   3.379   2.202  12.365  0.0116 -0.4772 -0.2899
 5846TIP3    H139029   3.344   2.119  12.399  0.8915 -0.5625  0.4626
 5846TIP3    H239030   3.457   2.176  12.316 -0.2875 -0.1778 -0.9429
 5847TIP3   OH239031   2.891   4.355  16.644 -0.3418  0.0848  0.0256
 5847TIP3    H139032   2.839   4.392  16.573 -0.9762 -0.2720  0.2939
 5847TIP3    H239033   2.844   4.275  16.670  0.2170 -0.1253  0.4234
 5848TIP3   OH239034   5.100   1.519   1.161  0.0172  0.0794  0.5298
 5848TIP3    H139035   5.187   1.492   1.134  1.3928  3.4740  1.0550
 5848TIP3    H239036   5.094   1.493   1.253  1.4341  1.7092  1.1308
 5849TIP3   OH239037   3.860   3.158   2.044  0.2840 -0.2943  0.6846
 5849TIP3    H139038   3.836   3.207   1.966  1.5778  0.3438  0.6556
 5849TIP3    H239039   3.857   3.067   2.017  0.8753 -0.0730 -0.1615
 5850TIP3   OH239040   6.796   6.680  13.865  0.5014 -0.0828 -0.1418
 5850TIP3    H139041   6.887   6.709  13.868  0.6469 -0.5257 -0.2058
 5850TIP3    H239042   6.791   6.609  13.928  0.3932 -0.6007 -0.7279
 5851TIP3   OH239043   2.501   3.772  17.085 -0.3653  0.2124  0.1946
 5851TIP3    H139044   2.408   3.783  17.109 -0.5404  0.7787 -0.6991
 5851TIP3    H239045   2.547   3.769  17.169 -1.2539 -0.7102  0.6694
 5852TIP3   OH239046   3.682   3.965  12.170  0.2061  0.6845 -0.1307
 5852TIP3    H139047   3.637   4.039  12.131 -1.3828 -0.0881  0.1620
 5852TIP3    H239048   3.672   3.894  12.106  1.7023  0.6913 -0.4065
 5853TIP3   OH239049   4.000   1.482   3.613 -0.1131  0.3661  0.5805
 5853TIP3    H139050   3.959   1.405   3.575 -2.2649  1.7499 -0.0590
 5853TIP3    H239051   4.020   1.457   3.703  1.0039 -1.5091 -0.1408
 5854TIP3   OH239052   1.548   5.876   3.729  0.0766  0.1449 -0.1876
 5854TIP3    H139053   1.579   5.956   3.771  1.4839  0.3827 -1.5969
 5854TIP3    H239054   1.567   5.807   3.793 -0.2934  0.7984  0.6555
 5855TIP3   OH239055   6.355   0.533  14.221  0.4442  0.0535 -0.2183
 5855TIP3    H139056   6.265   0.559  14.201  1.4113  2.0266 -2.5894
 5855TIP3    H239057   6.408   0.606  14.190  2.8628 -0.8070  1.6126
 5856TIP3   OH239058   2.371   6.747   1.773  0.0792  0.1444  0.4345
 5856TIP3    H139059   2.449   6.799   1.757  0.1625 -0.3332 -0.8620
 5856TIP3    H239060   2.401   6.656   1.768 -0.9604 -0.1462 -2.9056
 5857TIP3   OH239061   4.068   3.560   1.611  0.7881 -0.1708 -0.0758
 5857TIP3    H139062   4.124   3.483   1.625 -1.2252 -1.5426  1.0238
 5857TIP3    H239063   3.991   3.525   1.565  0.0271  1.2794  0.0483
 5858TIP3   OH239064   0.140   0.396   4.577  0.0194 -0.3554  0.0602
 5858TIP3    H139065   0.080   0.370   4.647 -0.5596  0.3576 -0.1575
 5858TIP3    H239066   0.201   0.322   4.568 -0.1285 -0.6062  1.0584
 5859TIP3   OH239067   3.219   0.126  11.736  0.0572  0.0836  0.0018
 5859TIP3    H139068   3.210   0.113  11.642 -1.0145  1.2296 -0.0804
 5859TIP3    H239069   3.185   0.214  11.751  1.1254  0.2938  1.3344
 5860TIP3   OH239070   2.472   3.992  14.001  0.2735  0.0670 -0.3552
 5860TIP3    H139071   2.476   3.909  14.050  0.0250  0.3794  0.2050
 5860TIP3    H239072   2.505   4.057  14.063 -1.0201  0.6306 -0.2407
 5861TIP3   OH239073   3.841   0.077   1.976  0.0171 -0.0012 -0.1006
 5861TIP3    H139074   3.908   0.145   1.983  1.5182 -1.3376 -0.6209
 5861TIP3    H239075   3.887  -0.003   2.003 -1.6745 -0.8231  0.4533
 5862TIP3   OH239076   2.550   0.563  16.618  0.6597 -0.0252  0.0613
 5862TIP3    H139077   2.620   0.511  16.658  0.4744  0.5041  1.0951
 5862TIP3    H239078   2.589   0.594  16.536  2.0842  1.2227  1.1509
 5863TIP3   OH239079   0.484   4.278   3.111 -0.2080 -0.2243  0.1988
 5863TIP3    H139080   0.417   4.339   3.080  0.5088 -0.1593 -1.3016
 5863TIP3    H239081   0.512   4.314   3.195 -0.2579  1.1616 -0.3550
 5864TIP3   OH239082   3.940   2.679   2.778 -0.4920  0.5793 -0.2942
 5864TIP3    H139083   3.979   2.592   2.771 -0.0224  0.6544  1.1704
 5864TIP3    H239084   3.897   2.680   2.863 -0.3544  1.8389 -0.2193
 5865TIP3   OH239085   3.767   4.136  15.546 -1.0524  0.0709 -0.3491
 5865TIP3    H139086   3.773   4.196  15.620  0.0868  0.0758 -0.4266
 5865TIP3    H239087   3.761   4.192  15.469 -1.1204  0.0753 -0.3409
 5866TIP3   OH239088   2.962   1.512   5.940  1.0520 -0.3126  0.4841
 5866TIP3    H139089   3.010   1.588   5.907 -0.4425  0.8711  0.9077
 5866TIP3    H239090   2.945   1.534   6.031 -0.1149 -0.7845  0.3828
 5867TIP3   OH239091   4.053   0.187   1.721  0.3328 -0.3705  0.3714
 5867TIP3    H139092   4.038   0.250   1.792 -0.0166  0.6549 -0.5770
 5867TIP3    H239093   4.140   0.210   1.688  0.1810 -0.3536 -0.0129
 5868TIP3   OH239094   4.545   6.793  14.618  0.4091  0.3309  0.0847
 5868TIP3    H139095   4.495   6.771  14.696  0.0957  0.3774 -0.1044
 5868TIP3    H239096   4.490   6.765  14.545  1.0640 -0.4988 -0.1060
 5869TIP3   OH239097   3.341   3.468  11.784  0.3594  0.5795 -0.1499
 5869TIP3    H139098   3.339   3.472  11.689 -1.2094 -1.7849 -0.2888
 5869TIP3    H239099   3.361   3.377  11.804 -1.5724  0.4914  1.7346
 5870TIP3   OH239100   4.783   0.172   1.094 -0.3465  0.0678  0.0044
 5870TIP3    H139101   4.750   0.218   1.016 -1.2059 -1.0187 -0.3132
 5870TIP3    H239102   4.876   0.159   1.077 -0.2464  1.0416 -0.2199
 5871TIP3   OH239103   4.366   4.998  15.086 -0.0593  0.1703  0.3744
 5871TIP3    H139104   4.380   4.928  15.150  0.2126  0.2964  0.4543
 5871TIP3    H239105   4.356   5.077  15.138 -0.8860  0.1215  0.3104
 5872TIP3   OH239106   2.640   1.684  14.304  0.4249  0.0384 -0.0770
 5872TIP3    H139107   2.722   1.670  14.256  1.3947 -0.5592  1.6745
 5872TIP3    H239108   2.661   1.751  14.369 -1.1149  1.5016 -1.0012
 5873TIP3   OH239109   6.238   5.914  10.463  0.0129 -0.6784 -0.4716
 5873TIP3    H139110   6.313   5.887  10.517  0.5134 -0.3287 -0.9765
 5873TIP3    H239111   6.167   5.855  10.489  0.2850 -0.6203  0.4518
 5874TIP3   OH239112   3.814   2.846  16.113  0.0411 -0.6961  0.3488
 5874TIP3    H139113   3.807   2.769  16.170 -0.7714 -0.7796  0.1593
 5874TIP3    H239114   3.724   2.881  16.110  0.5043  0.5876  0.8802
 5875TIP3   OH239115   2.189   2.450  15.250  0.5020  0.2782 -0.0772
 5875TIP3    H139116   2.178   2.432  15.343 -2.5462 -0.3518 -0.4372
 5875TIP3    H239117   2.213   2.543  15.246  1.6448  0.0705  1.3310
 5876TIP3   OH239118   3.432   5.477   6.253 -0.1357  0.7261 -0.1989
 5876TIP3    H139119   3.348   5.500   6.213  0.8284  1.3554 -2.0156
 5876TIP3    H239120   3.417   5.392   6.294 -1.2250 -0.0323 -2.0255
 5877TIP3   OH239121   3.177   3.317  10.825  0.6243 -0.1542 -0.5354
 5877TIP3    H139122   3.131   3.235  10.839  2.5638 -1.5227 -1.7081
 5877TIP3    H239123   3.204   3.345  10.913  0.1532 -0.8792 -0.1498
 5878TIP3   OH239124   6.513   4.705   2.005  0.3598 -0.3183  0.2760
 5878TIP3    H139125   6.466   4.678   2.083 -0.3631 -1.6394 -0.5761
 5878TIP3    H239126   6.452   4.763   1.958  0.8032  0.4976  0.6843
 5879TIP3   OH239127   5.644   3.342   0.673  0.2546 -0.0103 -0.5104
 5879TIP3    H139128   5.671   3.352   0.582  2.7629  0.3819  0.1813
 5879TIP3    H239129   5.670   3.253   0.697  1.3888  0.5007  0.2869
 5880TIP3   OH239130   4.664   6.224   4.892 -0.4096 -0.3227 -0.5418
 5880TIP3    H139131   4.700   6.162   4.956  2.0459 -1.1059 -2.5439
 5880TIP3    H239132   4.663   6.308   4.938  2.4207 -0.6058  0.2417
 5881TIP3   OH239133   6.504   5.732  11.111  0.3832 -0.5846  0.6085
 5881TIP3    H139134   6.542   5.644  11.117 -0.4242 -1.0722 -0.8396
 5881TIP3    H239135   6.429   5.730  11.170 -0.8738 -1.6034 -0.9312
 5882TIP3   OH239136   5.709   0.601  13.103 -0.2451 -0.2395  0.2329
 5882TIP3    H139137   5.666   0.567  13.182  1.7300  0.0693  1.5179
 5882TIP3    H239138   5.802   0.580  13.116 -0.0060 -1.6057 -2.7687
 5883TIP3   OH239139   4.875   6.732   3.214 -0.0326  0.3423  0.1849
 5883TIP3    H139140   4.953   6.751   3.266 -0.8529  0.8725  1.2464
 5883TIP3    H239141   4.865   6.808   3.156  1.0451 -0.3757 -1.0134
 5884TIP3   OH239142   5.985   0.535   2.764 -0.3117 -0.2209 -0.6966
 5884TIP3    H139143   5.955   0.625   2.772 -0.6240 -0.2834 -1.1118
 5884TIP3    H239144   5.932   0.486   2.827  1.5988  0.2595  1.4094
 5885TIP3   OH239145   1.649   2.674   1.565  0.1274 -0.2639  0.2020
 5885TIP3    H139146   1.627   2.616   1.638 -0.0497 -0.5951 -0.1124
 5885TIP3    H239147   1.672   2.615   1.493 -0.6919  0.0393 -0.3205
 5886TIP3   OH239148   2.504   6.390  15.314 -0.0308 -0.4736 -0.1233
 5886TIP3    H139149   2.496   6.441  15.233 -0.1122 -0.2857  0.0041
 5886TIP3    H239150   2.430   6.329  15.311 -1.4086  1.0670  0.9138
 5887TIP3   OH239151   6.578   4.945   0.994 -0.3379 -0.5990 -0.4706
 5887TIP3    H139152   6.593   4.867   1.047 -1.0275 -0.0073  0.6212
 5887TIP3    H239153   6.510   4.918   0.931  1.2979 -1.6453 -1.8771
 5888TIP3   OH239154   1.120   0.718  13.015  0.1750  0.4278  0.0311
 5888TIP3    H139155   1.205   0.761  13.004  0.0050  0.2944 -2.1819
 5888TIP3    H239156   1.121   0.647  12.952 -1.9215  0.9628 -0.6673
 5889TIP3   OH239157   2.904   0.099   5.751 -0.2801 -0.0072  0.6151
 5889TIP3    H139158   2.910   0.193   5.764  1.1999  0.6010 -3.1506
 5889TIP3    H239159   2.812   0.083   5.729 -0.6064  0.4658  1.5943
 5890TIP3   OH239160   6.231   0.985  12.248 -0.0534  0.7835  0.4070
 5890TIP3    H139161   6.136   0.977  12.260  0.1670 -0.5746  1.4605
 5890TIP3    H239162   6.242   1.069  12.204 -1.6954  1.3454  0.9748
 5891TIP3   OH239163   0.607   6.459  16.290 -0.5011  0.3644 -0.1294
 5891TIP3    H139164   0.638   6.424  16.374 -0.3041 -1.5110 -0.9544
 5891TIP3    H239165   0.623   6.553  16.297  0.9690  0.0583  1.3346
 5892TIP3   OH239166   6.249   5.570   5.321 -0.6941 -0.1263  0.3138
 5892TIP3    H139167   6.208   5.488   5.347  0.7072 -0.5986  1.1553
 5892TIP3    H239168   6.326   5.543   5.270 -0.5253  0.6739  0.1257
 5893TIP3   OH239169   5.891   6.618   3.958  0.2118 -0.1785  0.6053
 5893TIP3    H139170   5.939   6.661   4.029  1.7338 -1.1802  0.2421
 5893TIP3    H239171   5.838   6.552   4.001  0.4057 -0.1477  0.8929
 5894TIP3   OH239172   1.125   5.545   1.530 -0.6100 -0.4570 -0.1713
 5894TIP3    H139173   1.180   5.615   1.494 -1.7794 -0.4836 -2.1737
 5894TIP3    H239174   1.120   5.564   1.624  0.6702  1.0114 -0.3600
 5895TIP3   OH239175   4.850   1.120  14.707 -0.5651  0.0642 -0.3345
 5895TIP3    H139176   4.923   1.128  14.647 -1.2807  0.7110 -1.1537
 5895TIP3    H239177   4.772   1.135  14.653 -1.2414  0.4853  0.7089
 5896TIP3   OH239178   2.709   1.997   4.716  0.7518  0.4994 -0.5909
 5896TIP3    H139179   2.754   2.008   4.633  0.0835  0.4740 -0.9645
 5896TIP3    H239180   2.616   1.989   4.693  0.1372  3.5118  0.3526
 5897TIP3   OH239181   5.499   1.232   1.164  0.1258  0.1578 -0.2264
 5897TIP3    H139182   5.471   1.279   1.242 -0.3424  2.5652 -1.7089
 5897TIP3    H239183   5.594   1.222   1.174 -0.2325 -2.1948  1.8672
 5898TIP3   OH239184   1.406   3.184  13.366  0.0449  0.3099  0.3942
 5898TIP3    H139185   1.480   3.208  13.421 -2.0043 -0.2878  3.6511
 5898TIP3    H239186   1.333   3.236  13.399 -1.2984  0.1092 -1.9953
 5899TIP3   OH239187   6.366   1.253  15.724  0.4577 -0.3424 -0.0366
 5899TIP3    H139188   6.291   1.301  15.690  0.0641 -1.1973 -0.4050
 5899TIP3    H239189   6.380   1.290  15.811 -0.1437  0.0929 -0.1158
 5900TIP3   OH239190   2.006   5.520   1.439  0.5265  0.0718 -0.5504
 5900TIP3    H139191   2.079   5.503   1.498  0.1323 -0.5925 -0.2400
 5900TIP3    H239192   1.964   5.599   1.475  0.9473  0.3190 -0.5984
 5901TIP3   OH239193   2.644   1.797  11.095  0.9506  0.3682 -0.1114
 5901TIP3    H139194   2.705   1.753  11.155 -1.9595  0.6027  3.3451
 5901TIP3    H239195   2.579   1.730  11.075  0.0557  1.2431 -0.2052
 5902TIP3   OH239196   4.684   0.553   1.522 -0.9676  0.3931  1.3413
 5902TIP3    H139197   4.769   0.561   1.478 -0.0857 -3.1174  2.0954
 5902TIP3    H239198   4.623   0.533   1.451 -0.5773  0.0499  1.0949
 5903TIP3   OH239199   1.544   3.868   0.582  0.0703 -0.5214  0.1841
 5903TIP3    H139200   1.476   3.851   0.516  1.1582  1.2994 -1.5155
 5903TIP3    H239201   1.510   3.940   0.634  0.4522  0.0236 -0.3139
 5904TIP3   OH239202   5.759   1.960   1.525  0.1160 -0.5037  0.0961
 5904TIP3    H139203   5.778   2.019   1.598 -0.2110  1.4882 -1.3668
 5904TIP3    H239204   5.796   2.003   1.448  2.3120 -3.5377 -0.7113
 5905TIP3   OH239205   1.051   5.938   5.825  0.1282  0.1618 -0.5688
 5905TIP3    H139206   1.003   5.966   5.746  0.4505  0.5379 -0.6336
 5905TIP3    H239207   0.982   5.914   5.887 -0.1218 -1.2054 -1.3402
 5906TIP3   OH239208   4.396   1.280  11.868  0.0431  0.9254 -0.4679
 5906TIP3    H139209   4.316   1.329  11.888 -2.4042 -2.6564 -0.4070
 5906TIP3    H239210   4.414   1.230  11.947  0.1909 -0.9455 -1.6158
 5907TIP3   OH239211   2.394   3.052  13.556 -0.4007  0.0915 -0.2489
 5907TIP3    H139212   2.375   3.130  13.503 -1.6327 -0.1755 -0.2356
 5907TIP3    H239213   2.434   3.087  13.636 -2.5144  0.9026  0.5154
 5908TIP3   OH239214   5.956   3.452   5.774 -0.5194  0.4854  0.6283
 5908TIP3    H139215   5.987   3.409   5.853 -0.3964 -0.2524  0.1943
 5908TIP3    H239216   5.869   3.486   5.796 -0.8376 -0.4375  0.8338
 5909TIP3   OH239217   6.676   5.937  11.804 -0.5073  0.1537 -0.8897
 5909TIP3    H139218   6.763   5.925  11.842 -1.1889 -1.4598  0.2587
 5909TIP3    H239219   6.691   5.943  11.710  1.0030  1.8410 -0.6009
 5910TIP3   OH239220   0.598   4.714  14.369  0.2417 -0.0979 -0.4700
 5910TIP3    H139221   0.504   4.706  14.355  0.4699 -1.3437 -1.4908
 5910TIP3    H239222   0.607   4.786  14.431 -1.3824 -0.0130 -0.2904
 5911TIP3   OH239223   4.118   6.671   3.150  0.0616  0.2137  0.6741
 5911TIP3    H139224   4.043   6.679   3.091  2.3881 -0.9158 -2.7520
 5911TIP3    H239225   4.153   6.760   3.157 -0.7978  0.5213  1.2311
 5912TIP3   OH239226   0.238   5.678   4.287  0.0711 -0.1520  0.5365
 5912TIP3    H139227   0.174   5.702   4.354 -0.0749 -0.4320  0.4953
 5912TIP3    H239228   0.194   5.612   4.233  0.0586  0.3278 -0.0522
 5913TIP3   OH239229   1.475   2.813  12.308  0.1036  0.1625 -0.2090
 5913TIP3    H139230   1.495   2.904  12.330 -0.7484  0.6265 -1.2629
 5913TIP3    H239231   1.544   2.788  12.246  0.6176 -0.0813  0.4496
 5914TIP3   OH239232   5.913   6.193  14.502  0.1016  0.1228 -0.0967
 5914TIP3    H139233   5.901   6.098  14.508  0.0825  0.1987  1.4046
 5914TIP3    H239234   5.873   6.227  14.582  0.7927  1.3265 -0.2424
 5915TIP3   OH239235   5.896   1.123   4.767  0.1397 -0.0302  0.0062
 5915TIP3    H139236   5.827   1.057   4.764 -0.4605  0.6044 -0.2918
 5915TIP3    H239237   5.953   1.095   4.839  0.4442 -1.4044 -0.7367
 5916TIP3   OH239238   1.625   5.483  13.407 -0.5594  0.4073  0.3105
 5916TIP3    H139239   1.635   5.480  13.502 -0.0126  1.0747  0.2822
 5916TIP3    H239240   1.696   5.540  13.377  1.2052 -2.1756 -0.7878
 5917TIP3   OH239241   4.337   3.783  13.550  0.0308  0.8616  0.1378
 5917TIP3    H139242   4.244   3.806  13.558  0.5159  2.9720  0.4247
 5917TIP3    H239243   4.382   3.849  13.603  1.7139 -0.0208 -0.1349
 5918TIP3   OH239244   3.553   6.590  16.144  0.2120 -0.6224 -0.2386
 5918TIP3    H139245   3.629   6.582  16.201 -0.0770 -2.0436 -0.0250
 5918TIP3    H239246   3.501   6.660  16.184  0.5371 -0.8613  0.6246
 5919TIP3   OH239247   1.631   5.243   0.019  0.3705  0.0538  0.7486
 5919TIP3    H139248   1.634   5.150   0.044  1.5821 -0.9172 -2.5208
 5919TIP3    H239249   1.592   5.243  -0.068 -0.3228  2.7689  0.9718
 5920TIP3   OH239250   4.966   4.257   1.548  0.0024 -0.3093 -0.7901
 5920TIP3    H139251   4.994   4.169   1.575 -0.5303 -0.6739 -1.3925
 5920TIP3    H239252   4.939   4.246   1.457 -1.4351  0.1752 -0.4387
 5921TIP3   OH239253   5.358   2.613  16.724  0.2864 -0.2000 -0.0250
 5921TIP3    H139254   5.396   2.679  16.782  0.0560 -0.4081  0.3684
 5921TIP3    H239255   5.419   2.539  16.729 -0.1353 -0.5147  0.5679
 5922TIP3   OH239256   6.728   3.235  14.652  0.4104 -0.2737 -0.6705
 5922TIP3    H139257   6.822   3.247  14.640  0.7078  1.4005  2.3946
 5922TIP3    H239258   6.688   3.293  14.588  1.4462 -0.3001 -1.3806
 5923TIP3   OH239259   1.209   2.260  14.083  0.3034  0.0919 -0.6613
 5923TIP3    H139260   1.230   2.296  13.997 -1.2001  0.6717 -0.8147
 5923TIP3    H239261   1.175   2.334  14.133 -0.2081 -0.5385 -0.0530
 5924TIP3   OH239262   5.343   6.744  13.422 -0.0101 -0.2750 -0.5230
 5924TIP3    H139263   5.346   6.754  13.327 -3.1000  1.0569 -0.6061
 5924TIP3    H239264   5.350   6.834  13.455  2.1770 -0.8055  0.6475
 5925TIP3   OH239265   5.769   6.111   6.182 -0.5453  0.1501 -0.1492
 5925TIP3    H139266   5.803   6.022   6.185 -1.8244 -0.4520 -1.6533
 5925TIP3    H239267   5.834   6.164   6.228 -0.0528 -1.6345  1.3115
 5926TIP3   OH239268   1.379   2.091  11.309  0.6353 -0.5348  0.0200
 5926TIP3    H139269   1.328   2.014  11.333 -0.3134 -0.1228 -0.6269
 5926TIP3    H239270   1.438   2.061  11.240 -0.4032 -0.4809 -0.9214
 5927TIP3   OH239271   5.023   5.467   0.236  0.2818  0.5776 -0.5880
 5927TIP3    H139272   4.937   5.429   0.219  0.6723 -1.5157  1.5202
 5927TIP3    H239273   5.004   5.557   0.266 -1.1232  0.3226 -0.6344
 5928TIP3   OH239274   5.737   6.368   3.331  0.1481 -0.1487 -0.6987
 5928TIP3    H139275   5.762   6.294   3.277 -0.1973 -1.2683  0.6056
 5928TIP3    H239276   5.731   6.332   3.420 -1.2264  1.1525 -0.2151
 5929TIP3   OH239277   5.652   3.381   3.329  0.2629  0.1275 -0.1076
 5929TIP3    H139278   5.581   3.332   3.370  0.2285 -0.4263 -0.8019
 5929TIP3    H239279   5.696   3.425   3.402 -1.7507  1.7922  0.1936
 5930TIP3   OH239280   6.233   5.875  14.559  0.2064  0.0128 -0.4791
 5930TIP3    H139281   6.268   5.881  14.647 -0.1195  0.0686 -0.3507
 5930TIP3    H239282   6.151   5.924  14.562 -0.6267 -1.3398 -0.3858
 5931TIP3   OH239283   0.687   0.194   3.762 -0.8236 -0.3719  0.1632
 5931TIP3    H139284   0.598   0.168   3.737 -0.7950 -2.8671  2.1941
 5931TIP3    H239285   0.743   0.125   3.726 -0.1197 -0.6065  1.6530
 5932TIP3   OH239286   3.360   1.331  10.746 -0.2706  0.2430  0.1401
 5932TIP3    H139287   3.400   1.247  10.725  1.5631  0.9226  0.7526
 5932TIP3    H239288   3.393   1.391  10.680 -2.3986  0.3152 -0.9352
 5933TIP3   OH239289   5.017   4.622  12.286 -0.0181  0.1047  0.3418
 5933TIP3    H139290   4.938   4.619  12.233  0.5704 -2.1511 -0.5345
 5933TIP3    H239291   5.019   4.537  12.331  2.1338 -0.1368 -0.0854
 5934TIP3   OH239292   4.182   5.770  12.266 -0.2691  0.8962  0.7667
 5934TIP3    H139293   4.171   5.832  12.194  0.5143  0.1647 -0.0288
 5934TIP3    H239294   4.095   5.760  12.304 -1.2121 -0.3210 -1.4961
 5935TIP3   OH239295   0.934   2.465  16.182 -1.0309 -0.1553  0.2989
 5935TIP3    H139296   0.982   2.470  16.099  0.2724  1.2088  1.0748
 5935TIP3    H239297   0.842   2.471  16.156 -0.7350 -1.0981 -1.1225
 5936TIP3   OH239298   3.946   0.743   1.257 -0.0516  0.0520 -0.6312
 5936TIP3    H139299   3.864   0.729   1.305  1.3035  0.6416  1.9968
 5936TIP3    H239300   3.995   0.805   1.310  1.8526  0.2522 -2.4958
 5937TIP3   OH239301   1.844   4.411   1.882 -0.2326  0.0894 -0.0035
 5937TIP3    H139302   1.837   4.315   1.889  2.1567 -0.1797 -0.4635
 5937TIP3    H239303   1.829   4.442   1.971 -0.5921 -0.7383  0.2422
 5938TIP3   OH239304   0.558   3.916   5.809 -0.2962  0.2285 -0.1293
 5938TIP3    H139305   0.560   3.826   5.843 -1.4172 -0.2385 -1.2172
 5938TIP3    H239306   0.467   3.944   5.820  0.0160  1.1888  0.0713
 5939TIP3   OH239307   2.625   6.599   1.651 -0.3005 -0.0970 -0.5811
 5939TIP3    H139308   2.634   6.693   1.669  2.5423 -0.0022 -2.0745
 5939TIP3    H239309   2.632   6.592   1.556 -1.6575 -1.7838 -0.6101
 5940TIP3   OH239310   2.182   6.015  16.757  0.4100  0.4721 -0.0051
 5940TIP3    H139311   2.193   6.104  16.790  0.2513  0.2093  0.7819
 5940TIP3    H239312   2.234   6.012  16.677  1.6411  0.8421  0.7541
 5941TIP3   OH239313   5.254   5.729  14.497 -0.1824  0.2097 -0.0995
 5941TIP3    H139314   5.180   5.686  14.454 -0.7047 -0.7066  1.6437
 5941TIP3    H239315   5.239   5.823  14.483 -1.0055 -0.0174 -0.7915
 5942TIP3   OH239316   0.911   6.754   2.826 -0.4468  0.3040 -0.0467
 5942TIP3    H139317   0.901   6.822   2.892 -1.5929  0.7921 -0.7039
 5942TIP3    H239318   0.973   6.790   2.763 -2.1997  1.4248 -1.2093
 5943TIP3   OH239319   2.710   0.937  10.590  0.2073 -0.3369 -0.9385
 5943TIP3    H139320   2.633   0.976  10.548  1.0620  0.3290 -1.9203
 5943TIP3    H239321   2.753   0.888  10.520 -0.0269 -1.8225 -0.0762
 5944TIP3   OH239322   0.711   0.764  12.219  0.0207 -0.2403 -0.4239
 5944TIP3    H139323   0.767   0.842  12.222 -0.8174  0.3859 -0.5481
 5944TIP3    H239324   0.666   0.770  12.135 -1.0485 -0.1356  0.1313
 5945TIP3   OH239325   1.569   6.561  14.920 -0.2377 -0.0459  0.4526
 5945TIP3    H139326   1.559   6.607  14.837 -1.8695  2.7472  2.0168
 5945TIP3    H239327   1.516   6.482  14.910 -0.6003  0.3532 -1.0907
 5946TIP3   OH239328   5.706   1.227  15.098 -0.5208 -0.3466 -0.2050
 5946TIP3    H139329   5.683   1.214  15.006 -1.2087  0.1240 -0.1081
 5946TIP3    H239330   5.636   1.282  15.133  1.5146  2.4606 -0.2332
 5947TIP3   OH239331   3.810   1.899  14.116 -0.2462 -0.2262  0.0070
 5947TIP3    H139332   3.799   1.971  14.178  0.3707  0.1510 -0.3081
 5947TIP3    H239333   3.818   1.821  14.171 -0.0746  0.0580  0.3875
 5948TIP3   OH239334   1.595   6.498   1.389 -0.5528 -0.1125 -0.0891
 5948TIP3    H139335   1.534   6.435   1.426  0.9182 -0.0098  2.8207
 5948TIP3    H239336   1.574   6.580   1.433  0.7637  0.2270 -0.0398
 5949TIP3   OH239337   0.715   6.292   0.850  0.6971  0.4770  0.7186
 5949TIP3    H139338   0.670   6.332   0.925 -1.3551  0.9196 -0.6792
 5949TIP3    H239339   0.800   6.336   0.847 -0.1756  2.2802  1.2885
 5950TIP3   OH239340   2.563   3.406  16.586  0.8688  0.2545  0.2986
 5950TIP3    H139341   2.623   3.481  16.596  1.0019  0.2723 -0.5801
 5950TIP3    H239342   2.584   3.349  16.659  0.0894  1.5241  1.5815
 5951TIP3   OH239343   0.768   2.203   4.196  0.8267  0.3762 -0.1079
 5951TIP3    H139344   0.814   2.244   4.269 -0.0826  3.4258 -1.0624
 5951TIP3    H239345   0.800   2.250   4.119 -0.6751 -0.4126 -1.2582
 5952TIP3   OH239346   4.182   3.833   1.623  0.1305  0.9892 -0.0694
 5952TIP3    H139347   4.114   3.881   1.670  1.1164  0.0621  2.5036
 5952TIP3    H239348   4.158   3.741   1.633  1.3488  0.6882  0.2806
 5953TIP3   OH239349   1.018   3.108  12.673 -0.1551 -0.0586  0.5892
 5953TIP3    H139350   0.968   3.078  12.749  1.5333 -0.4299  1.5963
 5953TIP3    H239351   1.085   3.166  12.710  0.5616 -0.0638 -0.6482
 5954TIP3   OH239352   4.461   4.183   3.864  0.1896 -0.5177 -0.0427
 5954TIP3    H139353   4.380   4.165   3.817 -0.1513 -0.8972  0.6654
 5954TIP3    H239354   4.472   4.278   3.858  0.7903 -0.6621 -1.8705
 5955TIP3   OH239355   4.661   2.018   5.799  0.2239  0.7056  0.5663
 5955TIP3    H139356   4.632   1.974   5.719  2.6412  1.1394 -0.6099
 5955TIP3    H239357   4.614   2.101   5.798 -0.4053  0.3593  0.0662
 5956TIP3   OH239358   2.404   1.676   1.449  0.6061 -0.1793  0.2649
 5956TIP3    H139359   2.408   1.735   1.374  0.2201 -0.6305 -0.1099
 5956TIP3    H239360   2.347   1.605   1.421  0.5017 -0.3768  0.9670
 5957TIP3   OH239361   2.599   4.523   2.798 -0.1885 -0.2833  0.6144
 5957TIP3    H139362   2.690   4.550   2.799 -0.6626  1.6722 -0.9363
 5957TIP3    H239363   2.598   4.443   2.745  0.3809  1.1464 -1.7083
 5958TIP3   OH239364   1.723   2.327   1.138 -0.1042 -0.0435 -0.3103
 5958TIP3    H139365   1.731   2.352   1.046  0.2846 -0.0805 -0.2873
 5958TIP3    H239366   1.635   2.356   1.163 -0.2777 -0.1917 -0.7402
 5959TIP3   OH239367   3.729   6.094  13.159 -0.3382 -0.0847  0.1359
 5959TIP3    H139368   3.666   6.150  13.114 -0.9930 -0.0734  1.0547
 5959TIP3    H239369   3.687   6.070  13.241  0.7254 -0.3327  0.6324
 5960TIP3   OH239370   4.431   3.100   4.448 -0.7561  0.0225 -0.8113
 5960TIP3    H139371   4.429   3.086   4.354  0.4564 -0.4044 -0.7934
 5960TIP3    H239372   4.487   3.030   4.482 -0.8468  0.4057  0.1808
 5961TIP3   OH239373   2.567   1.180  11.271 -0.6911  0.0203  0.1376
 5961TIP3    H139374   2.592   1.164  11.362  0.0998  0.5958  0.0256
 5961TIP3    H239375   2.646   1.215  11.230 -0.9167 -0.6412 -0.8833
 5962TIP3   OH239376   5.128   3.379  13.440  0.0040  0.6541 -0.3259
 5962TIP3    H139377   5.159   3.343  13.523  0.9093  0.2329 -0.8259
 5962TIP3    H239378   5.153   3.313  13.375 -1.0880  0.7690 -0.8823
 5963TIP3   OH239379   5.078   3.539   4.251  0.2225 -0.0657  0.0149
 5963TIP3    H139380   4.993   3.559   4.291  1.7076  2.7529  2.0391
 5963TIP3    H239381   5.117   3.474   4.309  0.7309  1.0625  0.9753
 5964TIP3   OH239382   1.940   4.868   5.887 -0.8109 -0.4489 -1.3174
 5964TIP3    H139383   2.019   4.855   5.940 -1.7281  1.2519  0.6361
 5964TIP3    H239384   1.873   4.815   5.932 -0.9099 -1.6222 -2.7657
 5965TIP3   OH239385   1.165   6.228   3.365 -0.1708  0.1766 -0.1398
 5965TIP3    H139386   1.172   6.308   3.417  1.2575 -0.0994  0.1528
 5965TIP3    H239387   1.092   6.180   3.404 -0.2270  0.7648  0.4954
 5966TIP3   OH239388   6.728   0.875   1.398  0.5997  0.0990 -0.7029
 5966TIP3    H139389   6.790   0.818   1.443  0.1117  0.6264  0.6958
 5966TIP3    H239390   6.741   0.856   1.305  1.2941 -1.3983 -0.3343
 5967TIP3   OH239391   3.564   2.583  13.894  0.3094 -0.3226  0.7389
 5967TIP3    H139392   3.528   2.608  13.809 -0.1094 -0.0653  0.9821
 5967TIP3    H239393   3.566   2.488  13.892  0.5835 -0.3073  0.3268
 5968TIP3   OH239394   3.439   6.023   3.840 -0.0189 -0.8040  0.2300
 5968TIP3    H139395   3.456   6.116   3.854 -0.8638 -0.5986 -0.0603
 5968TIP3    H239396   3.348   6.011   3.866  0.2979 -1.7064  0.9713
 5969TIP3   OH239397   5.340   5.061   4.320 -0.4161  0.0309  0.2750
 5969TIP3    H139398   5.341   5.057   4.224 -0.4799  1.2178  0.2113
 5969TIP3    H239399   5.248   5.071   4.343 -0.2293  2.1136  0.3085
 5970TIP3   OH239400   0.953   0.566  11.944  0.2349 -0.1253  0.0054
 5970TIP3    H139401   0.968   0.614  11.863  0.5163 -0.6340 -0.2504
 5970TIP3    H239402   1.036   0.574  11.992 -0.0854  0.5638  0.4519
 5971TIP3   OH239403   4.177   5.903  14.616  0.1785  0.3214  0.1947
 5971TIP3    H139404   4.198   5.949  14.697  0.8039  1.1849 -0.4412
 5971TIP3    H239405   4.158   5.813  14.643  1.7355  0.2519  1.1642
 5972TIP3   OH239406   3.632   4.932   3.598  0.1682  0.0551 -0.7604
 5972TIP3    H139407   3.614   5.010   3.545  2.4179  2.5577  1.7689
 5972TIP3    H239408   3.653   4.863   3.535  2.1776  2.6683 -3.2240
 5973TIP3   OH239409   3.693   2.182   2.035 -0.6798  0.2702  0.3155
 5973TIP3    H139410   3.766   2.199   1.977 -2.0547  1.0788 -1.2653
 5973TIP3    H239411   3.626   2.141   1.979 -1.5892 -0.0837  1.6079
 5974TIP3   OH239412   4.631   0.308   4.344 -0.4508  0.4239 -0.1920
 5974TIP3    H139413   4.684   0.374   4.300  0.2701  0.6011  0.8894
 5974TIP3    H239414   4.542   0.326   4.316 -0.2127  1.5967 -0.2571
 5975TIP3   OH239415   2.135   1.449   3.851  0.0662  0.0592 -0.6113
 5975TIP3    H139416   2.084   1.368   3.850  2.5083 -1.5747 -0.4285
 5975TIP3    H239417   2.157   1.463   3.943  1.0736 -0.0367 -0.8276
 5976TIP3   OH239418   5.101   5.474  10.799 -0.0259 -0.2468  0.4774
 5976TIP3    H139419   5.162   5.512  10.737  0.0467 -0.8597  0.1691
 5976TIP3    H239420   5.023   5.454  10.747 -0.7263  1.0398  0.9680
 5977TIP3   OH239421   6.834   2.306  16.430  0.1591 -0.0898  0.2192
 5977TIP3    H139422   6.781   2.254  16.370  1.3199  1.0162 -1.8692
 5977TIP3    H239423   6.907   2.248  16.454  0.6270  0.0302 -0.8720
 5978TIP3   OH239424   1.527   1.518   1.191 -0.0270 -0.1083  0.1214
 5978TIP3    H139425   1.578   1.462   1.249  0.4880 -1.2803 -1.4024
 5978TIP3    H239426   1.580   1.597   1.181  0.0181 -0.0251  0.9879
 5979TIP3   OH239427   1.905   2.213   2.352 -1.0154 -0.4983 -0.4953
 5979TIP3    H139428   1.951   2.219   2.436  1.2323 -0.0066 -1.6697
 5979TIP3    H239429   1.921   2.124   2.321 -1.2832 -0.4784 -0.6967
 5980TIP3   OH239430   2.075   2.120  11.642  0.4483  0.6008 -0.2878
 5980TIP3    H139431   2.060   2.178  11.566 -1.9475 -0.3882 -0.6551
 5980TIP3    H239432   2.001   2.137  11.700 -0.1870 -1.8380 -0.2796
 5981TIP3   OH239433   4.667   1.590   5.981  0.0718 -0.6198 -0.4237
 5981TIP3    H139434   4.753   1.548   5.981 -0.5034 -1.8659 -1.0763
 5981TIP3    H239435   4.625   1.560   6.062  0.6893  0.9939  0.5324
 5982TIP3   OH239436   0.053   5.064  11.931  0.2556  0.0634 -0.1866
 5982TIP3    H139437   0.097   5.118  11.866  1.1123 -0.6988 -0.2507
 5982TIP3    H239438   0.123   5.011  11.970 -0.3344  0.0750  0.9271
 5983TIP3   OH239439   6.808   3.191   5.777 -0.8490 -0.2954  0.5523
 5983TIP3    H139440   6.754   3.153   5.847 -1.0415 -2.3049 -0.6171
 5983TIP3    H239441   6.833   3.277   5.811 -1.6791 -0.8267  2.7041
 5984TIP3   OH239442   4.080   1.733   0.396 -0.7314 -0.4010 -0.4428
 5984TIP3    H139443   4.122   1.682   0.466  0.0307 -0.9352 -1.2682
 5984TIP3    H239444   4.045   1.810   0.441  2.8334  1.0981  0.0990
 5985TIP3   OH239445   4.300   3.310   4.745  0.1298 -0.4764 -0.6205
 5985TIP3    H139446   4.356   3.246   4.788 -0.5396 -0.1137  0.8721
 5985TIP3    H239447   4.266   3.364   4.817 -0.2918  0.7696 -1.7092
 5986TIP3   OH239448   0.674   2.203   5.002  0.5955 -0.1503  0.3625
 5986TIP3    H139449   0.622   2.272   4.961  0.7489  3.0822  4.8862
 5986TIP3    H239450   0.610   2.137   5.030 -0.4870  1.3363  1.5073
 5987TIP3   OH239451   6.763   5.446   4.893  0.1875  0.0257  0.1799
 5987TIP3    H139452   6.841   5.434   4.838  0.0636 -0.4024  0.0983
 5987TIP3    H239453   6.769   5.378   4.960 -0.0075  0.1259  0.3024
 5988TIP3   OH239454   2.646   6.488   3.237 -0.4416 -0.1138 -0.3732
 5988TIP3    H139455   2.589   6.445   3.302 -0.3097 -1.8068 -1.3127
 5988TIP3    H239456   2.731   6.494   3.280 -1.0969  1.8575  0.8066
 5989TIP3   OH239457   0.275   2.669  16.448  1.0670  0.1557  0.2209
 5989TIP3    H139458   0.290   2.755  16.411 -1.6592  0.4575 -0.3948
 5989TIP3    H239459   0.208   2.682  16.515  1.2311 -1.3711  0.7458
 5990TIP3   OH239460   5.577   6.711  14.729  0.1406 -0.0211  0.3623
 5990TIP3    H139461   5.662   6.668  14.721  0.1813  0.1785 -0.3865
 5990TIP3    H239462   5.517   6.641  14.755  0.3581 -0.3594 -0.0407
 5991TIP3   OH239463   4.362   6.409  13.560  0.1767 -0.7908  0.4302
 5991TIP3    H139464   4.370   6.474  13.630  0.2539  0.7173 -0.9219
 5991TIP3    H239465   4.268   6.391  13.555  0.1142 -0.5147  0.5733
 5992TIP3   OH239466   1.724   2.527   4.745  0.2761  0.1043 -0.2228
 5992TIP3    H139467   1.630   2.544   4.742  0.4480  1.1532 -0.1978
 5992TIP3    H239468   1.735   2.460   4.812 -0.2357  1.7667  1.6226
 5993TIP3   OH239469   0.259   6.432   0.207 -0.1554  0.4555  0.2792
 5993TIP3    H139470   0.235   6.384   0.286 -1.0253 -2.0743 -1.3788
 5993TIP3    H239471   0.180   6.430   0.153  1.8178 -3.1143 -3.0039
 5994TIP3   OH239472   2.706   2.426   2.369 -0.2476 -0.0732 -0.1360
 5994TIP3    H139473   2.710   2.437   2.274 -0.2219  2.8937  0.1111
 5994TIP3    H239474   2.627   2.375   2.384  0.6435 -2.0772 -1.7843
 5995TIP3   OH239475   1.235   3.576   3.120 -0.0884  0.0009  0.1827
 5995TIP3    H139476   1.267   3.491   3.088  1.1756 -0.7979  3.2577
 5995TIP3    H239477   1.309   3.635   3.110 -0.8739  0.7594 -1.6748
 5996TIP3   OH239478   3.101   1.859   4.217 -0.3082 -0.2071  0.6758
 5996TIP3    H139479   3.138   1.781   4.258 -1.7176 -1.7166 -0.7617
 5996TIP3    H239480   3.016   1.830   4.183 -0.0093  1.3976 -1.6795
 5997TIP3   OH239481   6.036   6.795  12.172 -0.2488  0.0332  0.1880
 5997TIP3    H139482   5.972   6.762  12.109  0.0578 -0.2170  0.0033
 5997TIP3    H239483   6.095   6.848  12.120 -0.8728  1.0843  0.5229
 5998TIP3   OH239484   0.180   5.760  15.529  0.9354 -0.2197  0.0781
 5998TIP3    H139485   0.273   5.754  15.551  0.7139  1.3736  1.6479
 5998TIP3    H239486   0.173   5.838  15.475  0.6755 -1.1189 -1.2310
 5999TIP3   OH239487   0.710   4.478  12.145 -0.3031  0.6622 -0.3525
 5999TIP3    H139488   0.713   4.496  12.239 -1.4833  0.8354 -0.3385
 5999TIP3    H239489   0.623   4.442  12.130 -0.2048  0.8373 -1.4233
 6000TIP3   OH239490   0.613   5.821  13.405 -0.4464 -0.3546 -0.1336
 6000TIP3    H139491   0.677   5.888  13.426 -0.8291  0.7206 -2.1281
 6000TIP3    H239492   0.648   5.778  13.327 -1.6540 -0.4169 -0.6659
 6001TIP3   OH239493   5.075   4.099  16.545 -0.6350 -0.2438  0.0732
 6001TIP3    H139494   5.032   4.147  16.616 -0.0613  0.1432  0.1625
 6001TIP3    H239495   5.012   4.102  16.473 -0.7246  0.3941  0.1724
 6002TIP3   OH239496   4.524   0.031   1.119 -0.1627 -0.3823 -0.6769
 6002TIP3    H139497   4.492   0.100   1.177  0.8912  1.2037 -1.9116
 6002TIP3    H239498   4.619   0.035   1.127 -0.0621 -1.1929 -1.3461
 6003TIP3   OH239499   1.574   5.217  13.899 -0.0322 -0.2116  0.1061
 6003TIP3    H139500   1.643   5.151  13.900 -0.8632 -1.1021  0.1362
 6003TIP3    H239501   1.520   5.194  13.824 -0.9926 -0.2813  0.7986
 6004TIP3   OH239502   3.045   6.295   4.830 -0.2368 -0.6726  0.2521
 6004TIP3    H139503   3.016   6.226   4.769 -0.7160  0.1539 -0.4686
 6004TIP3    H239504   2.966   6.346   4.847 -0.4360 -1.6707  2.6484
 6005TIP3   OH239505   3.153   0.587   3.587 -0.0376 -0.5214  0.5505
 6005TIP3    H139506   3.185   0.616   3.673 -0.4580  0.3978  0.4090
 6005TIP3    H239507   3.142   0.492   3.596  1.0023 -0.6091  1.1581
 6006TIP3   OH239508   2.879   1.322   4.001 -0.5289 -0.1108 -0.3198
 6006TIP3    H139509   2.872   1.229   3.979 -1.2057 -0.4451  1.2264
 6006TIP3    H239510   2.906   1.363   3.919 -0.3505 -1.6419 -1.0720
 6007TIP3   OH239511   2.708   2.493  14.967  0.2249  0.3455  0.0707
 6007TIP3    H139512   2.706   2.432  14.893 -0.9944 -0.4437  0.7271
 6007TIP3    H239513   2.725   2.437  15.043  0.8969  1.0727  0.4683
 6008TIP3   OH239514   1.700   4.615   4.522 -1.1852 -0.0358  0.5614
 6008TIP3    H139515   1.649   4.581   4.595  0.0509  0.9290  1.9102
 6008TIP3    H239516   1.790   4.588   4.541 -0.9598 -0.5719 -1.0975
 6009TIP3   OH239517   0.988   4.098   0.453  0.3372 -0.5894 -0.4020
 6009TIP3    H139518   0.972   4.184   0.415 -0.7969 -0.3865  0.4737
 6009TIP3    H239519   0.913   4.045   0.426  0.1030 -0.7725  0.5466
 6010TIP3   OH239520   3.727   5.481   1.760 -0.2805  0.0822 -0.2200
 6010TIP3    H139521   3.697   5.570   1.742 -1.2160  0.4630  2.6909
 6010TIP3    H239522   3.655   5.425   1.729  0.6897  0.1926 -2.8713
 6011TIP3   OH239523   5.444   2.854  16.269 -0.2474  0.1377 -0.2651
 6011TIP3    H139524   5.480   2.850  16.181 -4.3767  2.0359 -2.2979
 6011TIP3    H239525   5.377   2.784  16.271 -1.4410  1.2524  0.6559
 6012TIP3   OH239526   6.478   2.934  11.744  0.0920  0.5400  0.2046
 6012TIP3    H139527   6.501   3.020  11.780  1.2225  0.8763 -1.2327
 6012TIP3    H239528   6.535   2.873  11.791 -1.9606  0.2281  2.5600
 6013TIP3   OH239529   1.958   6.434   3.577  0.2735 -0.2810 -0.3912
 6013TIP3    H139530   2.011   6.503   3.616  0.3565 -1.1001  1.0215
 6013TIP3    H239531   2.010   6.354   3.588 -0.4258 -0.7988 -0.7144
 6014TIP3   OH239532   5.914   5.502   4.944 -0.4264  0.1660 -0.1183
 6014TIP3    H139533   5.925   5.505   5.039 -1.9071 -0.1426  0.0777
 6014TIP3    H239534   5.827   5.540   4.929 -1.5322 -2.5494 -1.0796
 6015TIP3   OH239535   0.995   0.479   4.816  0.3053  0.0575 -0.1709
 6015TIP3    H139536   1.011   0.569   4.788 -2.5774  0.9127  0.6592
 6015TIP3    H239537   0.942   0.441   4.746  0.8021 -0.7401 -0.1249
 6016TIP3   OH239538   2.691   6.225   6.299 -0.6412 -0.3144 -0.2260
 6016TIP3    H139539   2.756   6.231   6.229  0.8251 -0.2536  1.0879
 6016TIP3    H239540   2.648   6.141   6.284 -2.4888  0.9832 -2.9162
 6017TIP3   OH239541   2.018   0.476   2.304  0.4751 -0.1081  0.5149
 6017TIP3    H139542   2.058   0.407   2.356  0.0513  0.0403  1.0419
 6017TIP3    H239543   2.087   0.503   2.243  1.3605  0.4778  1.7195
 6018TIP3   OH239544   1.319   5.350  12.353 -0.4240  0.3009  0.2172
 6018TIP3    H139545   1.404   5.332  12.313 -1.0814  0.2969 -1.2355
 6018TIP3    H239546   1.292   5.266  12.391 -0.3064 -0.0044 -0.3605
 6019TIP3   OH239547   6.381   5.209  15.015 -0.3864 -0.1991 -0.1875
 6019TIP3    H139548   6.353   5.300  15.007  0.2568  0.6003  4.2216
 6019TIP3    H239549   6.474   5.209  14.991 -0.0377  0.6604  1.0805
 6020TIP3   OH239550   3.693   3.624  16.300 -0.2520 -0.6355  0.0741
 6020TIP3    H139551   3.726   3.540  16.268  0.0345 -0.7312  0.6064
 6020TIP3    H239552   3.702   3.619  16.395  1.0184  0.5075  0.0413
 6021TIP3   OH239553   2.261   6.614  12.316 -0.0300 -0.2807  0.7743
 6021TIP3    H139554   2.280   6.591  12.225 -0.0019  1.3857  0.3320
 6021TIP3    H239555   2.347   6.608  12.360  0.8880  2.9763 -0.2809
 6022TIP3   OH239556   6.766   4.596   2.789 -0.2871 -0.1996  0.1640
 6022TIP3    H139557   6.834   4.662   2.776 -0.9086  0.4580  0.1849
 6022TIP3    H239558   6.814   4.514   2.804  0.4812  0.0343 -0.9334
 6023TIP3   OH239559   2.432   3.361  14.324  0.0394  0.3030  0.1392
 6023TIP3    H139560   2.354   3.407  14.293  0.6502  1.2898  0.0326
 6023TIP3    H239561   2.470   3.322  14.245  0.3387  0.8866 -0.0101
 6024TIP3   OH239562   2.968   5.343  16.122  0.3906 -0.2656 -0.4860
 6024TIP3    H139563   2.914   5.386  16.056  0.9633  1.6126  0.2256
 6024TIP3    H239564   3.058   5.352  16.090  0.4992 -1.4545 -0.5842
 6025TIP3   OH239565   2.989   0.029   1.697  0.0967  0.1943  0.6008
 6025TIP3    H139566   3.051   0.002   1.629 -0.0720  0.8274  0.1790
 6025TIP3    H239567   2.939  -0.050   1.717 -1.1736  0.3984 -1.4276
 6026TIP3   OH239568   3.079   2.921  14.878  0.4803  0.5787 -1.1189
 6026TIP3    H139569   3.045   2.848  14.929  1.6421  0.5556 -0.3613
 6026TIP3    H239570   3.083   2.994  14.940  0.2332  1.0419 -1.6336
 6027TIP3   OH239571   0.994   1.667   6.541  0.5231  0.2617 -0.3532
 6027TIP3    H139572   1.032   1.618   6.469  0.0799 -0.6103 -0.0063
 6027TIP3    H239573   1.066   1.721   6.574  1.8782 -2.2607  1.0825
 6028TIP3   OH239574   0.679   6.714   6.131  0.4101  0.9655 -0.1914
 6028TIP3    H139575   0.662   6.756   6.047 -0.0015 -0.7445 -1.0220
 6028TIP3    H239576   0.774   6.709   6.137  0.4413  0.1883 -1.0760
 6029TIP3   OH239577   0.137   1.490   3.127  0.5431 -0.7726 -0.0300
 6029TIP3    H139578   0.159   1.582   3.112  0.8422 -0.8096  0.1667
 6029TIP3    H239579   0.064   1.493   3.189 -1.3358 -0.5931 -2.1358
 6030TIP3   OH239580   5.807   0.500  13.771  0.2926 -0.4227 -0.5700
 6030TIP3    H139581   5.808   0.411  13.736  0.6896 -0.1635 -1.2427
 6030TIP3    H239582   5.715   0.521  13.782  0.2067 -1.0671 -0.0119
 6031TIP3   OH239583   3.861   2.142   3.296 -0.4377 -0.1586 -0.0932
 6031TIP3    H139584   3.938   2.086   3.301  0.6857  1.3340 -0.1347
 6031TIP3    H239585   3.832   2.135   3.205 -0.0585 -0.3494 -0.2018
 6032TIP3   OH239586   6.206   1.184  14.920 -0.1256  0.3418  0.2604
 6032TIP3    H139587   6.115   1.161  14.905  0.0986 -0.6048  0.3356
 6032TIP3    H239588   6.211   1.278  14.898 -0.5745 -0.1290 -2.1856
 6033TIP3   OH239589   1.763   1.836   3.142  0.1887 -0.0229  0.5242
 6033TIP3    H139590   1.761   1.784   3.222  0.0162 -0.5883  0.1586
 6033TIP3    H239591   1.794   1.922   3.170  0.3847 -0.2918  1.1520
 6034TIP3   OH239592   4.700   4.154   5.379  0.3916  0.5204  1.0596
 6034TIP3    H139593   4.713   4.117   5.292  1.7011  4.2240 -0.5053
 6034TIP3    H239594   4.612   4.126   5.404  0.6692 -2.1578 -0.5297
 6035TIP3   OH239595   6.241   0.033   4.404  0.4350  0.5481  0.1141
 6035TIP3    H139596   6.310   0.027   4.337  0.2276  0.7403 -0.1224
 6035TIP3    H239597   6.250  -0.047   4.456 -0.1619 -0.2062 -0.8893
 6036TIP3   OH239598   0.762   4.990   3.414  0.0867 -0.1773 -0.0284
 6036TIP3    H139599   0.686   4.956   3.365  0.6919  0.0422 -1.1439
 6036TIP3    H239600   0.778   4.924   3.482  0.0150 -1.1431 -0.9235
 6037TIP3   OH239601   4.226   1.872   2.353  0.0648  0.2477 -0.4267
 6037TIP3    H139602   4.195   1.909   2.436 -0.2652 -1.1479  0.0991
 6037TIP3    H239603   4.298   1.815   2.377  0.3024  0.2244 -1.1689
 6038TIP3   OH239604   6.529   6.787   3.367  0.2561  0.9730 -0.0794
 6038TIP3    H139605   6.486   6.873   3.373 -0.1380  0.7147  1.3044
 6038TIP3    H239606   6.456   6.725   3.360  0.4674  0.6564  0.4609
 6039TIP3   OH239607   3.326   0.387   5.939 -0.0721 -0.3771 -0.3123
 6039TIP3    H139608   3.344   0.443   5.864 -0.9548 -0.0966 -0.3273
 6039TIP3    H239609   3.346   0.440   6.016  2.8759 -1.3395 -0.2977
 6040TIP3   OH239610   2.221   1.269   4.517  0.1700 -0.4685  0.4996
 6040TIP3    H139611   2.235   1.179   4.547 -0.7588 -1.0862 -0.7755
 6040TIP3    H239612   2.193   1.259   4.426 -0.2822  1.0980  0.4373
 6041TIP3   OH239613   3.937   1.101  11.724  0.1298 -0.2327  0.2733
 6041TIP3    H139614   3.936   1.010  11.753  0.5389 -0.2846  0.1308
 6041TIP3    H239615   3.854   1.137  11.756  0.8314 -0.1181  2.0731
 6042TIP3   OH239616   3.446   1.749   4.732  0.0491 -0.1949  0.1683
 6042TIP3    H139617   3.378   1.693   4.770  1.3427 -0.4930  2.2115
 6042TIP3    H239618   3.406   1.835   4.728 -0.6985 -0.5015  0.6932
 6043TIP3   OH239619   0.608   0.436   5.440 -0.1415  0.1949 -0.7765
 6043TIP3    H139620   0.597   0.370   5.371 -0.9390 -1.2901  0.6831
 6043TIP3    H239621   0.588   0.389   5.521  1.0336  1.7963  0.5163
 6044TIP3   OH239622   0.471   1.170   6.369  0.0235 -0.5735  0.1005
 6044TIP3    H139623   0.524   1.239   6.408 -0.0838 -0.0539 -0.6624
 6044TIP3    H239624   0.530   1.095   6.364 -0.4017 -1.1913  2.7376
 6045TIP3   OH239625   3.815   5.752  16.562  0.5661 -0.0657  0.3449
 6045TIP3    H139626   3.883   5.790  16.618  0.7256  0.8249 -0.4288
 6045TIP3    H239627   3.845   5.767  16.473 -0.6914  0.4690 -0.0246
 6046TIP3   OH239628   5.875   2.128   4.514  0.3465 -0.1966  0.2286
 6046TIP3    H139629   5.832   2.061   4.567  0.2707  0.9750  1.6994
 6046TIP3    H239630   5.894   2.084   4.431 -3.7054 -0.7958 -0.5856
 6047TIP3   OH239631   4.387   0.198  11.243  0.2047  0.2583  0.7811
 6047TIP3    H139632   4.434   0.121  11.276  1.0420  0.2067 -0.4834
 6047TIP3    H239633   4.393   0.192  11.148  0.4066  1.9497  0.6492
 6048TIP3   OH239634   2.960   2.725  16.975  0.4189  0.2077 -0.1678
 6048TIP3    H139635   2.919   2.805  17.006  0.2319 -0.5064  1.5585
 6048TIP3    H239636   3.025   2.754  16.911 -1.4350  1.5030 -1.5722
 6049TIP3   OH239637   2.419   6.524  13.806  0.2571 -0.5514  0.2067
 6049TIP3    H139638   2.442   6.607  13.847  0.5012 -0.7462  0.4706
 6049TIP3    H239639   2.361   6.548  13.734  0.4808 -0.1385  0.1612
 6050TIP3   OH239640   0.510   2.067   5.226  0.2655  0.2783 -0.3743
 6050TIP3    H139641   0.448   2.089   5.296 -0.6938  1.5790 -1.5621
 6050TIP3    H239642   0.594   2.057   5.271 -0.4234  0.5265  1.0309
 6051TIP3   OH239643   6.446   0.285  13.468 -0.5628 -0.0129  0.0210
 6051TIP3    H139644   6.418   0.319  13.383 -0.8468 -0.4846 -0.0752
 6051TIP3    H239645   6.378   0.312  13.529 -1.5825 -1.6788 -0.3183
 6052TIP3   OH239646   6.737   5.383   1.633 -0.0381 -0.0424  0.4265
 6052TIP3    H139647   6.732   5.410   1.541  3.5581  1.4516  0.5007
 6052TIP3    H239648   6.673   5.438   1.678  0.9932  2.2068 -0.6902
 6053TIP3   OH239649   1.502   1.803  12.417 -0.3981  0.0092 -0.6101
 6053TIP3    H139650   1.455   1.720  12.427 -2.7114  1.4222  1.9009
 6053TIP3    H239651   1.445   1.856  12.362 -0.8641  1.0748  0.8155
 6054TIP3   OH239652   1.733   1.495  12.429  0.6029  0.6161 -0.4998
 6054TIP3    H139653   1.643   1.524  12.414  0.9367  2.5153  0.8787
 6054TIP3    H239654   1.787   1.563  12.391  1.4160  1.2255  1.5843
 6055TIP3   OH239655   5.421   1.084   0.723 -0.5228  0.6981 -0.2766
 6055TIP3    H139656   5.340   1.058   0.680  0.1247  0.7826 -1.6210
 6055TIP3    H239657   5.397   1.099   0.814 -2.0571  0.9686 -0.7048
 6056TIP3   OH239658   2.225   0.028  15.984  0.0679  0.4269  0.2088
 6056TIP3    H139659   2.182   0.070  15.909  0.2280  1.5479  0.7184
 6056TIP3    H239660   2.228  -0.065  15.961 -1.8232  0.4284 -0.2316
 6057TIP3   OH239661   4.668   6.300  16.849 -0.1094 -0.1294  0.0707
 6057TIP3    H139662   4.699   6.390  16.851  0.0444 -0.1504  2.7256
 6057TIP3    H239663   4.574   6.305  16.863 -0.1071 -0.3654  0.1953
 6058TIP3   OH239664   1.902   5.683  11.063 -0.3022 -0.5041  0.1253
 6058TIP3    H139665   1.982   5.704  11.014  0.7295 -2.1910  0.9611
 6058TIP3    H239666   1.842   5.755  11.045  0.9429  0.1566 -1.5833
 6059TIP3   OH239667   5.471   2.781   4.828 -0.3041 -0.1126  0.2561
 6059TIP3    H139668   5.471   2.870   4.864  0.3410 -0.0589  0.1408
 6059TIP3    H239669   5.521   2.789   4.746 -1.6813 -0.2373 -0.6373
 6060TIP3   OH239670   2.827   5.858   2.722  0.4411  0.5599 -0.0533
 6060TIP3    H139671   2.844   5.918   2.795  1.4795  0.8952 -0.5429
 6060TIP3    H239672   2.833   5.914   2.644  0.0185  0.0784 -0.4341
 6061TIP3   OH239673   5.587   4.884   3.693  0.3475  0.3038  0.1809
 6061TIP3    H139674   5.502   4.898   3.736 -0.2676  1.7842 -1.4308
 6061TIP3    H239675   5.626   4.811   3.742 -0.5497  1.4599  2.8400
 6062TIP3   OH239676   3.593   2.987  11.322 -0.2266  0.1666 -0.2612
 6062TIP3    H139677   3.612   2.903  11.280 -0.3513 -0.4326  0.8202
 6062TIP3    H239678   3.562   2.962  11.410  1.7238  1.4075  0.8315
 6063TIP3   OH239679   2.478   1.488  15.166  0.6120  0.6504  0.3294
 6063TIP3    H139680   2.461   1.575  15.203  1.7368  1.8699 -1.8203
 6063TIP3    H239681   2.391   1.450  15.154  0.0322  1.9370  0.2686
 6064TIP3   OH239682   0.753   6.818  16.748 -0.3160 -0.1143 -0.6269
 6064TIP3    H139683   0.825   6.843  16.805 -1.4364  1.0128  0.3482
 6064TIP3    H239684   0.688   6.779  16.807 -2.0353  2.1956 -0.8475
 6065TIP3   OH239685   6.246   6.807  13.586 -0.2940 -0.4152 -0.1687
 6065TIP3    H139686   6.157   6.838  13.572 -0.7227  0.6590  3.7920
 6065TIP3    H239687   6.298   6.887  13.597  0.6778 -1.0486  0.0156
 6066TIP3   OH239688   1.213   2.131  12.307  0.5984 -0.3193 -0.6487
 6066TIP3    H139689   1.206   2.158  12.216  1.9909 -1.3523 -1.0872
 6066TIP3    H239690   1.240   2.040  12.304 -1.3824 -1.0209  0.8074
 6067TIP3   OH239691   4.511   6.459  14.567 -0.0518 -0.2392 -0.8179
 6067TIP3    H139692   4.469   6.383  14.607 -0.1835  0.5614  0.6160
 6067TIP3    H239693   4.550   6.424  14.486  1.3266 -2.2224  0.5998
 6068TIP3   OH239694   1.356   1.465  14.569 -0.1260 -0.0069  0.2438
 6068TIP3    H139695   1.443   1.468  14.529 -0.2026  0.7694  0.1266
 6068TIP3    H239696   1.356   1.536  14.633 -1.0648  0.7381 -0.5636
 6069TIP3   OH239697   4.497   1.119   2.642  0.5718  0.1217 -0.1457
 6069TIP3    H139698   4.427   1.183   2.628 -0.0775 -0.2532  1.1801
 6069TIP3    H239699   4.454   1.046   2.687  1.0252 -1.8507 -2.7098
 6070TIP3   OH239700   5.761   3.843  11.998 -0.4265 -0.6370 -0.3460
 6070TIP3    H139701   5.714   3.920  11.968  0.4323 -0.5364 -1.5134
 6070TIP3    H239702   5.694   3.775  12.006 -1.2369  0.2669  0.9445
 6071TIP3   OH239703   2.172   3.780   0.920  0.4779 -0.2412 -0.1615
 6071TIP3    H139704   2.213   3.866   0.912  0.9834 -0.5501 -1.0535
 6071TIP3    H239705   2.078   3.798   0.923  0.6432  0.5183  2.5422
 6072TIP3   OH239706   3.922   4.255   3.815 -0.1286  0.0244  0.4704
 6072TIP3    H139707   3.917   4.163   3.838 -1.3451 -0.0106  0.1215
 6072TIP3    H239708   4.003   4.286   3.856  0.6448 -1.3449  0.0206
 6073TIP3   OH239709   4.514   4.118  14.459  0.3561  0.3971 -0.6100
 6073TIP3    H139710   4.533   4.194  14.405  1.5891  0.1083 -0.6225
 6073TIP3    H239711   4.452   4.066  14.408  0.3452  0.8667 -1.0751
 6074TIP3   OH239712   3.630   3.212  14.163 -0.4303 -0.0022  0.4797
 6074TIP3    H139713   3.674   3.128  14.151 -0.2353  0.1996 -0.2744
 6074TIP3    H239714   3.615   3.218  14.258  0.6110 -0.3608  0.6852
 6075TIP3   OH239715   4.687   0.574  13.923  0.2990  0.3280  0.1416
 6075TIP3    H139716   4.595   0.548  13.918  0.2030  0.2720  1.6715
 6075TIP3    H239717   4.730   0.523  13.855 -0.6690 -0.2847 -0.0259
 6076TIP3   OH239718   1.422   4.520  13.167 -0.0899 -0.0514 -0.4918
 6076TIP3    H139719   1.371   4.516  13.086 -0.3445 -1.1971 -0.2948
 6076TIP3    H239720   1.395   4.603  13.208 -0.1662  0.4064 -1.4317
 6077TIP3   OH239721   5.204   2.249   3.784  0.7858 -0.0659 -0.1490
 6077TIP3    H139722   5.280   2.206   3.822 -0.5320 -1.1676  1.3455
 6077TIP3    H239723   5.235   2.281   3.699  2.2500 -2.6183 -0.6724
 6078TIP3   OH239724   1.025   4.197   0.720  0.8166  0.1373 -0.0910
 6078TIP3    H139725   1.001   4.217   0.630  2.0190 -2.2820 -1.0276
 6078TIP3    H239726   1.119   4.181   0.718  1.4081  2.5738  2.1526
 6079TIP3   OH239727   5.530   4.116  14.476  0.0273 -0.1940  0.2755
 6079TIP3    H139728   5.451   4.062  14.480 -0.3732  0.3264 -0.3086
 6079TIP3    H239729   5.516   4.185  14.541  1.8281 -2.3895  3.2015
 6080TIP3   OH239730   1.331   4.924   0.119 -0.2739 -0.0300 -0.1978
 6080TIP3    H139731   1.317   4.913   0.025  1.1004 -2.9243 -0.1952
 6080TIP3    H239732   1.243   4.924   0.157 -0.8401  1.0330 -1.4428
 6081TIP3   OH239733   4.117   2.324  15.283  0.0136  0.1559  0.0562
 6081TIP3    H139734   4.052   2.254  15.275 -0.0552  0.1331  0.7180
 6081TIP3    H239735   4.115   2.369  15.199 -2.8802  1.8791  0.8882
 6082TIP3   OH239736   1.600   1.621   0.577 -0.4293  0.0645 -0.2148
 6082TIP3    H139737   1.536   1.553   0.598 -0.9412  0.8533  0.9040
 6082TIP3    H239738   1.554   1.679   0.516 -0.6395  0.3950  0.2528
 6083TIP3   OH239739   4.886   2.292  12.145  0.0967 -0.0580 -0.2497
 6083TIP3    H139740   4.812   2.288  12.085  0.4825 -0.6288 -0.7010
 6083TIP3    H239741   4.905   2.385  12.154  0.6568  0.0008 -1.7929
 6084TIP3   OH239742   5.986   1.571  11.128 -0.0925 -0.2890  0.1623
 6084TIP3    H139743   6.006   1.548  11.219  0.1906 -0.9809 -0.0656
 6084TIP3    H239744   6.056   1.632  11.103 -0.2899  0.0686  0.4664
 6085TIP3   OH239745   1.209   0.870  10.991  0.4279  0.3323  0.3674
 6085TIP3    H139746   1.178   0.834  11.074 -1.8097  2.8930  0.7700
 6085TIP3    H239747   1.131   0.875  10.936  1.5231  0.3993 -1.2788
 6086TIP3   OH239748   0.429   4.798  16.770  0.5426  0.2211 -0.1556
 6086TIP3    H139749   0.402   4.760  16.686 -0.7296 -0.3097  0.4711
 6086TIP3    H239750   0.435   4.724  16.830  0.9817  0.6546  0.3592
 6087TIP3   OH239751   4.084   1.814  15.733 -0.6939  0.2261 -0.6262
 6087TIP3    H139752   4.069   1.908  15.740 -1.4067  0.0797 -0.0277
 6087TIP3    H239753   4.178   1.803  15.744 -0.6759  0.8185 -0.1282
 6088TIP3   OH239754   4.647   6.548   4.931  0.0420  0.5955  0.3970
 6088TIP3    H139755   4.603   6.584   4.855  1.5764  0.8393 -0.4059
 6088TIP3    H239756   4.616   6.601   5.004  0.1639  1.7494 -0.3697
 6089TIP3   OH239757   3.557   4.856  15.819 -0.2286 -0.2295 -0.5542
 6089TIP3    H139758   3.495   4.787  15.794 -0.2834  0.0084 -1.0815
 6089TIP3    H239759   3.628   4.847  15.756 -0.3640  0.3724 -0.7961
 6090TIP3   OH239760   3.695   4.771   1.349 -0.8316  0.0128 -0.4977
 6090TIP3    H139761   3.716   4.745   1.260 -2.2941 -1.8119 -0.3580
 6090TIP3    H239762   3.619   4.718   1.373 -0.6152  0.6106  1.7608
 6091TIP3   OH239763   2.152   4.039   5.658 -0.3562 -0.4064 -0.2788
 6091TIP3    H139764   2.124   4.034   5.567  0.9942  0.3089 -0.7575
 6091TIP3    H239765   2.138   3.951   5.692 -0.3734 -0.8195 -1.3207
 6092TIP3   OH239766   3.808   6.009   0.038  0.2994  0.1343  0.9463
 6092TIP3    H139767   3.745   6.055   0.094 -1.3628  0.3533 -0.9809
 6092TIP3    H239768   3.759   5.936   0.001  1.5256 -0.3631  0.2393
 6093TIP3   OH239769   0.042   2.483  10.474  0.1725  0.0211 -0.1145
 6093TIP3    H139770  -0.019   2.446  10.410 -0.3944 -0.5205  0.7356
 6093TIP3    H239771   0.001   2.566  10.500 -0.0317 -0.1826  0.2082
 6094TIP3   OH239772   0.407   0.915   1.716  0.2150  0.4901 -0.1122
 6094TIP3    H139773   0.314   0.895   1.729 -0.3847  1.6670 -2.1747
 6094TIP3    H239774   0.453   0.843   1.760 -1.6891 -0.9896 -0.4039
 6095TIP3   OH239775   0.154   3.040   2.532 -0.3493  0.2883 -0.6688
 6095TIP3    H139776   0.212   3.106   2.493  0.5952 -0.2589 -0.2183
 6095TIP3    H239777   0.098   3.012   2.459 -0.5916  1.4009 -0.9204
 6096TIP3   OH239778   6.175   0.865  14.841  0.0729  0.2445  0.3738
 6096TIP3    H139779   6.256   0.890  14.885 -1.0094  0.6983  2.2074
 6096TIP3    H239780   6.159   0.775  14.871  0.0539  0.0394 -0.2407
 6097TIP3   OH239781   6.271   6.173   6.283  0.2081 -1.0093  0.2709
 6097TIP3    H139782   6.352   6.128   6.308  0.4189 -2.8812 -3.1709
 6097TIP3    H239783   6.301   6.255   6.244  0.2686 -0.6315  1.1050
 6098TIP3   OH239784   4.356   3.640   5.408 -0.4964 -0.5547  0.1317
 6098TIP3    H139785   4.445   3.675   5.409 -0.9472  0.7121 -0.8143
 6098TIP3    H239786   4.331   3.635   5.500  0.1360  0.2048  0.3545
 6099TIP3   OH239787   5.196   3.858   3.385 -0.4421  0.0527  0.5706
 6099TIP3    H139788   5.266   3.911   3.348 -1.8682  0.5561 -1.5611
 6099TIP3    H239789   5.218   3.768   3.360 -0.3022  0.1569  0.3158
 6100TIP3   OH239790   6.506   5.039   4.775 -0.4992  0.2870  0.4408
 6100TIP3    H139791   6.498   5.132   4.754  0.1896 -0.3528 -3.1961
 6100TIP3    H239792   6.417   5.005   4.773 -0.5699  0.5125 -0.1064
 6101TIP3   OH239793   2.846   3.986  12.393 -0.3750 -0.5156  0.6971
 6101TIP3    H139794   2.839   4.055  12.328  0.9170 -0.6495  0.3803
 6101TIP3    H239795   2.846   4.031  12.477  1.3776 -0.0160  0.4631
 6102TIP3   OH239796   0.824   1.954  11.269 -0.4819 -0.4821  0.1424
 6102TIP3    H139797   0.744   1.996  11.238  0.1142  0.4032 -0.2498
 6102TIP3    H239798   0.827   1.973  11.362  0.1908  1.1058 -0.1662
 6103TIP3   OH239799   2.206   6.546   1.555 -0.4167 -0.0165  0.1405
 6103TIP3    H139800   2.281   6.605   1.543 -1.1841  0.8355 -0.6949
 6103TIP3    H239801   2.137   6.585   1.502 -1.7892 -0.1970  1.7048
 6104TIP3   OH239802   0.292   6.192  11.751 -0.1170  0.5803 -0.2137
 6104TIP3    H139803   0.252   6.257  11.809  2.0917  2.1231 -0.2911
 6104TIP3    H239804   0.336   6.131  11.810  0.1079  0.7540 -0.2007
 6105TIP3   OH239805   1.649   1.123   5.361 -0.1623 -0.0725  0.2642
 6105TIP3    H139806   1.639   1.129   5.456 -1.2028 -0.2789  0.1825
 6105TIP3    H239807   1.726   1.069   5.347  0.1963  0.2490  0.9906
 6106TIP3   OH239808   3.665   6.595  14.580  0.3573 -0.0653  0.2420
 6106TIP3    H139809   3.727   6.664  14.600 -0.1759  0.1549  1.2101
 6106TIP3    H239810   3.585   6.641  14.554  0.5440 -0.3425 -0.8704
 6107TIP3   OH239811   6.646   2.649  16.865 -0.0089 -0.2174  0.0159
 6107TIP3    H139812   6.738   2.664  16.887 -0.2538 -0.6437  1.4336
 6107TIP3    H239813   6.649   2.599  16.783  0.9952  0.2411 -0.2376
 6108TIP3   OH239814   5.084   3.639   2.383 -0.6125  0.8870  0.0794
 6108TIP3    H139815   5.052   3.612   2.469  1.3186  0.4316  0.7228
 6108TIP3    H239816   5.051   3.572   2.323  0.4448 -0.4766  0.9650
 6109TIP3   OH239817   6.806   3.321   0.251  0.0677 -0.1361 -0.1114
 6109TIP3    H139818   6.766   3.361   0.328  0.8807 -2.5468  1.6841
 6109TIP3    H239819   6.736   3.270   0.211 -0.6809  2.0330 -1.7886
 6110TIP3   OH239820   5.756   3.239  12.652 -0.2830  0.2873 -0.0718
 6110TIP3    H139821   5.762   3.176  12.580  0.1121 -0.4758  0.6257
 6110TIP3    H239822   5.839   3.231  12.699 -0.0597  1.6074 -0.1922
 6111TIP3   OH239823   0.644   2.663   2.354  0.2608  0.2859 -1.3470
 6111TIP3    H139824   0.733   2.685   2.327  1.6803 -2.1229  0.9229
 6111TIP3    H239825   0.642   2.567   2.354 -2.4261  0.2677 -1.5024
 6112TIP3   OH239826   1.903   6.705   5.427 -0.0455 -0.1220  0.8679
 6112TIP3    H139827   1.874   6.623   5.387 -0.5608 -0.0488  1.0838
 6112TIP3    H239828   1.997   6.708   5.411 -0.2562 -0.0402 -0.4429
 6113TIP3   OH239829   5.888   5.451  11.610 -0.8530  0.2555  0.1898
 6113TIP3    H139830   5.928   5.519  11.556 -0.3211 -1.0078 -1.0769
 6113TIP3    H239831   5.803   5.434  11.568 -0.3905 -0.8159 -0.3525
 6114TIP3   OH239832   1.720   2.385  16.770  0.4554  0.6529  0.5918
 6114TIP3    H139833   1.692   2.295  16.757 -0.1419  0.4841  2.7260
 6114TIP3    H239834   1.683   2.432  16.695 -0.9803 -0.5168  0.5101
 6115TIP3   OH239835   1.685   4.363   1.360 -0.0757  0.3725 -0.2770
 6115TIP3    H139836   1.653   4.444   1.321 -0.1439  1.0867  1.1600
 6115TIP3    H239837   1.762   4.390   1.411  0.7137 -0.7114 -0.8612
 6116TIP3   OH239838   3.076   1.978   2.994 -0.1950 -0.1419 -0.0871
 6116TIP3    H139839   3.163   2.010   3.019 -0.4724 -0.1373  0.8940
 6116TIP3    H239840   3.090   1.939   2.907  0.7666 -0.0691  0.0173
 6117TIP3   OH239841   2.958   2.267  10.815  0.2536 -0.3776 -0.5118
 6117TIP3    H139842   3.052   2.284  10.813  0.3370  0.0921  2.5354
 6117TIP3    H239843   2.918   2.352  10.797  0.4881 -0.0580  0.3940
 6118TIP3   OH239844   5.934   1.077  14.034 -0.6000  0.0076 -0.1613
 6118TIP3    H139845   5.934   1.116  14.121 -1.7338 -3.0900  1.4149
 6118TIP3    H239846   5.887   1.139  13.979  3.2675  3.8386  0.3246
 6119TIP3   OH239847   0.825   4.392   1.904 -0.1085 -0.2875 -0.3777
 6119TIP3    H139848   0.845   4.326   1.971 -0.9303  0.7840  0.9718
 6119TIP3    H239849   0.888   4.462   1.920 -2.0872  1.2504  1.2139
 6120TIP3   OH239850   0.715   4.528  12.439 -0.2852 -0.4899  0.5807
 6120TIP3    H139851   0.716   4.466  12.512 -0.8161 -0.6076  0.4918
 6120TIP3    H239852   0.790   4.585  12.455 -0.7980 -0.0748  1.5932
 6121TIP3   OH239853   6.035   1.530  11.443 -0.1321 -0.3205  0.7303
 6121TIP3    H139854   6.015   1.616  11.479 -0.1623 -0.3686  0.8275
 6121TIP3    H239855   6.052   1.475  11.520  0.0976 -0.3482  0.6600
 6122TIP3   OH239856   5.079   0.209   4.841 -0.2286  0.3488 -0.1468
 6122TIP3    H139857   5.040   0.267   4.775  1.7631  0.8303 -0.9775
 6122TIP3    H239858   5.167   0.192   4.808 -0.0314 -1.4333  1.1813
 6123TIP3   OH239859   5.360   5.166  12.251 -0.2573 -0.5123  0.2147
 6123TIP3    H139860   5.283   5.197  12.299 -0.7590 -1.6384  0.1758
 6123TIP3    H239861   5.365   5.223  12.174 -0.9760 -0.3414  0.2883
 6124TIP3   OH239862   2.750   3.545  14.100 -0.3488  0.0050 -0.4294
 6124TIP3    H139863   2.817   3.520  14.036  0.9267 -0.2568  0.9367
 6124TIP3    H239864   2.757   3.640  14.107 -0.7030  0.0647 -0.9076
 6125TIP3   OH239865   5.846   1.100   0.170  0.1118  0.0528 -0.0234
 6125TIP3    H139866   5.794   1.166   0.126  0.3096  0.2882  0.0966
 6125TIP3    H239867   5.899   1.061   0.100 -1.7079 -1.6457 -0.5645
 6126TIP3   OH239868   3.383   1.081  16.285 -0.6656  0.1413 -0.2806
 6126TIP3    H139869   3.469   1.071  16.244 -0.0212  2.1665  0.4661
 6126TIP3    H239870   3.386   1.167  16.326 -2.1886 -0.7638  1.8671
 6127TIP3   OH239871   3.837   3.038  14.836  0.4683  0.7327  0.3972
 6127TIP3    H139872   3.760   3.078  14.874  0.1564 -1.5648  2.4001
 6127TIP3    H239873   3.804   2.963  14.787  1.2498  1.2000 -0.9063
 6128TIP3   OH239874   4.900   3.809  16.658  0.7404  0.0793  0.0995
 6128TIP3    H139875   4.805   3.812  16.670  0.3676  1.3153 -2.5345
 6128TIP3    H239876   4.936   3.860  16.730 -0.8049  1.7364 -0.2473
 6129TIP3   OH239877   6.721   3.009   4.547 -0.0073  0.5546  0.0434
 6129TIP3    H139878   6.774   2.938   4.583 -0.4153  0.0000 -0.4515
 6129TIP3    H239879   6.776   3.087   4.557  0.4582  0.1670  0.5440
 6130TIP3   OH239880   4.745   5.982  13.843  0.2228 -0.0029 -0.4248
 6130TIP3    H139881   4.716   6.035  13.768 -1.8642 -1.8103 -1.0305
 6130TIP3    H239882   4.694   6.016  13.917  1.2116  0.8314 -0.1052
 6131TIP3   OH239883   4.646   3.282   1.643 -0.0180 -0.1668 -0.1315
 6131TIP3    H139884   4.663   3.240   1.727  0.8878  0.2189 -0.1044
 6131TIP3    H239885   4.727   3.329   1.623 -0.2649 -0.1551 -1.1661
 6132TIP3   OH239886   3.396   5.034   5.495 -0.4351  0.4967 -0.0946
 6132TIP3    H139887   3.388   4.955   5.440 -2.4811 -1.0400  2.1885
 6132TIP3    H239888   3.478   5.022   5.542 -0.2339  0.2332 -0.5018
 6133TIP3   OH239889   1.024   3.740   3.164  0.7913 -0.2915  0.0735
 6133TIP3    H139890   0.982   3.823   3.144 -2.8413 -2.0666 -0.4079
 6133TIP3    H239891   1.080   3.723   3.089  0.9495  1.2822 -0.2013
 6134TIP3   OH239892   4.255   0.750   3.504 -0.1366 -0.0371  0.2122
 6134TIP3    H139893   4.185   0.690   3.530 -0.3697 -0.5881 -1.5506
 6134TIP3    H239894   4.229   0.779   3.416  1.2113  0.7536  0.0577
 6135TIP3   OH239895   4.620   2.325  12.026 -0.3839  0.6100  0.1472
 6135TIP3    H139896   4.641   2.268  11.952 -0.3499 -0.2271  0.7863
 6135TIP3    H239897   4.531   2.300  12.050 -0.7429  1.5393 -0.1979
 6136TIP3   OH239898   6.246   5.232  14.199 -0.4914  0.9206 -0.1254
 6136TIP3    H139899   6.337   5.239  14.227  0.0569  1.1236 -1.8761
 6136TIP3    H239900   6.236   5.301  14.133 -1.6218  0.2313 -0.7027
 6137TIP3   OH239901   6.100   6.811   3.062  0.2596 -0.1086 -0.2976
 6137TIP3    H139902   6.020   6.815   3.010  1.5782 -1.2147 -2.5570
 6137TIP3    H239903   6.092   6.729   3.111 -0.0136 -0.1890 -0.4736
 6138TIP3   OH239904   1.653   5.128  11.576 -0.0439 -0.4254  0.6750
 6138TIP3    H139905   1.564   5.147  11.604 -0.5617 -2.5431  0.5585
 6138TIP3    H239906   1.702   5.113  11.657  0.1798  0.4820  0.7242
 6139TIP3   OH239907   1.198   0.651  13.433  0.3335 -0.2692  0.1989
 6139TIP3    H139908   1.278   0.599  13.448  0.8310  0.2456 -0.5766
 6139TIP3    H239909   1.153   0.605  13.362  0.7493  0.3052 -0.4540
 6140TIP3   OH239910   3.969   3.056  16.072  0.3016 -0.1189 -0.1075
 6140TIP3    H139911   3.941   2.969  16.099 -0.0579 -0.2599 -0.9058
 6140TIP3    H239912   3.915   3.076  15.996  0.5980  0.6737 -0.1198
 6141TIP3   OH239913   1.757   4.765   1.242  0.3164 -0.0140  0.1719
 6141TIP3    H139914   1.664   4.752   1.257 -0.3129  2.9670 -0.4641
 6141TIP3    H239915   1.790   4.800   1.324  0.8479 -0.8135  0.3108
 6142TIP3   OH239916   0.653   6.814   2.077 -0.2790 -0.2071 -0.3598
 6142TIP3    H139917   0.578   6.836   2.022 -1.8636 -1.4753  1.1929
 6142TIP3    H239918   0.616   6.770   2.154  1.8017  1.3839  1.7312
 6143TIP3   OH239919   6.311   2.610   2.407  0.1100 -0.4194  0.5122
 6143TIP3    H139920   6.267   2.526   2.391 -0.9008  0.1554  0.1936
 6143TIP3    H239921   6.252   2.675   2.371  0.3674  0.5211  1.7187
 6144TIP3   OH239922   6.353   0.937  15.776 -0.2401  0.4793  0.5065
 6144TIP3    H139923   6.352   1.013  15.719  0.1589  0.1247  0.0161
 6144TIP3    H239924   6.410   0.962  15.849 -0.7855  0.9470  0.7859
 6145TIP3   OH239925   6.428   1.477  12.264 -0.6029  0.1096 -0.3589
 6145TIP3    H139926   6.337   1.468  12.292 -0.4079  0.7364  0.4992
 6145TIP3    H239927   6.426   1.459  12.170 -1.0398 -3.7009  0.2140
 6146TIP3   OH239928   6.834   0.581   4.446  0.3568  0.3359 -0.2881
 6146TIP3    H139929   6.897   0.530   4.497 -1.0459 -1.1120  0.0836
 6146TIP3    H239930   6.888   0.641   4.395  1.8475  2.0421  2.9970
 6147TIP3   OH239931   1.747   2.562  16.537  0.2951 -0.5203 -0.3351
 6147TIP3    H139932   1.786   2.562  16.449 -0.5955  0.5675 -0.7562
 6147TIP3    H239933   1.774   2.645  16.576 -0.1138 -0.5655  0.0485
 6148TIP3   OH239934   3.562   5.152   3.399 -0.0744  0.0652  0.0232
 6148TIP3    H139935   3.489   5.174   3.340  1.0066  1.0740 -0.9950
 6148TIP3    H239936   3.640   5.172   3.348  0.9103  0.5815  1.6839
 6149TIP3   OH239937   5.984   4.740   0.385 -0.7854  0.8492  0.5008
 6149TIP3    H139938   6.075   4.758   0.362 -0.7245  1.0530  0.8946
 6149TIP3    H239939   5.934   4.775   0.312 -0.5812  1.2631  0.5558
 6150TIP3   OH239940   1.066   5.589  14.523  0.6317 -0.0405  0.4190
 6150TIP3    H139941   1.008   5.614  14.594 -0.9727  0.0042 -0.8584
 6150TIP3    H239942   1.058   5.494  14.517 -0.5061  0.0972 -0.7015
 6151TIP3   OH239943   0.424   5.994  16.057 -0.1880 -0.1314 -0.2187
 6151TIP3    H139944   0.379   5.913  16.081 -0.7474 -0.1280 -1.1986
 6151TIP3    H239945   0.378   6.063  16.104 -0.5931 -0.2381 -0.4555
 6152TIP3   OH239946   0.234   3.876   0.835  0.3529 -0.2728  0.4400
 6152TIP3    H139947   0.222   3.968   0.859  2.2033  0.5621 -1.5308
 6152TIP3    H239948   0.151   3.851   0.795  0.1187  0.8450  0.1720
 6153TIP3   OH239949   2.678   5.085  13.195 -0.0642  0.3512 -0.3408
 6153TIP3    H139950   2.750   5.115  13.250 -0.6298 -1.2046  1.3571
 6153TIP3    H239951   2.603   5.140  13.221 -0.4237 -0.6251  0.7858
 6154TIP3   OH239952   0.218   6.453   6.739  0.4474 -0.3295 -0.2459
 6154TIP3    H139953   0.261   6.538   6.741 -1.4593  0.7043 -1.0112
 6154TIP3    H239954   0.281   6.396   6.693  1.3696  0.8727 -0.5420
 6155TIP3   OH239955   3.426   2.760   0.192  0.3637  0.4433  0.3348
 6155TIP3    H139956   3.426   2.851   0.222 -1.3410  0.3584  0.6574
 6155TIP3    H239957   3.348   2.721   0.232  0.4770 -0.8656 -0.6627
 6156TIP3   OH239958   4.381   3.363  11.103  0.0817 -0.3647 -0.4357
 6156TIP3    H139959   4.319   3.291  11.105 -1.9396  1.2408 -1.0591
 6156TIP3    H239960   4.336   3.434  11.150  1.4187  0.8880 -0.9857
 6157TIP3   OH239961   6.563   4.722  11.908 -0.1648  0.2940  0.1500
 6157TIP3    H139962   6.587   4.813  11.923  0.5285  0.1594 -0.1054
 6157TIP3    H239963   6.508   4.699  11.984 -0.2414  0.8804  0.2781
 6158TIP3   OH239964   0.576   6.248  14.027 -0.0734 -0.0838  0.2619
 6158TIP3    H139965   0.590   6.177  14.090 -1.1485  1.1428  1.9831
 6158TIP3    H239966   0.482   6.247  14.011 -0.0438  0.7297  0.0214
 6159TIP3   OH239967   3.054   4.623  15.904 -0.3400 -0.0793  0.2350
 6159TIP3    H139968   3.073   4.554  15.841 -0.0936  1.3547 -1.3194
 6159TIP3    H239969   2.963   4.607  15.930 -0.2287 -1.0837  0.0751
 6160TIP3   OH239970   3.653   2.905   4.181  0.1906  0.0440  0.3295
 6160TIP3    H139971   3.642   3.000   4.191 -0.7055  0.0055 -0.1580
 6160TIP3    H239972   3.564   2.872   4.169  0.3815 -1.0053  1.6311
 6161TIP3   OH239973   0.326   2.429  16.761 -0.0168 -0.5696 -0.1242
 6161TIP3    H139974   0.261   2.369  16.724 -1.2404  1.5506 -1.6552
 6161TIP3    H239975   0.386   2.448  16.689 -1.0226  1.7522 -0.4443
 6162TIP3   OH239976   2.960   5.348   0.045 -0.0748 -0.3018 -0.3687
 6162TIP3    H139977   2.999   5.261   0.054 -0.3829 -0.2811  1.6034
 6162TIP3    H239978   3.031   5.403   0.012  0.8700 -0.8080  0.7455
 6163TIP3   OH239979   1.321   4.465  12.514 -0.4598  0.4039 -0.6974
 6163TIP3    H139980   1.387   4.458  12.445  1.4987  1.5845  0.9461
 6163TIP3    H239981   1.309   4.559  12.526  0.9641  0.3222  2.0454
 6164TIP3   OH239982   3.591   2.326   2.814  0.2289  0.4527 -0.1289
 6164TIP3    H139983   3.648   2.271   2.760  1.4522  2.1077 -0.5848
 6164TIP3    H239984   3.645   2.402   2.837 -1.6780  1.9309 -0.2901
 6165TIP3   OH239985   2.825   1.065  17.070 -0.0811  0.3570 -0.2868
 6165TIP3    H139986   2.778   1.056  17.153 -3.2495  0.8074 -1.8684
 6165TIP3    H239987   2.837   0.975  17.039 -0.8226  0.2509 -0.2878
 6166TIP3   OH239988   6.068   0.895   6.539 -0.0671  0.1587  0.2966
 6166TIP3    H139989   6.008   0.944   6.483 -0.5429  0.3253  0.9432
 6166TIP3    H239990   6.061   0.805   6.508 -1.5227 -0.0347  1.0703
 6167TIP3   OH239991   5.861   5.926  11.601 -0.4085  0.6355  0.4793
 6167TIP3    H139992   5.799   5.885  11.662  0.9838  0.1535  1.6080
 6167TIP3    H239993   5.806   5.984  11.547 -2.4813 -2.4810 -1.1024
 6168TIP3   OH239994   6.425   1.634  14.908  0.3016 -0.4621  0.3432
 6168TIP3    H139995   6.381   1.662  14.988 -0.5580 -2.7389  0.7458
 6168TIP3    H239996   6.519   1.637  14.929  0.2297  1.3670  0.5462
 6169TIP3   OH239997   2.486   5.302   4.664  0.1078  0.2741 -0.1074
 6169TIP3    H139998   2.521   5.234   4.722 -0.6227  0.6986  0.8369
 6169TIP3    H239999   2.505   5.384   4.708 -0.4931  0.6000 -0.4453
 6170TIP3   OH240000   0.308   5.263  11.655 -0.8205  0.0356  0.5123
 6170TIP3    H140001   0.250   5.337  11.637 -0.6092 -0.1708 -1.1303
 6170TIP3    H240002   0.300   5.207  11.578  0.0470 -0.9993  1.1437
 6171TIP3   OH240003   2.488   2.412   2.098 -0.2264  0.2414 -0.1884
 6171TIP3    H140004   2.556   2.346   2.083 -1.0336 -0.5995 -0.2063
 6171TIP3    H240005   2.497   2.472   2.024  1.1164  0.6994  0.3091
 6172TIP3   OH240006   6.749   3.731   0.283 -0.4716  0.6925 -0.1837
 6172TIP3    H140007   6.791   3.650   0.255 -0.7561  0.7796 -0.8549
 6172TIP3    H240008   6.822   3.792   0.297 -0.1009 -0.1287  1.9281
 6173TIP3   OH240009   6.623   5.084  14.500 -0.2403  0.2189  0.0126
 6173TIP3    H140010   6.576   5.145  14.557  0.8417  1.3075 -0.2021
 6173TIP3    H240011   6.595   4.998  14.529 -1.1012  0.7945  0.9712
 6174TIP3   OH240012   6.606   4.003  11.324 -0.0679  0.4555  0.2045
 6174TIP3    H140013   6.566   3.932  11.374  0.4392  0.1700  0.2067
 6174TIP3    H240014   6.654   3.960  11.255 -1.0765  0.8605 -0.7829
 6175TIP3   OH240015   2.562   2.861  16.633  0.1887 -0.3636  0.1614
 6175TIP3    H140016   2.479   2.904  16.651  0.4380  0.1504  0.1128
 6175TIP3    H240017   2.601   2.847  16.720  0.1929 -0.3186  0.1661
 6176TIP3   OH240018   5.058   1.146   3.393  0.1916  0.5004 -0.3224
 6176TIP3    H140019   5.029   1.077   3.452 -1.6725  0.8831 -0.7404
 6176TIP3    H240020   5.095   1.214   3.450 -0.5953  0.3998  0.3070
 6177TIP3   OH240021   5.557   6.357   1.580 -0.4154 -0.0466  0.0589
 6177TIP3    H140022   5.518   6.340   1.494  1.0691 -0.9680 -0.4742
 6177TIP3    H240023   5.558   6.272   1.624  0.0807  0.1505  0.4380
 6178TIP3   OH240024   5.582   3.800  11.437 -0.2716 -0.5301 -0.1632
 6178TIP3    H140025   5.527   3.836  11.367 -0.7842  0.5029  0.7365
 6178TIP3    H240026   5.666   3.845  11.427 -0.1843 -0.7541 -0.4270
 6179TIP3   OH240027   1.183   5.607   1.230  0.7687 -0.5247  0.1308
 6179TIP3    H140028   1.175   5.680   1.169  3.7843 -1.1150 -1.1617
 6179TIP3    H240029   1.232   5.643   1.303 -1.0972 -0.3486  1.3625
 6180TIP3   OH240030   2.376   4.664  12.429  0.3284 -0.6080  0.3499
 6180TIP3    H140031   2.310   4.596  12.441 -1.4218  1.1172  1.1190
 6180TIP3    H240032   2.365   4.694  12.339 -1.2832  0.9110  0.9946
 6181TIP3   OH240033   2.234   1.666   5.624 -0.1102 -0.1535  0.0410
 6181TIP3    H140034   2.242   1.705   5.537  1.3320 -2.0799 -0.7818
 6181TIP3    H240035   2.147   1.625   5.625  0.0056 -0.4238 -0.6447
 6182TIP3   OH240036   6.316   4.121   3.457 -0.5370 -0.1161  0.7883
 6182TIP3    H140037   6.353   4.146   3.372 -0.5041 -1.3209  0.4279
 6182TIP3    H240038   6.375   4.161   3.521  1.0484 -1.4307  0.2267
 6183TIP3   OH240039   0.078   0.762   4.661 -0.1059 -0.0470 -0.4382
 6183TIP3    H140040   0.158   0.714   4.639  0.1505  0.2003 -0.0698
 6183TIP3    H240041   0.088   0.846   4.617 -0.3387 -0.1592 -0.7031
 6184TIP3   OH240042   2.588   2.197  11.396 -0.0278 -0.4553  0.8975
 6184TIP3    H140043   2.599   2.286  11.364 -2.3765 -0.6918 -0.8706
 6184TIP3    H240044   2.574   2.144  11.317  1.8745 -2.5514  1.8464
 6185TIP3   OH240045   0.792   4.438   5.151  0.0091  0.0864 -0.4230
 6185TIP3    H140046   0.782   4.524   5.110  2.0885  0.3405 -0.4918
 6185TIP3    H240047   0.790   4.456   5.245 -0.9678 -0.0071 -0.4109
 6186TIP3   OH240048   2.526   5.905   1.978 -0.3469  0.1189  0.1075
 6186TIP3    H140049   2.542   5.955   2.058 -0.1985  0.4305 -0.1139
 6186TIP3    H240050   2.515   5.972   1.910 -1.4061 -0.1159  0.0321
 6187TIP3   OH240051   5.051   4.822   4.569 -0.3754 -0.6993  0.4902
 6187TIP3    H140052   5.140   4.786   4.578  0.1625 -0.0467 -1.6282
 6187TIP3    H240053   5.031   4.858   4.655  2.2937  1.0027  0.5091
 6188TIP3   OH240054   4.393   2.260  14.529 -0.3301 -0.4191  0.1471
 6188TIP3    H140055   4.421   2.258  14.438  0.4192 -1.2144  0.3827
 6188TIP3    H240056   4.462   2.213  14.577  0.1912  1.4430  1.3683
 6189TIP3   OH240057   4.225   5.289   3.491 -1.2776 -0.2367 -0.3239
 6189TIP3    H140058   4.256   5.214   3.441  2.3956  0.9733 -0.1479
 6189TIP3    H240059   4.201   5.354   3.425 -0.8209 -0.2490 -0.5049
 6190TIP3   OH240060   6.358   3.481  12.618 -0.7649 -0.0940 -0.5278
 6190TIP3    H140061   6.366   3.396  12.660 -2.3424 -0.6458 -1.2599
 6190TIP3    H240062   6.365   3.462  12.524  0.1498  0.7697 -0.6567
 6191TIP3   OH240063   6.429   0.847   1.988 -0.1461  0.4172 -0.4937
 6191TIP3    H140064   6.457   0.783   1.923 -0.8046 -1.8324  1.3127
 6191TIP3    H240065   6.479   0.926   1.967  0.5586 -0.5884 -2.9310
 6192TIP3   OH240066   3.826   6.738  13.714 -0.0808 -0.8906 -0.2321
 6192TIP3    H140067   3.871   6.801  13.658  0.5298 -2.6768 -1.8772
 6192TIP3    H240068   3.744   6.719  13.668 -1.4490  0.4919  1.5008
 6193TIP3   OH240069   0.946   6.197   4.039  0.1806 -0.2824  0.2632
 6193TIP3    H140070   0.853   6.212   4.020 -0.1812 -2.0663  0.4198
 6193TIP3    H240071   0.979   6.283   4.064 -0.9618  0.7978 -1.6300
 6194TIP3   OH240072   3.322   2.665  14.145 -0.1978 -0.1129  0.1539
 6194TIP3    H140073   3.281   2.684  14.229 -1.0717  1.6178 -0.6145
 6194TIP3    H240074   3.339   2.751  14.107 -0.1716 -0.8534 -1.5963
 6195TIP3   OH240075   5.411   0.026   1.027 -0.9018  0.4747  0.2930
 6195TIP3    H140076   5.420   0.003   0.935 -0.5438  1.9046 -0.0423
 6195TIP3    H240077   5.449  -0.049   1.074 -3.0176 -1.2556 -0.6066
 6196TIP3   OH240078   2.313   6.562   3.858  0.1149  0.3133 -0.1560
 6196TIP3    H140079   2.346   6.620   3.927  0.5104 -0.0041 -0.0780
 6196TIP3    H240080   2.339   6.474   3.886  1.9332  0.3430 -1.6451
 6197TIP3   OH240081   0.270   4.957   5.479  0.3031  0.0012 -0.1025
 6197TIP3    H140082   0.263   4.903   5.401  0.2145  0.4504 -0.4101
 6197TIP3    H240083   0.182   4.958   5.515  0.3055 -0.0587 -0.0939
 6198TIP3   OH240084   1.936   6.739  12.028 -0.7433 -0.1075  0.2736
 6198TIP3    H140085   1.919   6.755  12.121 -0.8582 -1.6963  0.5462
 6198TIP3    H240086   1.962   6.824  11.994 -1.1964  0.6126  1.6488
 6199TIP3   OH240087   1.664   4.046   0.055 -0.3443 -0.3179 -0.9461
 6199TIP3    H140088   1.738   4.044  -0.007 -0.6198 -1.4588 -1.2622
 6199TIP3    H240089   1.638   3.955   0.064 -1.1572 -0.0218 -0.1426
 6200TIP3   OH240090   3.056   0.979   4.682 -0.0326  0.6016  0.6363
 6200TIP3    H140091   3.054   1.025   4.599 -1.3834 -1.6212 -0.6656
 6200TIP3    H240092   3.149   0.977   4.706  0.2891  1.9484 -0.3821
 6201TIP3   OH240093   2.971   0.130   3.302  0.3005  0.7940 -0.3898
 6201TIP3    H140094   2.892   0.079   3.284  0.0217  0.4676  1.5834
 6201TIP3    H240095   3.041   0.082   3.258 -0.0866 -0.8832  0.7355
 6202TIP3   OH240096   3.055   3.238   1.136 -0.0143 -0.4033  0.0591
 6202TIP3    H140097   3.114   3.223   1.062  0.3030 -0.5382  0.3414
 6202TIP3    H240098   3.067   3.330   1.159  0.8014 -0.6793  0.7421
 6203TIP3   OH240099   0.400   4.460   6.026 -0.1094 -0.5277  0.0750
 6203TIP3    H140100   0.365   4.472   6.114  2.1289 -0.1566  0.9739
 6203TIP3    H240101   0.349   4.388   5.989 -2.9293  1.0623  0.6062
 6204TIP3   OH240102   0.089   0.325   2.079 -0.0574 -0.0036  0.3974
 6204TIP3    H140103   0.100   0.379   2.158  2.3173 -2.0027  1.5799
 6204TIP3    H240104   0.108   0.386   2.007  1.6399  1.0210  1.6171
 6205TIP3   OH240105   2.777   4.032  11.306 -0.1431 -0.5788  0.2705
 6205TIP3    H140106   2.766   3.951  11.255  0.2685 -0.0711 -0.6533
 6205TIP3    H240107   2.851   4.076  11.265  0.1595 -0.1172  1.2946
 6206TIP3   OH240108   2.062   1.963   4.376  0.2859 -0.0855  0.2048
 6206TIP3    H140109   2.012   1.964   4.294  1.0435 -0.2839 -0.2729
 6206TIP3    H240110   2.000   1.934   4.442 -0.3606  0.1591 -0.2842
 6207TIP3   OH240111   2.166   1.582  12.072 -0.0037 -0.2015  0.2056
 6207TIP3    H140112   2.078   1.618  12.086 -0.2019  0.1857 -1.7860
 6207TIP3    H240113   2.203   1.635  12.002  2.0723 -0.0025  1.3891
 6208TIP3   OH240114   5.813   0.299  16.232 -0.2025  0.1960 -0.2077
 6208TIP3    H140115   5.794   0.300  16.326  0.0902 -0.8133 -0.1329
 6208TIP3    H240116   5.858   0.216  16.217 -0.9685 -0.0220 -1.3907
 6209TIP3   OH240117   5.516   0.527   3.823  0.2698  0.1289 -0.6850
 6209TIP3    H140118   5.487   0.436   3.827  0.0009  0.2028 -0.9154
 6209TIP3    H240119   5.566   0.540   3.903 -0.1570 -0.0665 -0.3823
 6210TIP3   OH240120   4.505   6.468  15.624  0.0748  0.1599 -0.3889
 6210TIP3    H140121   4.462   6.390  15.589 -1.8044  0.8063  0.3520
 6210TIP3    H240122   4.433   6.527  15.646  1.4282  2.1174 -0.9100
 6211TIP3   OH240123   2.221   0.104  12.943 -0.0284 -0.7124  0.7810
 6211TIP3    H140124   2.128   0.110  12.967 -0.0903 -1.1301  0.6659
 6211TIP3    H240125   2.266   0.160  13.006 -0.7134  2.6447 -1.4756
 6212TIP3   OH240126   5.904   0.105  14.281 -0.0160  0.7657 -0.0737
 6212TIP3    H140127   5.855   0.148  14.352 -0.2643  1.6150 -0.7429
 6212TIP3    H240128   5.937   0.025  14.321 -3.1715 -0.6328  0.0312
 6213TIP3   OH240129   3.807   0.286   4.352 -0.0382 -0.1847  0.2127
 6213TIP3    H140130   3.879   0.324   4.300  0.6246  0.0312  1.2603
 6213TIP3    H240131   3.750   0.360   4.373  0.3136 -0.0626  0.7604
 6214TIP3   OH240132   0.497   3.072   5.526 -0.1347 -0.9820  0.1109
 6214TIP3    H140133   0.445   2.999   5.493 -0.0696 -1.0606  0.1798
 6214TIP3    H240134   0.496   3.061   5.621  0.5211 -1.3384  0.0823
 6215TIP3   OH240135   0.726   2.888   1.828 -0.1532 -0.4676 -0.6395
 6215TIP3    H140136   0.727   2.979   1.799 -1.1961 -0.1099  0.3569
 6215TIP3    H240137   0.778   2.841   1.763 -0.7875  0.6080 -1.9591
 6216TIP3   OH240138   2.736   2.169   4.217 -0.2662 -0.1545  0.7645
 6216TIP3    H140139   2.782   2.237   4.167 -1.2340  0.1625  0.2874
 6216TIP3    H240140   2.716   2.210   4.301 -3.5721  1.2964 -0.5846
 6217TIP3   OH240141   5.113   5.907  16.398 -0.1930  0.0650 -0.5814
 6217TIP3    H140142   5.201   5.942  16.413 -0.1829 -0.5686  1.1295
 6217TIP3    H240143   5.100   5.913  16.303  2.1004 -0.7633 -1.0026
 6218TIP3   OH240144   1.867   5.729   1.653 -0.2112 -0.0714 -0.1339
 6218TIP3    H140145   1.817   5.658   1.614  0.4814 -0.5197 -0.2250
 6218TIP3    H240146   1.805   5.773   1.712 -0.9714 -0.0265 -0.9504
 6219TIP3   OH240147   3.382   6.430  13.935 -0.2030 -0.2477 -0.0692
 6219TIP3    H140148   3.290   6.426  13.961  0.0772  1.2166  1.3119
 6219TIP3    H240149   3.381   6.478  13.852 -0.8097 -1.8705 -1.0379
 6220TIP3   OH240150   2.120   5.018   6.611 -0.2064 -0.2715 -0.4319
 6220TIP3    H140151   2.194   5.005   6.670 -2.3958 -2.1750  2.1763
 6220TIP3    H240152   2.058   5.071   6.662 -2.2030 -2.0187 -0.9243
 6221TIP3   OH240153   5.624   6.476   4.537 -0.4401  0.1824 -0.4696
 6221TIP3    H140154   5.664   6.515   4.460  1.8779  1.3633  1.1921
 6221TIP3    H240155   5.642   6.382   4.529  0.4751  0.3957 -0.9873
 6222TIP3   OH240156   5.701   0.007  11.332  0.1276  0.1465 -0.2650
 6222TIP3    H140157   5.620  -0.010  11.381 -0.2555  1.6725 -0.3192
 6222TIP3    H240158   5.682  -0.023  11.243  0.1732 -0.8894  0.0524
 6223TIP3   OH240159   0.249   2.973  16.798  0.7826 -0.3995  0.5215
 6223TIP3    H140160   0.316   3.013  16.854 -0.1544 -0.7282  1.9323
 6223TIP3    H240161   0.256   2.879  16.817  1.4493 -0.7019 -1.0666
 6224TIP3   OH240162   0.452   6.595   1.268  0.2527  0.1130 -0.3601
 6224TIP3    H140163   0.488   6.670   1.316 -0.6243  0.0333  0.4491
 6224TIP3    H240164   0.522   6.570   1.207  1.7192 -0.2412  1.3639
 6225TIP3   OH240165   3.141   1.270   1.261 -0.0052  0.1960  0.5936
 6225TIP3    H140166   3.202   1.310   1.323 -2.2712  0.7329  2.6182
 6225TIP3    H240167   3.131   1.180   1.293  0.5216 -0.2158 -0.3737
 6226TIP3   OH240168   6.050   2.294   3.330  0.2710 -0.4623  0.0981
 6226TIP3    H140169   6.113   2.254   3.389 -0.1025 -0.9013  0.2056
 6226TIP3    H240170   5.983   2.226   3.316  0.2044 -0.2689 -0.5957
 6227TIP3   OH240171   3.147   5.598   0.072  0.4505  0.0451 -0.3153
 6227TIP3    H140172   3.189   5.609   0.157 -0.1283 -0.5991  0.0601
 6227TIP3    H240173   3.174   5.675   0.022  1.2419  0.1481  0.2617
 6228TIP3   OH240174   4.092   5.417   3.813 -0.1409  0.2116  0.4039
 6228TIP3    H140175   4.154   5.377   3.752  1.0474 -0.3099  1.9071
 6228TIP3    H240176   4.012   5.364   3.804 -0.2162  0.5377 -1.1303
 6229TIP3   OH240177   3.109   2.485  13.505 -0.2800 -0.2421 -0.0448
 6229TIP3    H140178   3.033   2.517  13.457 -1.3775 -2.5867 -0.0026
 6229TIP3    H240179   3.184   2.512  13.452 -1.0780  1.9618 -0.1749
 6230TIP3   OH240180   3.447   0.163   3.650 -0.0913 -0.3855  0.0695
 6230TIP3    H140181   3.520   0.101   3.655 -0.2672 -0.5179  1.0746
 6230TIP3    H240182   3.489   0.249   3.652 -0.0428 -0.3689  3.7629
 6231TIP3   OH240183   6.445   4.760  16.029  0.2526 -0.2278  0.2762
 6231TIP3    H140184   6.392   4.751  15.950 -1.4016  2.2920  0.9751
 6231TIP3    H240185   6.518   4.817  16.003 -0.6209  1.1076  0.6264
 6232TIP3   OH240186   4.778   2.369  12.429  0.1568  0.4105 -0.1492
 6232TIP3    H140187   4.822   2.452  12.409 -0.0903  0.6306  0.1986
 6232TIP3    H240188   4.842   2.319  12.479 -0.1370  0.9022  0.7259
 6233TIP3   OH240189   5.787   3.999   1.561  0.8965 -0.0944 -0.6614
 6233TIP3    H140190   5.697   4.009   1.530  0.4511 -0.6992  0.3914
 6233TIP3    H240191   5.811   4.084   1.597  0.9352  0.2134 -1.4013
 6234TIP3   OH240192   6.014   4.118   3.190  0.1395  0.1580  0.3276
 6234TIP3    H140193   6.072   4.079   3.125  1.0171 -0.7348  1.5858
 6234TIP3    H240194   5.931   4.071   3.179  0.0509  0.4974 -0.5751
 6235TIP3   OH240195   6.589   2.466  16.109  0.3061  0.8995 -0.0294
 6235TIP3    H140196   6.585   2.514  16.192 -1.3338  0.9769 -0.1045
 6235TIP3    H240197   6.523   2.508  16.054 -0.7527 -1.0071 -0.3141
 6236TIP3   OH240198   4.955   4.372  16.692  0.1412 -0.4288 -0.5792
 6236TIP3    H140199   4.861   4.361  16.707  0.2624  0.0442  0.6272
 6236TIP3    H240200   4.988   4.410  16.773  1.0796  1.0932 -1.6327
 6237TIP3   OH240201   2.235   2.101  12.421 -0.2142 -0.7563 -0.2880
 6237TIP3    H140202   2.185   2.132  12.496 -0.4974  1.4670 -1.3335
 6237TIP3    H240203   2.174   2.044  12.374 -1.6761  1.4226 -1.2077
 6238TIP3   OH240204   4.870   2.415  16.168  0.2041 -0.6698  0.1109
 6238TIP3    H140205   4.813   2.486  16.140 -0.0579 -1.1550 -0.6362
 6238TIP3    H240206   4.937   2.410  16.100  2.1312  0.9502  1.7868
 6239TIP3   OH240207   3.326   5.915  10.606 -0.2202 -0.5122  0.1372
 6239TIP3    H140208   3.393   5.848  10.618  0.1325 -0.0970  0.5430
 6239TIP3    H240209   3.243   5.871  10.627 -0.1221 -1.1184 -0.6970
 6240TIP3   OH240210   1.239   5.126  16.383  0.0693 -0.3907 -0.0227
 6240TIP3    H140211   1.211   5.201  16.436  0.3445 -0.0724 -0.3220
 6240TIP3    H240212   1.334   5.127  16.389  0.1365 -0.0732 -0.8844
 6241TIP3   OH240213   5.212   0.414   5.566 -0.4876  0.7983 -0.5939
 6241TIP3    H140214   5.279   0.401   5.499 -0.3077 -0.7161 -0.1791
 6241TIP3    H240215   5.259   0.400   5.649 -0.9625  1.4052 -0.2164
 6242TIP3   OH240216   2.302   1.896   4.417 -0.8288 -0.1542  0.3683
 6242TIP3    H140217   2.228   1.951   4.393 -0.3132  0.6447  0.5819
 6242TIP3    H240218   2.274   1.807   4.393 -1.4963  0.2434 -0.3923
 6243TIP3   OH240219   6.823   6.843   1.599  0.5664 -0.0407  0.3079
 6243TIP3    H140220   6.761   6.774   1.621 -0.2182  0.4449 -0.3128
 6243TIP3    H240221   6.820   6.848   1.503  1.4027  0.1411  0.2831
 6244TIP3   OH240222   5.323   2.721  12.761 -0.1922 -0.3500  0.2840
 6244TIP3    H140223   5.352   2.754  12.676 -2.4111  0.1753 -0.3245
 6244TIP3    H240224   5.342   2.627  12.758 -1.2011 -0.5408 -1.2341
 6245TIP3   OH240225   4.958   0.210   3.403 -0.6815  0.6922 -0.3326
 6245TIP3    H140226   4.966   0.305   3.393 -3.3155  0.8023 -2.7206
 6245TIP3    H240227   5.009   0.174   3.330  0.4080  0.2258  0.6327
 6246TIP3   OH240228   1.220   1.126  11.319  0.2776  0.3339 -0.1535
 6246TIP3    H140229   1.128   1.102  11.308  0.2799  0.6462 -0.8591
 6246TIP3    H240230   1.218   1.221  11.332  0.4975  0.3291 -0.0933
 6247TIP3   OH240231   3.628   5.916  14.914 -0.1047  0.6221 -0.1777
 6247TIP3    H140232   3.587   5.921  14.828  0.6287 -1.5042 -0.7213
 6247TIP3    H240233   3.722   5.912  14.896  0.0436 -0.2694  0.6633
 6248TIP3   OH240234   5.509   6.561   5.143 -0.5265 -0.1920  0.0583
 6248TIP3    H140235   5.427   6.511   5.144 -0.1193 -1.0841 -2.3410
 6248TIP3    H240236   5.578   6.494   5.149  0.0139  0.1479 -1.6148
 6249TIP3   OH240237   3.184   5.957  14.421  0.3485  0.0251 -0.6830
 6249TIP3    H140238   3.203   6.038  14.469  1.9623 -0.6946 -0.0359
 6249TIP3    H240239   3.096   5.971  14.385 -0.3906  1.1321  1.3556
 6250TIP3   OH240240   0.631   3.359  15.575  0.2342 -0.0496  0.0837
 6250TIP3    H140241   0.565   3.294  15.552 -1.4476  0.9300  1.8091
 6250TIP3    H240242   0.658   3.396  15.491 -1.4229 -0.4970 -0.6962
 6251TIP3   OH240243   4.060   2.626   1.147  0.0311 -0.0812 -0.2830
 6251TIP3    H140244   3.993   2.576   1.101  0.9277 -1.5820 -0.0413
 6251TIP3    H240245   4.014   2.703   1.182 -1.2317 -0.3427 -1.3104
 6252TIP3   OH240246   1.455   2.094   4.242  0.6230  0.6654 -0.1959
 6252TIP3    H140247   1.439   2.186   4.262  1.3155  0.4737  1.3863
 6252TIP3    H240248   1.421   2.046   4.317  0.5196 -0.3716 -0.8729
 6253TIP3   OH240249   4.493   5.012   1.842 -0.6528  0.2318  0.4659
 6253TIP3    H140250   4.426   5.070   1.879 -0.3749  0.5967  0.3997
 6253TIP3    H240251   4.520   4.957   1.916 -1.1177 -0.0096  0.4614
 6254TIP3   OH240252   0.167   0.781  16.485  0.2406 -0.2831 -0.2914
 6254TIP3    H140253   0.208   0.788  16.571 -0.8296  0.6407  0.1802
 6254TIP3    H240254   0.155   0.871  16.456 -1.4710 -0.4957 -0.3689
 6255TIP3   OH240255   3.691   5.264  15.799  0.0142  0.3900  0.1903
 6255TIP3    H140256   3.670   5.356  15.815 -2.9692  0.2668 -2.1773
 6255TIP3    H240257   3.608   5.218  15.810  0.9658 -1.7255 -0.8190
 6256TIP3   OH240258   0.950   0.114   5.465 -0.3930  0.0216 -0.0017
 6256TIP3    H140259   1.025   0.118   5.525 -1.0314 -0.7718  0.8625
 6256TIP3    H240260   0.884   0.170   5.506 -0.6003  0.0025 -0.3113
 6257TIP3   OH240261   5.848   3.924  13.542  0.0162  0.6159 -0.1392
 6257TIP3    H140262   5.755   3.929  13.517 -0.1006  0.7845  0.3245
 6257TIP3    H240263   5.882   3.852  13.490 -0.8352 -0.7376  1.0896
 6258TIP3   OH240264   4.717   2.109  12.752  0.1248  0.0413 -0.1128
 6258TIP3    H140265   4.638   2.132  12.703  0.8228  2.5621 -0.1886
 6258TIP3    H240266   4.780   2.176  12.727  1.7290 -0.8785  1.3183
 6259TIP3   OH240267   6.016   0.543   0.132  0.4635  0.2461  0.3936
 6259TIP3    H140268   6.003   0.470   0.192 -1.2550  2.3632  2.8104
 6259TIP3    H240269   5.977   0.619   0.176  1.9255  2.6347 -2.0523
 6260TIP3   OH240270   6.844   5.024  15.549  0.3339  0.3683  0.4256
 6260TIP3    H140271   6.772   4.963  15.567  0.8118  0.2082  1.8951
 6260TIP3    H240272   6.912   5.000  15.611  0.1186  3.0881  1.8620
 6261TIP3   OH240273   4.322   6.263   5.217 -0.4766  0.0496  0.0970
 6261TIP3    H140274   4.298   6.339   5.270 -0.9231  0.2566 -0.3963
 6261TIP3    H240275   4.415   6.250   5.235 -0.0358  1.5900 -0.8774
 6262TIP3   OH240276   0.152   1.804   0.252  0.0457 -0.4690  0.1589
 6262TIP3    H140277   0.162   1.899   0.240  0.6464  0.1404  3.9645
 6262TIP3    H240278   0.170   1.766   0.166 -0.3503  2.8339 -1.5557
 6263TIP3   OH240279   5.417   3.421  12.125 -0.0340 -0.3547 -0.4485
 6263TIP3    H140280   5.335   3.446  12.085  1.6186  4.1453 -1.5980
 6263TIP3    H240281   5.423   3.475  12.204  3.0051  1.9435 -2.0337
 6264TIP3   OH240282   1.560   1.882  11.068 -0.0843 -0.2328 -0.1471
 6264TIP3    H140283   1.623   1.850  11.003 -0.2074  0.0622 -0.4103
 6264TIP3    H240284   1.478   1.892  11.020 -0.1069  0.2533 -0.0127
 6265TIP3   OH240285   1.397   6.516   3.007 -0.0143 -0.3621 -0.5578
 6265TIP3    H140286   1.327   6.486   3.064  1.2482 -1.3679  0.5133
 6265TIP3    H240287   1.360   6.592   2.962 -1.4963 -0.3621  0.5932
 6266TIP3   OH240288   1.312   1.623   3.277 -0.2566 -0.1027  0.1146
 6266TIP3    H140289   1.401   1.591   3.293 -0.0416  0.1113 -0.6022
 6266TIP3    H240290   1.306   1.630   3.181 -1.4122 -1.1576  0.0834
 6267TIP3   OH240291   4.249   5.823  12.691  0.4085 -0.1979  0.0507
 6267TIP3    H140292   4.220   5.878  12.618  0.0339 -1.8114 -1.0601
 6267TIP3    H240293   4.170   5.779  12.720  0.6934 -0.1182  0.9717
 6268TIP3   OH240294   0.937   1.089  11.315 -0.1274 -0.2917 -0.1062
 6268TIP3    H140295   0.897   1.003  11.320 -0.5405 -0.0738  0.5308
 6268TIP3    H240296   0.948   1.116  11.407  0.4985  0.0997 -0.2874
 6269TIP3   OH240297   3.064   4.880  10.663  0.1291 -0.2883 -0.5531
 6269TIP3    H140298   2.973   4.907  10.662  0.0317 -0.6007 -1.8174
 6269TIP3    H240299   3.061   4.786  10.682  0.1805 -0.3156 -0.6806
 6270TIP3   OH240300   0.249   0.463  11.418 -0.1344 -0.0477  0.4217
 6270TIP3    H140301   0.251   0.525  11.345 -1.2512 -0.4383  0.0466
 6270TIP3    H240302   0.160   0.469  11.453 -0.3771 -1.6436  0.1746
 6271TIP3   OH240303   4.730   3.897  15.083  0.1864  0.1648 -0.3820
 6271TIP3    H140304   4.740   3.810  15.122  1.5935 -0.1580 -1.3752
 6271TIP3    H240305   4.820   3.926  15.067 -0.2376  1.9544  0.2080
 6272TIP3   OH240306   0.637   2.550   5.573 -0.1130 -0.0033  0.0723
 6272TIP3    H140307   0.604   2.512   5.491 -1.2438  3.2501 -1.1143
 6272TIP3    H240308   0.731   2.560   5.558 -0.2133  0.0190 -0.5904
 6273TIP3   OH240309   1.050   6.791   2.088 -0.0135 -0.6102  0.5318
 6273TIP3    H140310   1.017   6.857   2.149 -0.5945 -0.0969 -0.3142
 6273TIP3    H240311   1.145   6.793   2.100 -0.1523 -0.9725  1.8602
 6274TIP3   OH240312   5.557   3.504   0.129 -0.4958 -0.4737  0.9028
 6274TIP3    H140313   5.511   3.422   0.114  0.8239 -0.7630 -2.4777
 6274TIP3    H240314   5.497   3.572   0.098 -0.0322 -0.5784 -0.2959
 6275TIP3   OH240315   1.685   0.546   1.521  0.1890 -0.0930  0.0073
 6275TIP3    H140316   1.693   0.625   1.468  0.0985 -0.1432 -0.0817
 6275TIP3    H240317   1.654   0.577   1.606 -2.5707 -0.2759 -0.8262
 6276TIP3   OH240318   5.891   6.001  15.371  0.2963 -0.5216 -0.0451
 6276TIP3    H140319   5.889   6.015  15.276 -1.3230 -2.0363 -0.2823
 6276TIP3    H240320   5.922   6.084  15.406  0.1656  0.3515 -1.8573
 6277TIP3   OH240321   3.367   5.436  12.776 -0.1497  0.0093 -0.2664
 6277TIP3    H140322   3.354   5.380  12.700  0.1540 -0.7113  0.2031
 6277TIP3    H240323   3.383   5.375  12.849 -0.8326  0.6653  0.4589
 6278TIP3   OH240324   2.554   2.235   6.489  0.1710 -0.3457  0.1734
 6278TIP3    H140325   2.507   2.307   6.445  0.1522 -0.8292 -0.6127
 6278TIP3    H240326   2.643   2.268   6.499  0.2044 -0.2668 -0.3368
 6279TIP3   OH240327   2.958   6.463  13.611 -0.1298 -0.7020  0.1675
 6279TIP3    H140328   2.885   6.493  13.666 -1.1942 -1.5156 -0.7525
 6279TIP3    H240329   2.962   6.527  13.540  1.7905  0.8313  1.5471
 6280TIP3   OH240330   5.519   3.429  15.860 -0.1571  0.2314 -0.2415
 6280TIP3    H140331   5.564   3.513  15.859 -2.7165  1.7365 -0.3933
 6280TIP3    H240332   5.563   3.376  15.794  0.7783  1.9138 -1.0142
 6281TIP3   OH240333   4.314   5.613  13.566  0.2638 -0.1032  0.2046
 6281TIP3    H140334   4.409   5.605  13.559  0.2360 -1.3653  1.0385
 6281TIP3    H240335   4.292   5.687  13.509  1.8224  0.7163  0.6175
 6282TIP3   OH240336   1.341   1.981  13.772  0.1056  0.2353  0.2018
 6282TIP3    H140337   1.282   1.942  13.707 -0.5883  1.4540  0.0842
 6282TIP3    H240338   1.296   1.971  13.855 -0.2665  1.1333  0.1172
 6283TIP3   OH240339   4.951   0.431  16.923 -0.2873 -0.5052 -0.4932
 6283TIP3    H140340   4.918   0.509  16.968  0.4386 -0.2045 -0.4617
 6283TIP3    H240341   4.900   0.359  16.959 -0.7564 -0.0829 -0.2972
 6284TIP3   OH240342   2.755   1.546  12.379  0.2783 -0.2510 -0.5321
 6284TIP3    H140343   2.702   1.488  12.434 -0.1668  1.0532  0.4592
 6284TIP3    H240344   2.729   1.524  12.289  0.0943 -1.5367 -0.1907
 6285TIP3   OH240345   2.317   3.645   3.752  0.0305  0.2631 -0.3773
 6285TIP3    H140346   2.258   3.633   3.678 -1.6949 -0.9067  1.1131
 6285TIP3    H240347   2.402   3.615   3.720 -0.5383  0.3344 -2.0412
 6286TIP3   OH240348   5.067   2.740  15.731 -0.4656 -0.0553  0.3061
 6286TIP3    H140349   5.124   2.773  15.662  0.3861  1.1305  1.5523
 6286TIP3    H240350   5.018   2.816  15.761  1.5371  0.2246  3.2300
 6287TIP3   OH240351   0.399   1.776  11.069  0.3782 -0.1624 -0.1974
 6287TIP3    H140352   0.446   1.706  11.026 -0.5105 -1.2376  0.5233
 6287TIP3    H240353   0.313   1.739  11.089  0.0202  1.0026  0.5530
 6288TIP3   OH240354   3.737   4.495   0.027 -0.0812 -0.1365 -0.1494
 6288TIP3    H140355   3.722   4.590   0.030 -0.7414 -0.2239 -0.4092
 6288TIP3    H240356   3.736   4.468   0.118  0.0054  0.0903 -0.0795
 6289TIP3   OH240357   0.374   4.211   4.702 -0.3094 -0.5444  0.1560
 6289TIP3    H140358   0.291   4.256   4.718 -0.0667 -0.0427  0.0118
 6289TIP3    H240359   0.441   4.276   4.722  0.0542 -0.9665  0.3245
 6290TIP3   OH240360   6.435   2.443  13.218 -0.0805 -0.1478  0.0325
 6290TIP3    H140361   6.348   2.458  13.253 -0.6420 -0.4067 -1.1932
 6290TIP3    H240362   6.424   2.449  13.123  1.0876 -0.9244 -0.1714
 6291TIP3   OH240363   0.794   0.001  14.855 -0.2650 -0.2874 -0.1550
 6291TIP3    H140364   0.850   0.079  14.861 -1.0655  0.2344  0.6988
 6291TIP3    H240365   0.855  -0.069  14.831  1.0118  0.0231  1.8665
 6292TIP3   OH240366   6.353   1.165   1.051 -0.5715 -0.0835 -0.3710
 6292TIP3    H140367   6.290   1.168   1.123 -0.0584 -1.2003  0.1422
 6292TIP3    H240368   6.335   1.083   1.006  0.4986 -0.4050 -0.2325
 6293TIP3   OH240369   4.092   4.170  16.032 -0.5923 -0.0289  0.4022
 6293TIP3    H140370   4.064   4.085  15.999  0.1433  0.1870 -0.8992
 6293TIP3    H240371   4.016   4.206  16.077 -1.9016 -0.1183 -1.6173
 6294TIP3   OH240372   6.120   6.194  14.052  0.7042 -0.6096 -0.1573
 6294TIP3    H140373   6.180   6.267  14.069  0.0799 -0.1563  0.1219
 6294TIP3    H240374   6.114   6.148  14.136  0.5775 -0.5926 -0.1570
 6295TIP3   OH240375   1.190   6.583  12.989 -0.0270 -0.2725  0.0416
 6295TIP3    H140376   1.195   6.586  13.084  0.7943 -0.3357  0.0044
 6295TIP3    H240377   1.245   6.509  12.964  0.7252  0.4541 -0.5383
 6296TIP3   OH240378   0.253   6.654  11.445 -0.3529  0.7837 -0.0170
 6296TIP3    H140379   0.198   6.602  11.387  0.8535  0.8011 -1.2471
 6296TIP3    H240380   0.217   6.742  11.439  0.6788  1.1373 -2.0816
 6297TIP3   OH240381   2.761   1.196   3.429  0.0519  0.1868  0.0789
 6297TIP3    H140382   2.805   1.162   3.351 -0.8027  0.2346 -0.4392
 6297TIP3    H240383   2.670   1.207   3.402 -0.4012 -0.4309  1.2831
 6298TIP3   OH240384   6.503   6.611  16.913 -0.6781  0.0184 -0.6070
 6298TIP3    H140385   6.504   6.705  16.933 -1.3615 -0.3261  1.2470
 6298TIP3    H240386   6.472   6.607  16.823  0.3752  1.6126 -1.0853
 6299TIP3   OH240387   2.765   1.004   2.650  0.3964 -0.5081 -0.4838
 6299TIP3    H140388   2.812   0.924   2.675  1.0487 -0.7077 -2.2659
 6299TIP3    H240389   2.720   0.982   2.568 -0.9476  0.4067 -0.0416
 6300TIP3   OH240390   3.501   6.689   4.490  0.4827 -0.4794 -0.7187
 6300TIP3    H140391   3.564   6.761   4.492  0.6089 -0.5979  0.6356
 6300TIP3    H240392   3.553   6.612   4.466  1.1439 -0.7958  1.5238
 6301TIP3   OH240393   3.382   2.374  14.181  0.3450 -0.0255 -0.3464
 6301TIP3    H140394   3.362   2.464  14.156 -0.9704  0.4327  2.0043
 6301TIP3    H240395   3.478   2.371  14.184  0.4206  1.5627  0.2575
 6302TIP3   OH240396   6.552   0.944   5.837  0.0476  0.3992  0.6082
 6302TIP3    H140397   6.601   0.975   5.761 -0.0490 -0.0446  0.3628
 6302TIP3    H240398   6.584   0.855   5.852 -1.3895 -0.2936 -0.1865
 6303TIP3   OH240399   4.129   5.437  12.961  0.4154 -0.1583 -0.0088
 6303TIP3    H140400   4.104   5.483  13.040 -0.7540  1.2716 -1.1581
 6303TIP3    H240401   4.051   5.438  12.906  1.5153 -0.0789 -1.6639
 6304TIP3   OH240402   3.710   4.430  11.596 -0.1975  0.1927  0.4811
 6304TIP3    H140403   3.736   4.347  11.557 -2.5494 -0.2485 -0.3064
 6304TIP3    H240404   3.716   4.415  11.690  0.3005 -0.5618  0.3341
 6305TIP3   OH240405   0.321   0.238  14.079  0.2740 -0.1505  0.4312
 6305TIP3    H140406   0.379   0.212  14.008  2.0722 -0.7470  2.0574
 6305TIP3    H240407   0.293   0.327  14.055  0.4460 -0.5008 -1.2161
 6306TIP3   OH240408   3.801   0.778  16.174 -0.2532 -0.5100  0.2049
 6306TIP3    H140409   3.886   0.779  16.220  0.5225 -1.5651 -1.1192
 6306TIP3    H240410   3.751   0.709  16.218 -0.2331 -0.2367  0.6630
 6307TIP3   OH240411   5.237   5.302  11.531 -0.1518 -0.5084 -0.1897
 6307TIP3    H140412   5.223   5.389  11.493  1.3772 -0.6988 -1.2828
 6307TIP3    H240413   5.193   5.243  11.470 -0.3419 -0.5721  0.0121
 6308TIP3   OH240414   0.888   0.870  15.454  0.4392 -0.0345  0.4577
 6308TIP3    H140415   0.900   0.962  15.431  0.4333 -0.0994  0.1914
 6308TIP3    H240416   0.798   0.850  15.427  0.4552 -0.1293  0.4744
 6309TIP3   OH240417   3.187   4.801   3.017  0.3426  0.3788 -0.2404
 6309TIP3    H140418   3.217   4.728   2.962  0.7501 -0.0819  0.5734
 6309TIP3    H240419   3.096   4.814   2.992  0.5891  0.3480 -1.2054
 6310TIP3   OH240420   5.829   2.550  12.136 -0.1755  0.1679 -0.1397
 6310TIP3    H140421   5.779   2.558  12.054 -0.4866 -1.1208 -0.1068
 6310TIP3    H240422   5.872   2.634  12.146  0.0837  0.2699 -1.7749
 6311TIP3   OH240423   2.805   4.416   4.523  0.2535 -0.1577 -0.1178
 6311TIP3    H140424   2.713   4.432   4.543  0.3906  1.1318 -0.4319
 6311TIP3    H240425   2.813   4.320   4.521 -0.9853 -0.2862  0.2914
 6312TIP3   OH240426   6.167   4.472  11.281  0.7533 -0.5005 -0.3093
 6312TIP3    H140427   6.150   4.557  11.324 -0.5990 -0.7580 -0.2689
 6312TIP3    H240428   6.163   4.492  11.187  1.0432 -0.4160 -0.3050
 6313TIP3   OH240429   0.163   1.404   0.051 -0.1286 -0.2886 -0.2669
 6313TIP3    H140430   0.083   1.401   0.103  0.9271  0.1311  1.4688
 6313TIP3    H240431   0.175   1.315   0.020 -1.0944 -0.4209 -0.2975
 6314TIP3   OH240432   0.713   4.559   0.537  0.1711  0.5811  0.4043
 6314TIP3    H140433   0.699   4.613   0.459 -0.1074 -0.1086 -0.0374
 6314TIP3    H240434   0.780   4.605   0.587 -0.8949  1.9559  0.6267
 6315TIP3   OH240435   4.104   0.440  13.839 -0.4180 -0.1118  0.1407
 6315TIP3    H140436   4.105   0.530  13.873 -0.1660 -0.4256  0.9880
 6315TIP3    H240437   4.080   0.450  13.747 -0.7496  0.7954  0.3119
 6316TIP3   OH240438   3.753   0.172   1.723 -0.1986  0.2576 -0.2497
 6316TIP3    H140439   3.698   0.246   1.748 -0.2970 -0.0597  0.5208
 6316TIP3    H240440   3.773   0.128   1.806 -1.3683 -1.4323 -0.8210
 6317TIP3   OH240441   3.430   3.071  11.562 -0.1414 -0.1216  0.7304
 6317TIP3    H140442   3.480   3.125  11.501 -0.1950  0.1152  0.8934
 6317TIP3    H240443   3.496   3.019  11.607 -0.1988 -1.1733 -0.3689
 6318TIP3   OH240444   3.103   3.462  11.598  0.0310  0.3696  0.0548
 6318TIP3    H140445   3.158   3.511  11.538  0.4085 -1.4554 -1.1595
 6318TIP3    H240446   3.028   3.434  11.546 -0.6116  0.3950  0.9399
 6319TIP3   OH240447   4.709   0.091  16.095  0.5687 -0.3157 -0.1200
 6319TIP3    H140448   4.801   0.116  16.088  0.5898 -0.1508  0.6878
 6319TIP3    H240449   4.672   0.149  16.161 -0.6513  1.0775 -1.9163
 6320TIP3   OH240450   2.817   1.671  11.518 -0.1812 -0.1610  0.2896
 6320TIP3    H140451   2.792   1.679  11.426  1.1753 -2.5889 -0.3611
 6320TIP3    H240452   2.903   1.712  11.523 -0.0484 -0.4498  0.3712
 6321TIP3   OH240453   1.869   0.954  12.104  0.0944  0.1463 -0.2111
 6321TIP3    H140454   1.853   1.022  12.039  0.6698  1.0431  0.5421
 6321TIP3    H240455   1.917   0.999  12.174  0.2856 -0.9885  0.4194
 6322TIP3   OH240456   2.006   0.673  15.634 -0.2400 -0.0478 -0.0649
 6322TIP3    H140457   1.935   0.624  15.674 -0.7345  1.6544  1.2908
 6322TIP3    H240458   1.981   0.682  15.542 -0.8610 -1.0245 -0.0001
 6323TIP3   OH240459   4.079   3.527   4.997  0.1691 -0.0454 -0.1544
 6323TIP3    H140460   4.134   3.516   5.074  1.1106  0.4174 -0.7409
 6323TIP3    H240461   4.038   3.441   4.984 -0.1552 -0.0678  0.9674
 6324TIP3   OH240462   2.244   3.924   1.713 -0.5101 -0.1648  0.3178
 6324TIP3    H140463   2.294   3.980   1.654 -1.6349  0.5642  0.0400
 6324TIP3    H240464   2.310   3.866   1.752  0.9083  2.2552  1.6974
 6325TIP3   OH240465   1.707   6.058   0.751 -0.1666  0.2146  0.0599
 6325TIP3    H140466   1.752   6.142   0.746 -0.3012  0.2881  0.0960
 6325TIP3    H240467   1.681   6.050   0.843 -0.0887  0.0989  0.0733
 6326TIP3   OH240468   3.029   5.909  15.670 -0.1657 -0.0701  0.1567
 6326TIP3    H140469   2.977   5.972  15.620 -0.0934 -0.2219 -0.1149
 6326TIP3    H240470   3.109   5.956  15.692  0.6162 -0.5706 -1.4723
 6327TIP3   OH240471   4.111   4.732  12.633 -0.4285  0.1270 -0.0429
 6327TIP3    H140472   4.084   4.817  12.665  1.7155  1.0938 -0.6044
 6327TIP3    H240473   4.180   4.704  12.693 -1.8876 -1.8382  0.8573
 6328TIP3   OH240474   5.081   6.615  12.988 -0.2953 -0.1093  0.4407
 6328TIP3    H140475   5.038   6.538  13.026 -0.1995 -0.5588 -0.3617
 6328TIP3    H240476   5.043   6.689  13.036 -0.2532 -0.6542  1.3476
 6329TIP3   OH240477   1.314   6.087  12.443 -0.3875 -0.0732 -0.4507
 6329TIP3    H140478   1.249   6.041  12.390  0.6488 -0.1501 -1.6952
 6329TIP3    H240479   1.380   6.021  12.463  0.6137  0.6098 -1.4187
 6330TIP3   OH240480   4.953   2.226   5.509 -0.1186 -0.3353  0.1528
 6330TIP3    H140481   4.909   2.280   5.575 -1.2234  0.0743 -0.8885
 6330TIP3    H240482   4.958   2.138   5.549 -1.4112 -0.2619  0.5009
 6331TIP3   OH240483   3.222   1.445   5.168  0.0308  0.2544 -0.6181
 6331TIP3    H140484   3.257   1.466   5.255 -0.4749  1.6537 -0.7240
 6331TIP3    H240485   3.258   1.513   5.111 -2.1541  1.2495 -0.8890
 6332TIP3   OH240486   0.516   2.097   5.971 -0.1368  0.7299 -0.0942
 6332TIP3    H140487   0.488   2.029   6.032 -0.5768  0.8151 -0.1979
 6332TIP3    H240488   0.443   2.159   5.969  1.1648  2.4396  1.7842
 6333TIP3   OH240489   2.258   6.346  14.901 -0.6176  0.3911 -0.2916
 6333TIP3    H140490   2.342   6.300  14.906 -1.3451 -0.8005  2.2332
 6333TIP3    H240491   2.281   6.436  14.876  1.3336 -0.0747 -0.2935
 6334TIP3   OH240492   6.659   1.616  12.196  0.2188 -0.3067  0.2030
 6334TIP3    H140493   6.702   1.575  12.120 -1.1850  0.1759 -0.8953
 6334TIP3    H240494   6.597   1.550  12.227 -0.9784  0.3678 -0.6478
 6335TIP3   OH240495   4.335   3.356   4.126 -0.2514 -0.3500 -0.3182
 6335TIP3    H140496   4.386   3.296   4.072 -0.9540 -0.5349 -0.7870
 6335TIP3    H240497   4.272   3.395   4.066 -1.7763 -1.3579  0.5622
 6336TIP3   OH240498   4.817   5.998  13.510  0.0702 -0.6882 -0.2620
 6336TIP3    H140499   4.830   6.092  13.523 -0.7022 -0.7345  1.0906
 6336TIP3    H240500   4.795   5.990  13.418  2.4737  0.1580 -0.9853
 6337TIP3   OH240501   4.151   2.579  12.101  0.4066  0.3785 -0.3247
 6337TIP3    H140502   4.222   2.554  12.161  0.8812 -0.2041 -1.1076
 6337TIP3    H240503   4.167   2.672  12.083 -0.3578  0.8483  1.2534
 6338TIP3   OH240504   4.526   5.283  11.883  0.3355  0.3110  0.5926
 6338TIP3    H140505   4.432   5.285  11.862  0.2042  0.8268  1.1952
 6338TIP3    H240506   4.547   5.373  11.907  0.7041 -0.0371  1.6543
 6339TIP3   OH240507   4.548   3.043   1.517  0.4471 -0.3360  0.3012
 6339TIP3    H140508   4.594   3.004   1.591 -0.6186 -1.4948  0.3723
 6339TIP3    H240509   4.570   3.136   1.522 -0.6727 -0.1142  2.9094
 6340TIP3   OH240510   4.636   0.729   5.497  0.5650  0.6356  0.5279
 6340TIP3    H140511   4.664   0.646   5.535  0.5560 -0.4110 -1.5858
 6340TIP3    H240512   4.705   0.751   5.435 -0.0286  1.5756  0.1859
 6341TIP3   OH240513   3.181   5.675   2.462  0.2461  0.6427 -0.6836
 6341TIP3    H140514   3.244   5.720   2.519  1.0190  0.3093 -1.2474
 6341TIP3    H240515   3.121   5.631   2.522  0.9102  0.4881 -0.1215
 6342TIP3   OH240516   1.576   6.205   6.134  0.0879 -0.1301 -0.2795
 6342TIP3    H140517   1.640   6.203   6.063  0.1224  1.4784 -0.3264
 6342TIP3    H240518   1.585   6.120   6.177  4.8014  1.1739  1.9476
 6343TIP3   OH240519   2.325   4.740  13.436  0.4242 -0.1616 -0.6571
 6343TIP3    H140520   2.380   4.767  13.510 -0.9967  0.4434  0.2022
 6343TIP3    H240521   2.328   4.815  13.377 -0.9176  0.6366  0.2408
 6344TIP3   OH240522   2.542   5.508  12.351 -0.1233  0.3151  0.2405
 6344TIP3    H140523   2.464   5.460  12.325 -0.1623  0.5161 -0.0104
 6344TIP3    H240524   2.537   5.591  12.304  0.2602  0.3146  0.1936
 6345TIP3   OH240525   3.006   3.761  15.579 -0.5678 -0.2075 -0.1488
 6345TIP3    H140526   2.981   3.742  15.669 -1.2181  2.0745  0.2316
 6345TIP3    H240527   2.926   3.747  15.529 -0.6062 -0.0617 -0.1289
 6346TIP3   OH240528   0.898   5.658  15.594 -0.0665 -0.0371 -0.2058
 6346TIP3    H140529   0.985   5.639  15.557  0.8875 -0.4415  2.0424
 6346TIP3    H240530   0.844   5.584  15.565 -0.4212  1.3690 -3.5948
 6347TIP3   OH240531   1.770   0.184   1.666 -0.5756 -0.1360  0.4681
 6347TIP3    H140532   1.781   0.110   1.607 -0.7188  1.0518 -1.1181
 6347TIP3    H240533   1.858   0.201   1.700  0.1199  0.8540 -1.6046
 6348TIP3   OH240534   3.572   3.890   1.823 -0.2589 -0.8133  0.0187
 6348TIP3    H140535   3.603   3.977   1.848 -2.0850 -0.0074 -0.2923
 6348TIP3    H240536   3.641   3.855   1.766  0.2623  0.6800 -0.3130
 6349TIP3   OH240537   1.295   2.531  16.047 -0.0028  0.0453 -0.3133
 6349TIP3    H140538   1.297   2.436  16.046 -0.0237  0.0489 -1.2747
 6349TIP3    H240539   1.368   2.558  15.992  0.1271  0.5871  0.1165
 6350TIP3   OH240540   1.288   1.391  12.811 -0.0503 -0.0586 -0.1318
 6350TIP3    H140541   1.275   1.467  12.753 -1.3653 -0.2134 -0.0745
 6350TIP3    H240542   1.324   1.428  12.891 -1.3323  0.6142  0.1522
 6351TIP3   OH240543   1.661   5.535   2.494  0.4809 -0.7009 -0.3368
 6351TIP3    H140544   1.665   5.614   2.548  0.8559 -0.0399 -1.2920
 6351TIP3    H240545   1.567   5.517   2.485  0.4207 -0.9539  0.7026
 6352TIP3   OH240546   3.772   0.762  16.593  0.2960 -0.2180  0.1963
 6352TIP3    H140547   3.725   0.820  16.533 -0.0850  0.3302  0.9978
 6352TIP3    H240548   3.754   0.799  16.680 -1.1881 -2.3615  0.8821
 6353TIP3   OH240549   6.586   1.971   1.512 -0.5227 -0.0562 -0.3375
 6353TIP3    H140550   6.603   2.065   1.512  2.9649 -0.5220 -2.1662
 6353TIP3    H240551   6.645   1.936   1.579 -1.6411 -1.0306  0.1837
 6354TIP3   OH240552   6.021   1.226  11.313  0.0048 -0.4058  0.7832
 6354TIP3    H140553   6.084   1.238  11.242 -0.9764  2.8064  0.2968
 6354TIP3    H240554   6.067   1.257  11.391 -0.2979  0.1359  0.7556
 6355TIP3   OH240555   3.866   2.770  16.557  0.4023  0.0705 -0.0108
 6355TIP3    H140556   3.816   2.852  16.558 -0.3529 -0.3736 -0.3280
 6355TIP3    H240557   3.920   2.774  16.635 -0.2716  0.4842  0.4472
 6356TIP3   OH240558   4.801   5.618   5.758 -0.8048 -0.0176  0.3991
 6356TIP3    H140559   4.788   5.676   5.833  0.9398  0.7932  0.1237
 6356TIP3    H240560   4.871   5.559   5.786 -2.3457 -1.8783  0.5659
 6357TIP3   OH240561   6.622   0.198   0.824  0.5664 -0.2096  0.0363
 6357TIP3    H140562   6.687   0.224   0.759  2.1943 -0.3294  1.5433
 6357TIP3    H240563   6.599   0.108   0.801  1.4023 -0.3736 -0.1828
 6358TIP3   OH240564   1.767   3.332   4.526  0.0688  0.3664  0.0638
 6358TIP3    H140565   1.828   3.341   4.599  0.7742 -0.5869 -0.3941
 6358TIP3    H240566   1.819   3.298   4.454 -1.2511 -1.9245  0.0841
 6359TIP3   OH240567   4.083   1.049  11.253  0.1391 -0.6749 -0.0631
 6359TIP3    H140568   4.111   1.074  11.165 -0.3543  1.8302  0.3982
 6359TIP3    H240569   4.160   1.008  11.292  1.8100  1.9289 -0.3447
 6360TIP3   OH240570   2.951   1.187   1.804  0.1401  0.0631  0.5366
 6360TIP3    H140571   2.955   1.270   1.756 -0.1232  0.0646  0.5160
 6360TIP3    H240572   3.036   1.180   1.848 -0.4328  1.1195  1.8504
 6361TIP3   OH240573   5.352   0.536  11.990 -0.0798  0.3066 -0.0239
 6361TIP3    H140574   5.417   0.604  12.009  1.2871 -1.3510  1.5382
 6361TIP3    H240575   5.385   0.493  11.911 -0.3699  0.7483 -0.3898
 6362TIP3   OH240576   6.305   1.019  16.612  0.0286  0.1260 -0.4936
 6362TIP3    H140577   6.371   1.086  16.597 -1.3583  2.1373  1.6796
 6362TIP3    H240578   6.319   0.991  16.703 -3.0185  1.9171  0.6994
 6363TIP3   OH240579   2.267   2.896  14.266  0.7581 -0.3785 -0.1263
 6363TIP3    H140580   2.324   2.890  14.343  0.8415 -2.1371 -0.2944
 6363TIP3    H240581   2.196   2.835  14.284  1.0443 -1.2155 -1.6551
 6364TIP3   OH240582   0.915   3.255   0.723  0.3743  0.4699  0.3846
 6364TIP3    H140583   0.867   3.234   0.642 -0.2796  0.8874  0.6647
 6364TIP3    H240584   0.847   3.265   0.789  0.9043  0.2818  0.9605
 6365TIP3   OH240585   0.078   0.564   3.438  0.0843 -0.2110 -0.4487
 6365TIP3    H140586   0.074   0.654   3.470  2.0321  0.2146 -1.2658
 6365TIP3    H240587   0.090   0.510   3.516 -0.9240  0.2196  0.0233
 6366TIP3   OH240588   4.802   4.504  14.725 -0.0080 -0.1437  0.0744
 6366TIP3    H140589   4.711   4.527  14.743 -0.1638 -1.3942  1.0120
 6366TIP3    H240590   4.813   4.517  14.631 -0.9427  0.7063  0.0721
 6367TIP3   OH240591   4.685   5.013  14.383  0.1626 -0.5303  0.1611
 6367TIP3    H140592   4.699   5.089  14.327 -1.2996 -0.0140  0.4616
 6367TIP3    H240593   4.590   5.001  14.384  0.3581 -2.3522  0.1346
 6368TIP3   OH240594   5.001   6.597  14.648  0.1139  0.3121 -0.3147
 6368TIP3    H140595   5.069   6.569  14.587 -0.7278  0.0111 -1.1430
 6368TIP3    H240596   4.957   6.516  14.674  1.6662  0.1912  2.2415
 6369TIP3   OH240597   6.349   0.383  15.056  0.0119  0.1229 -0.5633
 6369TIP3    H140598   6.407   0.452  15.087 -0.5353  0.6718 -0.7255
 6369TIP3    H240599   6.267   0.398  15.103 -0.8373  0.9757 -2.2306
 6370TIP3   OH240600   1.602   4.830  16.113 -0.2364 -0.1027 -0.2167
 6370TIP3    H140601   1.551   4.905  16.083  0.2953 -0.2822 -1.6043
 6370TIP3    H240602   1.692   4.862  16.120  0.2482 -0.9053 -2.1251
 6371TIP3   OH240603   2.145   3.166   3.325  0.5114  0.2395 -0.1865
 6371TIP3    H140604   2.230   3.209   3.333 -0.5000  2.7053 -1.4861
 6371TIP3    H240605   2.109   3.201   3.243 -1.1522 -1.8575 -0.4203
 6372TIP3   OH240606   5.257   6.586   2.072 -0.0404 -0.0668 -0.1851
 6372TIP3    H140607   5.296   6.663   2.115  1.3246 -0.8863  0.0927
 6372TIP3    H240608   5.166   6.611   2.057 -0.1139  0.9071  1.6275
 6373TIP3   OH240609   6.258   5.885   2.018 -0.1773 -0.0672  0.0409
 6373TIP3    H140610   6.249   5.975   2.050  0.1501 -0.3001  0.8111
 6373TIP3    H240611   6.208   5.833   2.081  0.9338 -0.5990  0.5103
 6374TIP3   OH240612   2.206   1.257   0.273  0.0489  0.1027 -0.0414
 6374TIP3    H140613   2.144   1.324   0.301 -0.7801 -1.1343  1.2025
 6374TIP3    H240614   2.157   1.203   0.210 -0.0901 -0.7508  0.7831
 6375TIP3   OH240615   1.164   3.965  14.726 -0.0708  0.0656  0.0350
 6375TIP3    H140616   1.171   4.007  14.641  0.4004 -1.7123 -0.8582
 6375TIP3    H240617   1.088   3.907  14.718 -0.9646  0.9908  1.3644
 6376TIP3   OH240618   5.715   3.833  16.192 -0.0079  0.1775 -0.0608
 6376TIP3    H140619   5.726   3.859  16.284  1.9939  0.2961 -0.2935
 6376TIP3    H240620   5.803   3.813  16.162 -0.4405  1.3369 -2.3385
 6377TIP3   OH240621   6.407   2.370   2.442 -0.2692 -0.3417  0.2163
 6377TIP3    H140622   6.364   2.300   2.492  1.1959 -1.1599  0.3875
 6377TIP3    H240623   6.397   2.448   2.496  0.7271 -1.0768  1.5052
 6378TIP3   OH240624   5.222   6.516  12.162 -0.5108  0.1136  0.0222
 6378TIP3    H140625   5.255   6.549  12.078  0.6803  1.8623  1.0936
 6378TIP3    H240626   5.301   6.493  12.211 -0.9715  1.7861  1.6613
 6379TIP3   OH240627   5.281   6.377   4.037  0.4509  0.5272  0.0677
 6379TIP3    H140628   5.231   6.451   4.002  0.7650  1.8785  2.2820
 6379TIP3    H240629   5.367   6.384   3.994 -0.7629 -1.2062 -2.9784
 6380TIP3   OH240630   1.833   0.662   4.545 -0.4030 -0.3627  0.8366
 6380TIP3    H140631   1.787   0.709   4.615  1.2473  3.5402 -0.4061
 6380TIP3    H240632   1.785   0.682   4.466  0.3760 -0.7653  0.2449
 6381TIP3   OH240633   4.020   5.586  13.878 -0.3652 -0.3124 -0.2171
 6381TIP3    H140634   3.948   5.649  13.879  0.7940  1.1881  2.7222
 6381TIP3    H240635   4.098   5.638  13.863  0.3774 -1.5257 -0.7449
 6382TIP3   OH240636   5.403   0.837   3.227  0.4542  0.2862  0.0447
 6382TIP3    H140637   5.308   0.835   3.217  0.4382  3.0738 -1.4593
 6382TIP3    H240638   5.417   0.836   3.322 -1.2685  2.1859  0.3829
 6383TIP3   OH240639   2.351   5.103   1.757  0.2617  0.0858  0.0939
 6383TIP3    H140640   2.445   5.113   1.765  0.0655  0.4894  2.5883
 6383TIP3    H240641   2.331   5.023   1.806 -0.5846 -0.6429 -1.3848
 6384TIP3   OH240642   1.883   3.287  13.890 -0.0051 -0.0236 -0.0076
 6384TIP3    H140643   1.892   3.196  13.864  1.2624  0.2936 -0.7762
 6384TIP3    H240644   1.795   3.312  13.860 -0.8043 -1.2609  1.1874
 6385TIP3   OH240645   2.546   0.457  12.921  0.0415  0.1001  0.6032
 6385TIP3    H140646   2.491   0.458  12.998  0.6070  1.7493  1.0235
 6385TIP3    H240647   2.509   0.523  12.863  0.3506 -0.2501 -0.0121
 6386TIP3   OH240648   3.179   4.412   3.604  0.1591 -0.2306 -0.1578
 6386TIP3    H140649   3.260   4.382   3.645  1.7827  2.5804 -1.0411
 6386TIP3    H240650   3.151   4.487   3.657 -0.6955  0.1212 -1.0731
 6387TIP3   OH240651   3.525   1.036   1.248 -0.1888  0.4194 -0.1136
 6387TIP3    H140652   3.539   1.098   1.319 -1.5086  0.2314  0.3249
 6387TIP3    H240653   3.504   0.954   1.291  0.0725  0.0269 -0.7145
 6388TIP3   OH240654   2.831   5.912   2.049  0.3071 -0.4516 -0.1882
 6388TIP3    H140655   2.901   5.972   2.022  0.2287 -1.0929 -1.9439
 6388TIP3    H240656   2.779   5.963   2.112  4.0764 -0.9400  3.8173
 6389TIP3   OH240657   4.986   2.673   1.577 -0.6111  0.3695 -0.6420
 6389TIP3    H140658   4.914   2.611   1.580 -0.6878  0.4728 -0.0515
 6389TIP3    H240659   5.057   2.630   1.624 -0.0842  0.0311 -1.7185
 6390TIP3   OH240660   1.489   6.650  11.825 -0.1288 -0.4597 -0.2615
 6390TIP3    H140661   1.581   6.633  11.844 -0.4983 -5.5457 -1.6732
 6390TIP3    H240662   1.441   6.605  11.895 -1.5687  0.4489 -0.6137
 6391TIP3   OH240663   5.591   4.274  16.727  0.2249  0.8088  0.2889
 6391TIP3    H140664   5.507   4.233  16.748  0.6770 -1.1813 -1.4108
 6391TIP3    H240665   5.587   4.360  16.767 -0.7647 -0.8823  4.2973
 6392TIP3   OH240666   3.740   5.430   0.768  0.0127 -0.3885 -0.0415
 6392TIP3    H140667   3.805   5.411   0.836 -3.2273 -2.4207  2.8594
 6392TIP3    H240668   3.744   5.525   0.757  1.4171 -0.0883  2.2877
 6393TIP3   OH240669   3.882   0.620   2.403  0.5739  0.3129  0.6687
 6393TIP3    H140670   3.803   0.578   2.437  0.0673 -0.0773 -0.9041
 6393TIP3    H240671   3.947   0.550   2.398 -0.2908 -0.4236 -2.0175
 6394TIP3   OH240672   3.607   4.290  16.910  0.0656  0.1270 -0.2193
 6394TIP3    H140673   3.523   4.331  16.888 -0.4172 -0.2176  0.8938
 6394TIP3    H240674   3.630   4.239  16.832 -0.8087  0.1690 -0.5139
 6395TIP3   OH240675   1.487   4.548   1.192 -0.2442  0.4717  0.0237
 6395TIP3    H140676   1.474   4.643   1.196 -0.9334  0.4016 -0.4227
 6395TIP3    H240677   1.399   4.511   1.202  0.0487 -0.1334  0.4499
 6396TIP3   OH240678   4.773   5.091   0.543  0.3423 -0.2196 -0.1160
 6396TIP3    H140679   4.734   5.098   0.631  0.7329 -2.1885  0.2687
 6396TIP3    H240680   4.712   5.035   0.495  1.3229 -1.1416 -0.3268
 6397TIP3   OH240681   2.071   0.063   2.145 -0.1271  1.0086 -0.1624
 6397TIP3    H140682   2.095   0.008   2.070 -0.1242  0.8326 -0.0334
 6397TIP3    H240683   1.976   0.055   2.151  0.1208 -1.7135  1.9138
 6398TIP3   OH240684   6.639   2.647   0.652  0.4982  0.4851  0.5769
 6398TIP3    H140685   6.580   2.721   0.639  3.2698  2.5919 -0.8284
 6398TIP3    H240686   6.724   2.686   0.671  2.0820 -2.3275 -0.1876
 6399TIP3   OH240687   1.897   1.052   0.800  0.2428 -0.0054 -1.1349
 6399TIP3    H140688   1.845   1.112   0.854  2.6758  1.0296  0.1836
 6399TIP3    H240689   1.926   0.984   0.861 -1.9583 -2.3470 -2.4781
 6400TIP3   OH240690   5.382   1.102  14.867 -0.0053  0.3884 -0.1126
 6400TIP3    H140691   5.314   1.105  14.934  0.2540 -1.3063  0.2719
 6400TIP3    H240692   5.342   1.052  14.795  0.0396  1.4000 -0.8658
 6401TIP3   OH240693   6.670   6.538   5.892  0.1107 -0.3353 -0.4810
 6401TIP3    H140694   6.592   6.590   5.872  1.3266  1.2439 -1.3481
 6401TIP3    H240695   6.698   6.569   5.978 -1.2019 -2.2377  0.7228
 6402TIP3   OH240696   4.896   3.125  16.231 -0.2083 -0.1633  1.1018
 6402TIP3    H140697   4.894   3.158  16.141 -0.1919 -1.1064  0.7519
 6402TIP3    H240698   4.846   3.044  16.228  1.0226 -0.9607  1.6260
 6403TIP3   OH240699   4.343   1.892  15.552 -0.0269  0.4449  0.4156
 6403TIP3    H140700   4.379   1.875  15.638  0.3983 -3.1915 -0.3499
 6403TIP3    H240701   4.351   1.987  15.541  3.7760  0.5587  2.6595
 6404TIP3   OH240702   6.402   2.593  15.947  0.4870  0.0394 -0.0368
 6404TIP3    H140703   6.308   2.592  15.966  0.5443 -1.5934  0.2935
 6404TIP3    H240704   6.416   2.517  15.890  1.7787 -0.3676  0.7793
 6405TIP3   OH240705   2.353   0.703   2.027 -0.6634 -0.3296  0.2625
 6405TIP3    H140706   2.425   0.706   2.091 -0.5310 -0.8480  0.1417
 6405TIP3    H240707   2.299   0.779   2.049  1.4345  1.8056 -1.4659
 6406TIP3   OH240708   3.306   2.395   4.525  0.0532  0.6680  0.3283
 6406TIP3    H140709   3.365   2.425   4.594 -0.5384 -0.0038  1.1439
 6406TIP3    H240710   3.351   2.417   4.444  1.1803  0.6557  0.9340
 6407TIP3   OH240711   2.819   4.582   3.656  0.2766  0.5398  0.1320
 6407TIP3    H140712   2.780   4.662   3.691  0.3265  1.2061 -1.2680
 6407TIP3    H240713   2.913   4.595   3.665  0.2753  0.4989  0.2044
 6408TIP3   OH240714   4.074   1.656  10.853  0.2092  0.9585  0.1700
 6408TIP3    H140715   4.155   1.682  10.898  0.7979 -0.8272  0.2287
 6408TIP3    H240716   4.099   1.652  10.761 -0.3869  2.3812 -0.0783
 6409TIP3   OH240717   6.619   0.441  13.862 -0.5334  0.3770 -0.0766
 6409TIP3    H140718   6.530   0.441  13.898 -0.7052  1.2060 -0.4819
 6409TIP3    H240719   6.663   0.514  13.906  0.1520 -0.4124  0.5867
 6410TIP3   OH240720   1.991   4.696   4.766 -0.6738 -0.0037 -0.5774
 6410TIP3    H140721   1.995   4.735   4.678 -1.4997  0.7328 -0.3009
 6410TIP3    H240722   1.984   4.771   4.825 -1.1294 -0.5351  0.0546
 6411TIP3   OH240723   5.537   6.178   5.257 -0.0047  0.0767 -0.2802
 6411TIP3    H140724   5.616   6.210   5.214  0.2334  0.8305  0.6743
 6411TIP3    H240725   5.521   6.241   5.327 -1.4926 -0.0451 -0.4889
 6412TIP3   OH240726   5.008   0.154  12.011  0.0344  0.1109  0.2947
 6412TIP3    H140727   5.030   0.129  11.921 -0.7533 -1.1295  0.4245
 6412TIP3    H240728   4.980   0.245  12.005  0.5613  0.2235 -0.6178
 6413TIP3   OH240729   5.613   6.849  14.473  0.3815 -0.5000 -0.1088
 6413TIP3    H140730   5.670   6.925  14.487  0.4226 -0.5169 -0.1821
 6413TIP3    H240731   5.601   6.811  14.560  0.6353 -0.6053 -0.1197
 6414TIP3   OH240732   6.363   3.143   1.699 -0.5410  0.4093 -0.0388
 6414TIP3    H140733   6.305   3.219   1.699 -1.4181 -0.2329 -1.0647
 6414TIP3    H240734   6.312   3.073   1.657  0.1764 -0.8100  1.0357
 6415TIP3   OH240735   0.881   0.618  13.433 -0.4078 -0.1722 -0.3538
 6415TIP3    H140736   0.797   0.662  13.419 -0.2840  0.4874  0.8754
 6415TIP3    H240737   0.902   0.580  13.347 -1.4679  0.4975 -0.9371
 6416TIP3   OH240738   0.223   5.430   5.025 -0.4433 -0.4432 -0.5705
 6416TIP3    H140739   0.289   5.430   5.094  0.6940  1.7137 -1.5587
 6416TIP3    H240740   0.142   5.405   5.069  0.7848 -1.9816  0.9227
 6417TIP3   OH240741   3.593   5.223   0.057  0.0092  0.5474 -0.2463
 6417TIP3    H140742   3.611   5.136   0.021 -0.9262  0.2389  0.0057
 6417TIP3    H240743   3.592   5.210   0.152 -0.0627  0.8490 -0.2057
 6418TIP3   OH240744   0.565   3.756   5.145 -0.2504  0.0894 -0.0342
 6418TIP3    H140745   0.508   3.679   5.144  0.6638 -0.6248  1.2422
 6418TIP3    H240746   0.524   3.815   5.207 -0.3387  0.1660 -0.1636
 6419TIP3   OH240747   1.116   3.324   0.430  0.6522  0.1540 -0.0569
 6419TIP3    H140748   1.046   3.264   0.456 -0.0339  0.0638 -1.9551
 6419TIP3    H240749   1.071   3.406   0.410  1.1992  0.3747 -0.3972
 6420TIP3   OH240750   3.272   1.317  12.297  0.2579 -0.0108  0.0886
 6420TIP3    H140751   3.314   1.265  12.365  0.7864 -0.0230 -0.2353
 6420TIP3    H240752   3.252   1.254  12.227 -0.5392 -0.0507  0.3415
 6421TIP3   OH240753   1.456   5.320   5.339  0.3499 -0.3079 -0.2709
 6421TIP3    H140754   1.530   5.377   5.358  1.4366 -1.9987  0.8977
 6421TIP3    H240755   1.453   5.260   5.414 -1.3055 -1.2031 -1.0040
 6422TIP3   OH240756   3.613   1.900   2.137 -0.3767 -0.7262 -0.5858
 6422TIP3    H140757   3.641   1.924   2.049 -2.5454  1.9828 -0.6905
 6422TIP3    H240758   3.647   1.970   2.193  0.2778 -1.9769  0.6366
 6423TIP3   OH240759   6.712   1.093  12.277 -0.6273 -0.0956 -0.8291
 6423TIP3    H140760   6.714   1.183  12.308 -0.9475  0.0903 -1.3420
 6423TIP3    H240761   6.641   1.052  12.327  0.1508 -0.3429  0.1241
 6424TIP3   OH240762   5.615   3.672   3.476  0.4480  0.6111 -0.0495
 6424TIP3    H140763   5.686   3.659   3.538 -0.1171 -0.8412  0.3301
 6424TIP3    H240764   5.560   3.739   3.516  1.0282  0.9726  0.1560
 6425TIP3   OH240765   3.859   0.353   1.549  0.4103 -0.3267 -0.3913
 6425TIP3    H140766   3.954   0.345   1.538  0.7235  1.9027  0.1415
 6425TIP3    H240767   3.836   0.283   1.610  1.2783 -2.3818 -2.3014
 6426TIP3   OH240768   2.290   0.181   4.083 -0.2074 -0.3644 -0.2998
 6426TIP3    H140769   2.344   0.242   4.033 -1.6272  0.0366 -1.3862
 6426TIP3    H240770   2.346   0.155   4.157  1.7730 -0.6267 -1.8217
 6427TIP3   OH240771   3.184   6.834   3.606 -0.0068 -0.4655 -0.0602
 6427TIP3    H140772   3.099   6.838   3.649  0.0577  1.0574 -0.0042
 6427TIP3    H240773   3.207   6.926   3.590  0.1770 -0.9297 -2.9659
 6428TIP3   OH240774   4.058   4.022   3.253  0.3577 -0.3082  0.2656
 6428TIP3    H140775   3.963   4.017   3.244  0.0991  0.0334  2.2163
 6428TIP3    H240776   4.079   4.113   3.234 -0.1202  0.3276  2.5163
 6429TIP3   OH240777   3.207   3.012  11.005 -0.8258  0.4325  0.3143
 6429TIP3    H140778   3.206   3.067  11.083  0.1059 -0.1405  0.7504
 6429TIP3    H240779   3.263   3.059  10.943  0.2643 -0.1513  0.8148
 6430TIP3   OH240780   1.644   3.425  14.166  0.9091 -0.3244 -0.0622
 6430TIP3    H140781   1.605   3.351  14.120  2.2642 -1.8792  1.1471
 6430TIP3    H240782   1.570   3.470  14.207  0.1893 -2.1662  0.7795
 6431TIP3   OH240783   4.349   1.802   3.341  0.2999  0.3512 -0.2780
 6431TIP3    H140784   4.289   1.786   3.268  0.5396 -0.7202 -0.2603
 6431TIP3    H240785   4.409   1.868   3.310 -1.8069  2.6711  0.2294
 6432TIP3   OH240786   1.439   2.505   4.697  0.2003  0.3043 -0.5115
 6432TIP3    H140787   1.488   2.433   4.658 -0.1196  0.2341 -0.7921
 6432TIP3    H240788   1.356   2.466   4.724  0.0827  0.5338 -0.5326
 6433TIP3   OH240789   4.040   2.318  12.877  0.5493 -0.3222  0.2748
 6433TIP3    H140790   3.995   2.357  12.952 -0.0131 -2.7108  1.2740
 6433TIP3    H240791   3.982   2.336  12.802  0.5968  1.1773  0.5751
 6434TIP3   OH240792   4.512   6.041  12.962 -0.1854  0.5409 -0.1527
 6434TIP3    H140793   4.565   6.008  13.035  4.3986  2.0188 -2.4046
 6434TIP3    H240794   4.507   5.968  12.901  1.4161  1.0094 -0.9054
 6435TIP3   OH240795   6.589   4.986  10.889  0.3883  0.0004  0.5221
 6435TIP3    H140796   6.568   5.066  10.842  0.4025 -0.2528  0.0825
 6435TIP3    H240797   6.660   5.011  10.949  0.6891  0.2181  0.0818
 6436TIP3   OH240798   5.410   4.073   0.887 -0.1219 -0.4093  0.2357
 6436TIP3    H140799   5.462   4.101   0.811 -2.0519  0.5529 -0.8232
 6436TIP3    H240800   5.464   4.094   0.963  0.5647  1.6597 -0.7574
 6437TIP3   OH240801   0.728   2.059   3.129  0.0222  0.3309 -0.0418
 6437TIP3    H140802   0.661   2.128   3.124 -0.0241  0.3573  0.8129
 6437TIP3    H240803   0.810   2.107   3.144  0.1536  0.2611 -0.5181
 6438TIP3   OH240804   3.105   2.916   1.774  0.1103  0.9716  0.3633
 6438TIP3    H140805   3.054   2.846   1.814  0.9642  1.4211  2.3793
 6438TIP3    H240806   3.175   2.934   1.838  0.5851  2.8642 -0.6148
 6439TIP3   OH240807   0.375   0.380  15.453 -0.0666  0.2645 -0.0892
 6439TIP3    H140808   0.308   0.329  15.408 -0.5313  1.2514 -0.5421
 6439TIP3    H240809   0.399   0.449  15.391 -0.6340  1.5937  1.0939
 6440TIP3   OH240810   1.516   1.586  14.124  0.7522 -1.0612  0.7205
 6440TIP3    H140811   1.511   1.601  14.030  2.4046  0.4426  0.8110
 6440TIP3    H240812   1.564   1.503  14.133 -0.7850 -2.0356  0.2678
 6441TIP3   OH240813   5.951   5.537  12.392  0.2074  0.2212 -0.3682
 6441TIP3    H140814   5.917   5.562  12.478  1.2479 -0.9647  0.4207
 6441TIP3    H240815   5.944   5.442  12.389 -0.7998  0.3081 -2.0556
 6442TIP3   OH240816   2.220   4.693   5.222  0.0312 -0.0985  0.1968
 6442TIP3    H140817   2.187   4.777   5.191 -0.3562  0.2309  1.4354
 6442TIP3    H240818   2.206   4.633   5.149  0.2980  0.8955 -0.7036
 6443TIP3   OH240819   2.484   1.489  14.454  0.5172 -0.2401  0.2333
 6443TIP3    H140820   2.549   1.544  14.410  0.6275 -0.1013  0.5613
 6443TIP3    H240821   2.480   1.524  14.543 -0.8412  0.4954 -0.0881
 6444TIP3   OH240822   0.896   4.627  12.780 -1.1148  0.3100  0.5475
 6444TIP3    H140823   0.825   4.566  12.801  0.6089 -2.0853 -0.1836
 6444TIP3    H240824   0.956   4.621  12.854 -0.1403 -0.1540 -0.2562
 6445TIP3   OH240825   0.458   6.042   2.943  0.1781  0.7237 -0.1534
 6445TIP3    H140826   0.499   5.964   2.979 -0.7530  0.3786  0.1762
 6445TIP3    H240827   0.508   6.060   2.863  0.2114 -0.3788 -0.3929
 6446TIP3   OH240828   6.111   2.344  15.619 -0.2693  0.1425 -0.0078
 6446TIP3    H140829   6.168   2.324  15.693 -0.4445 -1.9945 -0.3905
 6446TIP3    H240830   6.170   2.348  15.543 -0.3807 -0.0166 -0.1029
 6447TIP3   OH240831   4.475   5.747  16.210  0.6447 -0.3362  0.1326
 6447TIP3    H140832   4.462   5.834  16.247  1.1823 -0.3154  0.2751
 6447TIP3    H240833   4.518   5.697  16.279  0.6488 -0.6177 -0.0682
 6448TIP3   OH240834   5.905   6.382  14.295  0.1691  0.3105 -0.0747
 6448TIP3    H140835   5.915   6.317  14.364  2.0751 -0.4267 -0.9678
 6448TIP3    H240836   5.982   6.370  14.239 -0.2113  2.3134 -1.1361
 6449TIP3   OH240837   3.052   0.568   4.600  0.3016 -0.6881 -0.5028
 6449TIP3    H140838   3.035   0.476   4.619 -1.3895 -0.2865  0.1028
 6449TIP3    H240839   3.101   0.600   4.676  1.2653 -1.1498 -0.9024
 6450TIP3   OH240840   4.983   5.844   0.107 -0.3050 -0.1690  0.1123
 6450TIP3    H140841   5.060   5.792   0.130  0.6787  1.9634  2.0627
 6450TIP3    H240842   4.909   5.791   0.136  0.7159  0.0031  3.3947
 6451TIP3   OH240843   6.825   3.747  13.619  0.1055  0.0522 -0.2331
 6451TIP3    H140844   6.902   3.691  13.629  0.3439  0.5847  0.9922
 6451TIP3    H240845   6.751   3.687  13.634  0.0480 -1.1259 -4.1221
 6452TIP3   OH240846   1.733   6.107   3.823  0.1450  0.2144 -0.9080
 6452TIP3    H140847   1.784   6.179   3.860 -0.0290 -0.0694 -0.1033
 6452TIP3    H240848   1.755   6.031   3.877 -0.3192 -0.1500 -1.2176
 6453TIP3   OH240849   3.433   3.723   1.268  0.1665  0.1212  0.3734
 6453TIP3    H140850   3.394   3.810   1.282 -1.0361 -0.3053 -0.2171
 6453TIP3    H240851   3.387   3.688   1.192  3.0113  0.3287 -1.6032
 6454TIP3   OH240852   1.180   2.632   0.990 -0.3582 -0.2730  0.0063
 6454TIP3    H140853   1.091   2.666   0.979 -0.4920 -1.0233 -1.6961
 6454TIP3    H240854   1.168   2.550   1.039 -0.5185  0.0062  0.4356
 6455TIP3   OH240855   2.910   3.933   3.036  0.1115  0.1743  0.2604
 6455TIP3    H140856   2.851   3.895   2.971  0.1876 -0.7257  0.7087
 6455TIP3    H240857   2.998   3.917   3.001  0.1353  0.2477  0.2852
 6456TIP3   OH240858   4.015   1.195   4.246  0.0607 -0.6398  0.1411
 6456TIP3    H140859   3.980   1.118   4.200 -1.9337 -0.9526  2.0018
 6456TIP3    H240860   4.097   1.165   4.284  0.4582 -1.1272 -1.0634
 6457TIP3   OH240861   1.568   1.651   2.326 -0.2788 -0.1920 -0.2570
 6457TIP3    H140862   1.588   1.574   2.273 -0.5782  0.1459 -0.8686
 6457TIP3    H240863   1.555   1.617   2.415 -1.3964 -0.9722 -0.7141
 6458TIP3   OH240864   6.834   0.688  11.761  0.0339  0.0241 -0.6531
 6458TIP3    H140865   6.883   0.758  11.803  1.0743 -0.1907 -1.4686
 6458TIP3    H240866   6.742   0.715  11.769  0.2927  0.5990  0.5919
 6459TIP3   OH240867   2.693   1.359  15.272 -0.5587  0.0772 -0.2920
 6459TIP3    H140868   2.614   1.408  15.249  0.2006  0.7859 -1.5575
 6459TIP3    H240869   2.666   1.302  15.344 -2.7142 -1.0676 -1.8703
 6460TIP3   OH240870   4.882   5.957  12.569  0.3522 -0.0302  0.0696
 6460TIP3    H140871   4.925   6.042  12.575  0.1611 -0.0528  3.1950
 6460TIP3    H240872   4.804   5.973  12.517  0.7525  1.4898 -0.0991
 6461TIP3   OH240873   3.062   0.235   4.208  0.7657 -0.1525 -0.4553
 6461TIP3    H140874   3.142   0.217   4.257  1.6020 -0.0785 -1.7466
 6461TIP3    H240875   2.991   0.207   4.266  1.7778 -1.5784  0.1422
 6462TIP3   OH240876   5.228   1.928  12.726  0.2174 -0.0963  0.0710
 6462TIP3    H140877   5.287   1.983  12.779  0.7481 -2.0889  1.6622
 6462TIP3    H240878   5.142   1.969  12.737  0.6921  0.8022  0.6436
 6463TIP3   OH240879   4.217   6.322   5.968  0.9793  0.4722  0.0370
 6463TIP3    H140880   4.255   6.388   5.909  1.5749 -0.3663 -0.5568
 6463TIP3    H240881   4.180   6.256   5.909 -0.4850  0.7390  0.6159
 6464TIP3   OH240882   2.873   3.858  13.174 -0.3247  0.3246  0.3257
 6464TIP3    H140883   2.806   3.840  13.239  0.2948 -0.5075  0.7522
 6464TIP3    H240884   2.849   3.804  13.098  0.2804 -0.5867  0.7680
 6465TIP3   OH240885   5.532   6.842  16.385 -0.1223  0.0299 -0.3495
 6465TIP3    H140886   5.539   6.776  16.454 -0.6955  0.2934 -0.0331
 6465TIP3    H240887   5.612   6.831  16.333  0.3298 -0.1427  0.3761
 6466TIP3   OH240888   0.510   2.067  16.599  0.1875 -0.0605  0.7057
 6466TIP3    H140889   0.571   2.004  16.561  0.1035 -0.9649  2.0068
 6466TIP3    H240890   0.468   2.020  16.672 -1.7639  0.6629  0.1250
 6467TIP3   OH240891   1.312   6.844  13.055 -0.1495  1.0215  0.1186
 6467TIP3    H140892   1.333   6.860  12.963  0.0454  0.6962  0.1050
 6467TIP3    H240893   1.275   6.756  13.056  2.2167 -0.0544  0.6814
 6468TIP3   OH240894   4.146   1.613  14.331 -1.0575  0.0264  0.2210
 6468TIP3    H140895   4.215   1.593  14.393 -0.5509  0.1143 -0.3042
 6468TIP3    H240896   4.173   1.695  14.290 -0.3763 -0.9967 -1.5047
 6469TIP3   OH240897   5.783   1.203   1.152  0.3366  0.4996 -0.4275
 6469TIP3    H140898   5.793   1.251   1.069  0.7796  0.6849 -0.2734
 6469TIP3    H240899   5.799   1.112   1.129  1.6514  0.6866 -0.3480
 6470TIP3   OH240900   4.549   5.428   4.544 -0.1937  0.4309 -0.4351
 6470TIP3    H140901   4.475   5.376   4.576  0.4389 -0.6528 -0.6991
 6470TIP3    H240902   4.508   5.497   4.491 -0.9893 -0.6234 -1.2401
 6471TIP3   OH240903   5.662   3.339  14.129 -0.0349  0.4508  0.2467
 6471TIP3    H140904   5.616   3.292  14.199 -1.2277  1.3867  0.1348
 6471TIP3    H240905   5.753   3.314  14.139 -0.4661 -0.9879  0.8981
 6472TIP3   OH240906   4.626   1.066  16.362  0.0702 -0.0506  0.2366
 6472TIP3    H140907   4.688   1.002  16.399  0.5312  0.6907  0.7682
 6472TIP3    H240908   4.542   1.043  16.401  0.9161  2.1650  3.7468
 6473TIP3   OH240909   3.218   6.255  11.637  0.3225 -0.2713 -0.3687
 6473TIP3    H140910   3.239   6.290  11.723  1.2092 -0.7358 -0.3813
 6473TIP3    H240911   3.144   6.196  11.651 -0.6461  0.9426 -0.2143
 6474TIP3   OH240912   3.618   2.798  12.178 -0.8287  0.1297 -0.0211
 6474TIP3    H140913   3.635   2.888  12.207 -1.0472 -0.4369  2.0359
 6474TIP3    H240914   3.693   2.748  12.208 -0.9222 -0.4668 -0.7493
 6475TIP3   OH240915   4.810   0.621   2.466  0.0556 -0.1070  0.1863
 6475TIP3    H140916   4.850   0.706   2.448 -1.3425  0.6414  0.4365
 6475TIP3    H240917   4.844   0.596   2.551  1.8393 -0.6659 -0.6481
 6476TIP3   OH240918   5.873   1.088  15.478  0.3298  0.3215  0.3824
 6476TIP3    H140919   5.875   1.156  15.411  2.4107 -0.1276 -0.0766
 6476TIP3    H240920   5.851   1.008  15.431 -0.2656  0.3321  0.6212
 6477TIP3   OH240921   1.842   0.392  16.087 -0.6119 -0.1239  1.0173
 6477TIP3    H140922   1.913   0.334  16.059 -1.9761 -1.5499  0.3575
 6477TIP3    H240923   1.825   0.447  16.011 -1.3577 -0.9773  0.5513
 6478TIP3   OH240924   1.565   6.681  12.467 -0.5322  0.7038 -0.3880
 6478TIP3    H140925   1.546   6.645  12.381 -0.5831 -0.9563  0.2640
 6478TIP3    H240926   1.480   6.712  12.499 -1.0492 -1.0023  0.0331
 6479TIP3   OH240927   5.682   5.126  15.046 -0.2452 -0.2814 -0.4154
 6479TIP3    H140928   5.719   5.145  14.960 -1.3094 -0.5677 -0.9624
 6479TIP3    H240929   5.629   5.048  15.032  0.3440 -0.9117  0.7342
 6480TIP3   OH240930   3.676   0.788  15.477  0.0519  0.3857 -0.5742
 6480TIP3    H140931   3.604   0.767  15.537  0.7753 -1.3465 -0.2564
 6480TIP3    H240932   3.644   0.761  15.391 -0.0820  0.6578 -0.6126
 6481TIP3   OH240933   0.617   1.480   6.346 -0.0486  0.1023  0.1614
 6481TIP3    H140934   0.629   1.536   6.423  2.3426 -0.1907  0.0632
 6481TIP3    H240935   0.704   1.445   6.328 -0.6837 -0.3909 -2.2685
 6482TIP3   OH240936   1.310   0.421  16.843  0.4735 -0.1205 -0.7383
 6482TIP3    H140937   1.335   0.514  16.843 -1.1526  0.3597 -0.4099
 6482TIP3    H240938   1.239   0.416  16.779  0.3071 -1.0694 -0.4893
 6483TIP3   OH240939   0.937   2.509  10.934 -0.2077  0.3348 -0.2363
 6483TIP3    H140940   0.914   2.431  10.884 -0.0891 -0.6587  1.1836
 6483TIP3    H240941   1.027   2.493  10.962  0.1458  1.4287 -0.7182
 6484TIP3   OH240942   3.625   0.439   3.971 -0.0982  0.4387 -0.5255
 6484TIP3    H140943   3.684   0.466   4.041 -1.2504  0.4668  0.4744
 6484TIP3    H240944   3.538   0.467   4.001 -1.2471 -3.2032 -0.0013
 6485TIP3   OH240945   3.911   5.625  11.096  0.0298  0.1056 -0.6351
 6485TIP3    H140946   3.835   5.608  11.153  1.0631  1.5915  1.3022
 6485TIP3    H240947   3.898   5.714  11.064 -0.2837 -0.5394 -2.4170
 6486TIP3   OH240948   6.715   5.419   0.027 -0.4634 -0.3910  0.0368
 6486TIP3    H140949   6.786   5.417  -0.037 -1.4751  0.6610 -1.1934
 6486TIP3    H240950   6.671   5.503   0.010 -2.2019 -1.1650  0.5070
 6487TIP3   OH240951   6.463   3.755   4.973  0.0035  0.2243  0.5630
 6487TIP3    H140952   6.458   3.698   5.049 -1.9143 -1.8940 -0.9818
 6487TIP3    H240953   6.529   3.714   4.917  0.6937  1.1937  0.6626
 6488TIP3   OH240954   4.375   2.168   0.707  0.4960  0.3108 -0.4520
 6488TIP3    H140955   4.368   2.153   0.613  1.3523 -1.4256 -0.2762
 6488TIP3    H240956   4.467   2.192   0.721  0.4791  0.1213 -0.0061
 6489TIP3   OH240957   3.046   3.023  16.326  0.1139  0.1380  0.6235
 6489TIP3    H140958   2.971   3.075  16.296  0.2318 -0.6151 -1.1360
 6489TIP3    H240959   3.038   3.023  16.421 -0.3974  2.5834  0.6669
 6490TIP3   OH240960   6.159   1.251   1.783 -0.4686  0.1624 -0.4719
 6490TIP3    H140961   6.092   1.221   1.722 -1.6519  1.7967 -0.0442
 6490TIP3    H240962   6.144   1.200   1.862  1.9082 -2.9410 -1.7991
 6491TIP3   OH240963   6.463   2.715  14.111 -0.2369 -0.1793  0.3330
 6491TIP3    H140964   6.419   2.657  14.049 -0.1573  0.0174  0.0926
 6491TIP3    H240965   6.424   2.801  14.095 -0.5578 -0.2149  0.8807
 6492TIP3   OH240966   1.936   6.479   4.798  0.5342 -0.7855  0.0145
 6492TIP3    H140967   1.943   6.575   4.794 -2.0614 -0.4846  0.5309
 6492TIP3    H240968   1.887   6.462   4.879 -0.2534 -2.4357 -0.7581
 6493TIP3   OH240969   5.940   5.272   4.594  0.2643 -0.0662 -0.4716
 6493TIP3    H140970   5.915   5.305   4.508  0.8802  1.2481 -0.1723
 6493TIP3    H240971   6.018   5.322   4.617  0.2962 -0.6308  0.7146
 6494TIP3   OH240972   4.691   4.490   2.388 -0.2191  0.2253  0.5313
 6494TIP3    H140973   4.774   4.499   2.434  0.4588 -0.3508 -0.5413
 6494TIP3    H240974   4.662   4.401   2.409 -0.5833  0.4390  0.9346
 6495TIP3   OH240975   5.264   0.679  12.891 -0.2695  0.6296 -0.2711
 6495TIP3    H140976   5.290   0.767  12.920  0.4902 -0.0077  1.0623
 6495TIP3    H240977   5.199   0.651  12.955 -2.1477  1.0295 -1.9178
 6496TIP3   OH240978   1.578   6.226   1.932  0.2763 -0.6364 -0.6523
 6496TIP3    H140979   1.602   6.272   2.013 -2.8241  0.6344 -0.3217
 6496TIP3    H240980   1.592   6.133   1.953 -0.2978 -0.3330  1.3112
 6497TIP3   OH240981   6.541   4.566  12.370 -0.1410  0.5245 -0.4770
 6497TIP3    H140982   6.626   4.573  12.327  0.0465 -0.5612 -0.2995
 6497TIP3    H240983   6.523   4.472  12.375 -1.8054  0.7445 -1.3817
 6498TIP3   OH240984   4.914   1.158   2.365 -0.0875 -0.4675 -0.5721
 6498TIP3    H140985   5.006   1.173   2.345 -0.0085  1.0206  0.6874
 6498TIP3    H240986   4.899   1.206   2.447 -1.5445 -2.1680  0.2473
 6499TIP3   OH240987   2.234   2.301   1.939  0.3668 -0.0587  0.2224
 6499TIP3    H140988   2.307   2.322   1.997  1.4519 -2.7558 -0.0316
 6499TIP3    H240989   2.157   2.299   1.997  0.7437  1.1744  0.7896
 6500TIP3   OH240990   6.421   4.708  11.337  0.7650  0.0681 -0.0336
 6500TIP3    H140991   6.443   4.733  11.427 -0.9797  0.1997  0.3874
 6500TIP3    H240992   6.326   4.720  11.331  0.1380 -3.9584 -0.6106
 6501TIP3   OH240993   1.525   6.312   6.492  0.1801  0.3025  0.9579
 6501TIP3    H140994   1.513   6.319   6.586 -0.4649 -2.6315  1.1907
 6501TIP3    H240995   1.597   6.372   6.472  0.3888  0.9141  3.3199
 6502TIP3   OH240996   2.599   1.939   0.317  0.1526  0.2408 -0.3908
 6502TIP3    H140997   2.628   2.030   0.324 -0.6637  0.5446 -0.8875
 6502TIP3    H240998   2.658   1.901   0.252 -0.3866  0.7980 -1.2248
 6503TIP3   OH240999   6.120   3.850  12.576 -0.3624  0.0363 -0.2381
 6503TIP3    H141000   6.167   3.927  12.607 -2.5599  1.8820 -1.2226
 6503TIP3    H241001   6.116   3.792  12.653 -0.8785  2.0458  1.3237
 6504TIP3   OH241002   3.109   2.265   5.789 -0.1569 -0.5439 -0.0961
 6504TIP3    H141003   3.100   2.231   5.878  1.4426 -1.9455 -0.4203
 6504TIP3    H241004   3.146   2.352   5.800 -1.4429 -0.0561  0.6382
 6505TIP3   OH241005   4.547   0.855   1.601  0.0510 -0.0104  0.1285
 6505TIP3    H141006   4.527   0.806   1.681 -0.0128 -2.0605 -1.0659
 6505TIP3    H241007   4.464   0.895   1.576 -0.8325 -2.2528 -0.7417
 6506TIP3   OH241008   2.285   0.324  12.420 -0.0065 -0.4206 -0.1368
 6506TIP3    H141009   2.329   0.271  12.353  0.1832  0.4519 -0.7111
 6506TIP3    H241010   2.331   0.408  12.418 -0.0599 -0.3412  1.0274
 6507TIP3   OH241011   2.868   2.888   2.140  1.0835  0.2897 -0.0704
 6507TIP3    H141012   2.847   2.799   2.169  0.3292  0.2696 -0.6373
 6507TIP3    H241013   2.847   2.943   2.216 -0.3286  0.1788 -0.3576
 6508TIP3   OH241014   2.499   4.944   2.539  0.0064  0.4097  0.7767
 6508TIP3    H141015   2.407   4.925   2.553 -0.0369 -1.5183 -1.5015
 6508TIP3    H241016   2.504   5.040   2.537 -2.3984  0.5948 -1.3829
 6509TIP3   OH241017   1.820   3.192   2.905  0.7112  0.1935 -0.2738
 6509TIP3    H141018   1.727   3.214   2.898  0.6470  0.2064  0.5923
 6509TIP3    H241019   1.827   3.104   2.868  0.3879  0.2599 -0.4997
 6510TIP3   OH241020   2.821   5.509  14.560 -0.3683  0.1002 -0.0445
 6510TIP3    H141021   2.820   5.414  14.574  0.7242  0.4549  3.2022
 6510TIP3    H241022   2.744   5.541  14.606 -0.2374  0.8748 -0.3577
 6511TIP3   OH241023   6.464   3.564  11.088  0.1868 -0.4163  0.1818
 6511TIP3    H141024   6.512   3.586  11.008  1.5866 -0.4614  0.9717
 6511TIP3    H241025   6.411   3.641  11.106  0.6257 -0.0057 -0.2529
 6512TIP3   OH241026   4.563   6.027  12.030 -0.0309 -0.4979  0.4814
 6512TIP3    H141027   4.644   6.045  12.078 -1.3825 -1.8726  3.5977
 6512TIP3    H241028   4.500   6.091  12.063  0.0838  1.7738 -3.2507
 6513TIP3   OH241029   3.624   5.419   4.988  0.5336 -0.2827 -0.4945
 6513TIP3    H141030   3.534   5.398   4.966 -0.2699  1.0217  1.2462
 6513TIP3    H241031   3.656   5.471   4.915 -1.3278  2.1766  0.3073
 6514TIP3   OH241032   2.655   5.000  16.807 -0.0626 -0.7555  1.1162
 6514TIP3    H141033   2.723   5.015  16.741 -0.4823  2.1378  1.2132
 6514TIP3    H241034   2.573   5.010  16.758 -0.3781 -0.0766  1.7727
 6515TIP3   OH241035   0.683   0.437   0.407  0.0057  0.2134  0.1883
 6515TIP3    H141036   0.692   0.348   0.374  3.1197  0.5390 -0.1733
 6515TIP3    H241037   0.649   0.487   0.332  0.6277 -0.2566 -0.4242
 6516TIP3   OH241038   2.172   1.951   2.372  0.1853 -0.0510  0.5933
 6516TIP3    H141039   2.149   1.956   2.279  0.5677  0.5748  0.5225
 6516TIP3    H241040   2.250   2.007   2.380 -0.5512  0.8684  1.5203
 6517TIP3   OH241041   1.281   0.408   0.716  0.1652 -0.4263  0.3807
 6517TIP3    H141042   1.359   0.415   0.771  0.8721 -0.7577 -0.5531
 6517TIP3    H241043   1.271   0.495   0.677  0.3902 -0.5365  0.0763
 6518TIP3   OH241044   1.085   1.742  12.121  0.0580  0.1205  0.1516
 6518TIP3    H141045   0.993   1.755  12.143 -0.2526 -0.0735 -0.9708
 6518TIP3    H241046   1.090   1.759  12.027  1.2207  0.3964  0.2527
 6519TIP3   OH241047   1.876   1.429   3.473 -0.3381 -0.2725 -0.4915
 6519TIP3    H141048   1.839   1.400   3.556  1.2316 -0.3157  0.2330
 6519TIP3    H241049   1.925   1.353   3.441  0.3766  0.2351 -0.6397
 6520TIP3   OH241050   4.310   0.588  11.190 -0.5889  0.3918 -0.2153
 6520TIP3    H141051   4.293   0.568  11.098 -1.4554 -1.3661  0.2894
 6520TIP3    H241052   4.394   0.546  11.208 -0.1390  1.2152 -0.3174
 6521TIP3   OH241053   0.617   3.592  17.065  0.2418  0.0019 -0.4390
 6521TIP3    H141054   0.560   3.516  17.049 -0.2495 -0.4302  2.7507
 6521TIP3    H241055   0.653   3.613  16.979 -1.4630 -2.3423 -1.8547
 6522TIP3   OH241056   4.223   3.254  16.041 -0.0488  0.2226 -0.3449
 6522TIP3    H141057   4.138   3.239  15.998  0.8210 -0.7104 -1.8385
 6522TIP3    H241058   4.247   3.169  16.078 -0.0620  0.6508  0.6835
 6523TIP3   OH241059   0.528   5.521   1.909  0.2796  0.0827  0.2341
 6523TIP3    H141060   0.442   5.538   1.948  0.2740  0.0667  0.2286
 6523TIP3    H241061   0.528   5.571   1.828  0.1326 -0.2215  0.0476
 6524TIP3   OH241062   5.402   2.466   3.489 -0.3898 -0.0379 -0.2095
 6524TIP3    H141063   5.348   2.451   3.411  1.7265  1.0753 -1.9911
 6524TIP3    H241064   5.395   2.560   3.505  1.6164  0.2832 -0.9969
 6525TIP3   OH241065   0.326   0.377  12.473  0.1260  0.1300 -0.2976
 6525TIP3    H141066   0.301   0.457  12.428  0.2024  0.0077 -0.5591
 6525TIP3    H241067   0.245   0.325  12.474 -0.1908  0.6195  0.7617
 6526TIP3   OH241068   6.247   0.644   2.112  0.0634 -0.0110  0.1447
 6526TIP3    H141069   6.227   0.737   2.123  0.7036  0.0348  1.0853
 6526TIP3    H241070   6.202   0.619   2.032 -2.0440  0.5581  1.0592
 6527TIP3   OH241071   2.482   0.564   5.642  0.5239  0.5940  0.4587
 6527TIP3    H141072   2.442   0.491   5.689  1.4836  0.0769  0.4969
 6527TIP3    H241073   2.509   0.527   5.558  2.5748  0.4165  1.1284
 6528TIP3   OH241074   4.771   2.389   2.344  0.2625  0.2318  0.1191
 6528TIP3    H141075   4.707   2.321   2.365  1.3771 -0.9867 -0.2993
 6528TIP3    H241076   4.770   2.448   2.420 -0.3771 -0.5159  0.7037
 6529TIP3   OH241077   1.471   0.884  11.025  0.4528  0.1683 -0.3875
 6529TIP3    H141078   1.380   0.881  10.998  0.5316 -0.1756 -0.6185
 6529TIP3    H241079   1.468   0.886  11.121  0.2392 -4.2089 -0.1190
 6530TIP3   OH241080   3.535   3.152  10.798 -0.2230  0.0985  0.5427
 6530TIP3    H141081   3.525   3.064  10.835 -1.5410 -1.2323 -2.5986
 6530TIP3    H241082   3.625   3.155  10.766  0.1905  0.3758  1.7030
 6531TIP3   OH241083   3.576   6.753   1.316  0.2497 -0.1197 -0.5984
 6531TIP3    H141084   3.641   6.706   1.265 -0.9328 -1.5931 -0.8189
 6531TIP3    H241085   3.494   6.742   1.268 -0.6042 -0.2086  0.7929
 6532TIP3   OH241086   6.288   4.654  10.858  0.8316  0.0130 -0.2810
 6532TIP3    H141087   6.259   4.576  10.905  0.8451  0.5466  0.6287
 6532TIP3    H241088   6.271   4.634  10.766  1.3341 -1.2853 -0.1238
 6533TIP3   OH241089   6.451   6.343   4.405 -0.3230 -0.1034  0.1115
 6533TIP3    H141090   6.515   6.408   4.375  0.0168 -0.6045 -0.2709
 6533TIP3    H241091   6.478   6.324   4.495  0.0882 -0.3224 -0.0511
 6534TIP3   OH241092   4.926   4.471  14.112 -0.0830  0.5006  0.1041
 6534TIP3    H141093   4.994   4.521  14.068 -1.2369  2.2267  0.1956
 6534TIP3    H241094   4.872   4.436  14.041 -0.6069  1.3475  0.0742
 6535TIP3   OH241095   3.031   2.866  14.628  0.2707  0.1647  0.5536
 6535TIP3    H141096   2.949   2.818  14.639  1.1235 -1.4366  0.1908
 6535TIP3    H241097   3.064   2.879  14.717 -0.4372  0.9778  0.7128
 6536TIP3   OH241098   3.121   5.646   3.131  0.1655  0.0590 -0.0508
 6536TIP3    H141099   3.080   5.702   3.197  1.9703  2.2044 -0.6024
 6536TIP3    H241100   3.083   5.559   3.145 -3.0213  1.4478  0.6467
 6537TIP3   OH241101   4.296   2.501  16.338  0.1745  0.1014 -0.3828
 6537TIP3    H141102   4.292   2.423  16.394  0.8976 -1.5221 -2.4348
 6537TIP3    H241103   4.207   2.509  16.302 -0.1322  0.7780  0.5123
 6538TIP3   OH241104   1.520   2.458  15.267 -0.2294 -0.5056 -0.3999
 6538TIP3    H141105   1.499   2.377  15.312 -0.6534  0.7059  1.7445
 6538TIP3    H241106   1.616   2.464  15.273 -0.2658 -0.4572  0.1824
 6539TIP3   OH241107   2.579   1.774   5.251 -0.1628  0.1439  0.0905
 6539TIP3    H141108   2.600   1.681   5.254  1.0262  0.4028  1.2442
 6539TIP3    H241109   2.520   1.784   5.177 -1.5736 -1.7678  0.8693
 6540TIP3   OH241110   4.062   1.444   0.313  0.1093  0.3314 -0.1686
 6540TIP3    H141111   3.977   1.475   0.344  0.4408  1.8339 -0.6717
 6540TIP3    H241112   4.074   1.488   0.229  0.3868 -1.6437 -1.2253
 6541TIP3   OH241113   5.692   0.129   0.858  0.6398  0.2342  0.0999
 6541TIP3    H141114   5.717   0.178   0.780 -0.7211 -0.2243 -0.6745
 6541TIP3    H241115   5.596   0.122   0.851  0.5224 -0.0346  1.6854
 6542TIP3   OH241116   4.204   4.793   2.968  0.5546  0.3795 -0.4090
 6542TIP3    H141117   4.225   4.884   2.989  0.6155  0.3619 -0.3917
 6542TIP3    H241118   4.266   4.770   2.899  0.3450  0.4408 -0.6195
 6543TIP3   OH241119   2.654   4.441  12.426  0.2783  0.0597 -0.3337
 6543TIP3    H141120   2.632   4.388  12.503  1.2393  0.6935  0.4077
 6543TIP3    H241121   2.592   4.514  12.429  1.3465  0.9575  0.7991
 6544TIP3   OH241122   4.174   4.722   1.109  0.1960 -0.0489  0.2456
 6544TIP3    H141123   4.244   4.692   1.167 -0.1540 -0.9427  0.2343
 6544TIP3    H241124   4.192   4.679   1.025 -1.1635 -1.5283  0.6544
 6545TIP3   OH241125   2.575   3.413   2.513  0.2784  0.1827  0.1487
 6545TIP3    H141126   2.613   3.374   2.435  0.4591 -0.7378  0.6914
 6545TIP3    H241127   2.642   3.474   2.545 -0.2322  1.4081 -1.0167
 6546TIP3   OH241128   4.252   2.637  14.719 -0.2818  0.2162  0.3508
 6546TIP3    H141129   4.273   2.544  14.722  1.7609  0.5256 -1.6779
 6546TIP3    H241130   4.329   2.679  14.758 -1.2961  1.0866  1.4861
 6547TIP3   OH241131   5.475   1.798   4.698  0.4496  1.2676  0.1116
 6547TIP3    H141132   5.484   1.719   4.645 -0.8055  0.0142  1.6547
 6547TIP3    H241133   5.477   1.870   4.635  2.6031  0.1049 -1.2464
 6548TIP3   OH241134   6.533   0.609   2.152  0.2894 -0.6836 -0.2754
 6548TIP3    H141135   6.532   0.588   2.246  1.3036  2.0108  0.4419
 6548TIP3    H241136   6.447   0.647   2.135  1.2145  2.0438  0.5278
 6549TIP3   OH241137   6.352   6.237   5.560  0.1851  0.0499  0.6232
 6549TIP3    H141138   6.289   6.197   5.621 -0.7700  1.2406  0.4632
 6549TIP3    H241139   6.354   6.329   5.586  1.1263  0.2194 -0.0231
 6550TIP3   OH241140   2.732   5.262   2.170  0.2983 -0.2164 -0.0716
 6550TIP3    H141141   2.638   5.247   2.172  0.2397  0.0967 -0.3096
 6550TIP3    H241142   2.767   5.208   2.241 -0.0505 -0.3910 -0.0310
 6551TIP3   OH241143   0.936   3.785  16.616  0.3070  0.5111  0.2457
 6551TIP3    H141144   0.842   3.772  16.603  0.2382 -1.1785  2.0070
 6551TIP3    H241145   0.958   3.860  16.561 -1.5644 -0.5642 -2.1106
 6552TIP3   OH241146   3.938   1.201   0.426  0.1882 -0.4160  0.4839
 6552TIP3    H141147   3.992   1.274   0.394 -1.3128  0.0385 -1.1026
 6552TIP3    H241148   3.989   1.123   0.404  0.4700  0.0221 -0.4813
 6553TIP3   OH241149   0.128   0.555  11.991 -0.0764 -0.1046 -0.1006
 6553TIP3    H141150   0.148   0.649  11.995 -0.7978  0.1377 -1.4938
 6553TIP3    H241151   0.085   0.543  11.906 -0.7111 -1.5660  0.3881
 6554TIP3   OH241152   1.999   3.453   0.922 -0.5794 -0.3205  0.1157
 6554TIP3    H141153   1.977   3.412   1.006 -2.4158  0.2916 -0.0026
 6554TIP3    H241154   1.993   3.547   0.940 -1.3493 -0.1884 -0.7684
 6555TIP3   OH241155   3.679   1.084  12.938 -0.3159 -0.1761  0.0429
 6555TIP3    H141156   3.624   1.130  13.002 -2.1755 -0.4424 -1.2547
 6555TIP3    H241157   3.710   1.006  12.984  0.7650  1.0539  1.4699
 6556TIP3   OH241158   4.351   5.470  16.703  0.8007  0.2632 -0.0679
 6556TIP3    H141159   4.387   5.397  16.652  1.1161 -0.3069  0.9547
 6556TIP3    H241160   4.318   5.531  16.637 -1.9442 -2.0074 -0.9678
 6557TIP3   OH241161   3.351   4.651   5.678 -0.2589 -0.2797  0.0589
 6557TIP3    H141162   3.314   4.591   5.744 -0.4376 -1.4520 -1.0707
 6557TIP3    H241163   3.362   4.733   5.725 -0.5867 -1.0190  1.5057
 6558TIP3   OH241164   6.046   3.657   3.564  0.0665 -0.6112 -0.3776
 6558TIP3    H141165   5.976   3.618   3.616  1.0599 -1.7605  0.1563
 6558TIP3    H241166   6.089   3.719   3.624  0.0440 -0.5506 -0.4243
 6559TIP3   OH241167   4.439   6.306   1.674 -0.3411 -0.6951 -0.3393
 6559TIP3    H141168   4.472   6.220   1.650  1.9441  0.0197  0.0208
 6559TIP3    H241169   4.476   6.324   1.761 -2.4889 -0.1842  0.5515
 6560TIP3   OH241170   6.726   6.317  13.202 -0.1533  0.5136  0.9554
 6560TIP3    H141171   6.692   6.407  13.205 -0.1112  0.5729 -0.0613
 6560TIP3    H241172   6.649   6.263  13.185  0.1319  0.5893 -0.7254
 6561TIP3   OH241173   3.107   2.010   1.339  0.1009 -0.6425  0.0263
 6561TIP3    H141174   3.038   2.055   1.388 -1.3969  0.7607 -3.0963
 6561TIP3    H241175   3.182   2.008   1.399 -1.4820  1.1023  2.2429
 6562TIP3   OH241176   2.211   5.908   1.900 -0.1865  0.0552  0.0194
 6562TIP3    H141177   2.227   5.949   1.985  0.7520 -0.8514  0.2908
 6562TIP3    H241178   2.162   5.828   1.920 -0.3270  0.0495 -0.3343
 6563TIP3   OH241179   3.711   3.389  15.292  0.7032  0.2405  0.1714
 6563TIP3    H141180   3.675   3.317  15.344  1.0029 -0.3308 -0.3986
 6563TIP3    H241181   3.738   3.455  15.356  0.5702 -0.2221  0.7017
 6564TIP3   OH241182   5.007   5.069  15.476  0.4287 -0.0917 -0.1773
 6564TIP3    H141183   5.045   5.130  15.413 -1.0197  0.4556 -0.5711
 6564TIP3    H241184   5.043   5.096  15.560  1.1482  0.1869 -0.5629
 6565TIP3   OH241185   0.816   1.443   0.139 -0.2849 -0.2571  0.9051
 6565TIP3    H141186   0.813   1.349   0.124 -0.3443 -0.0449 -0.5045
 6565TIP3    H241187   0.906   1.459   0.169 -0.4922 -0.8406  1.8941
 6566TIP3   OH241188   1.184   0.283  11.479 -0.0371 -0.0931 -0.4014
 6566TIP3    H141189   1.106   0.269  11.426 -0.3836 -1.8537  0.5256
 6566TIP3    H241190   1.152   0.324  11.559  0.3215  1.3279 -0.9461
 6567TIP3   OH241191   1.771   3.746   3.228  0.6455 -0.1636 -0.0681
 6567TIP3    H141192   1.837   3.788   3.173 -0.2406  0.5033 -0.6409
 6567TIP3    H241193   1.739   3.815   3.285 -0.6406 -0.0764 -0.8442
 6568TIP3   OH241194   3.321   4.971  13.504 -0.1565 -0.1549  0.0472
 6568TIP3    H141195   3.372   5.034  13.555 -1.5632 -0.9138  2.5357
 6568TIP3    H241196   3.381   4.942  13.435  0.6334  3.6551 -1.1515
 6569TIP3   OH241197   1.402   5.435   2.876 -0.3542  0.1435 -0.4907
 6569TIP3    H141198   1.415   5.509   2.817  0.6246 -0.1728 -0.6781
 6569TIP3    H241199   1.398   5.474   2.963  1.5972  0.3137 -0.4408
 6570TIP3   OH241200   3.871   4.904   2.352  0.0058 -0.1786  0.4607
 6570TIP3    H141201   3.781   4.925   2.380  0.7545  0.7760  2.3200
 6570TIP3    H241202   3.920   4.984   2.370  1.2538 -0.7128 -0.4912
 6571TIP3   OH241203   2.466   0.522  12.424 -0.1162  0.4804 -0.2850
 6571TIP3    H141204   2.474   0.515  12.519  2.2044  0.2884 -0.4408
 6571TIP3    H241205   2.509   0.604  12.402 -0.2248  0.3054 -1.1933
 6572TIP3   OH241206   1.040   4.512  11.816 -0.0834 -0.2072  0.0381
 6572TIP3    H141207   1.100   4.576  11.777 -1.1757  0.2190 -0.9995
 6572TIP3    H241208   1.052   4.524  11.910  2.1771 -0.8467 -0.1101
 6573TIP3   OH241209   5.101   3.490   6.302  0.8095 -0.1330  0.4704
 6573TIP3    H141210   5.133   3.415   6.352  0.6923 -0.4463  0.0832
 6573TIP3    H241211   5.094   3.458   6.212 -1.3711 -0.3555  0.6542
 6574TIP3   OH241212   4.226   1.182  16.481 -0.0566 -0.2250 -0.4821
 6574TIP3    H141213   4.135   1.181  16.512 -0.3639 -0.1681 -1.3437
 6574TIP3    H241214   4.278   1.203  16.558 -0.8942  1.0757 -0.2403
 6575TIP3   OH241215   0.526   5.690   4.222  0.0231 -0.7038 -0.0312
 6575TIP3    H141216   0.542   5.782   4.198 -0.5815 -0.1405  1.5879
 6575TIP3    H241217   0.431   5.683   4.225  0.0738 -0.9707  1.2821
 6576TIP3   OH241218   3.366   3.480   6.163 -0.0588  0.6402  0.1084
 6576TIP3    H141219   3.457   3.486   6.190 -0.3100  0.4028  1.0278
 6576TIP3    H241220   3.320   3.546   6.215 -0.7748 -0.7591  1.3337
 6577TIP3   OH241221   6.519   0.353  11.144  0.4410 -0.2457 -0.0781
 6577TIP3    H141222   6.498   0.382  11.233 -0.3542 -1.8013  0.2736
 6577TIP3    H241223   6.574   0.276  11.157  0.2354 -0.5442 -0.9445
 6578TIP3   OH241224   3.896   6.231   0.359 -0.2281  0.0025  0.0446
 6578TIP3    H141225   3.874   6.263   0.446  0.6552 -0.2975  0.3922
 6578TIP3    H241226   3.846   6.286   0.299 -2.9769 -1.5214  0.8028
 6579TIP3   OH241227   0.646   4.245   0.664  0.0437  0.5799 -1.1870
 6579TIP3    H141228   0.564   4.276   0.627 -0.3028  1.3348  0.1657
 6579TIP3    H241229   0.685   4.192   0.594 -0.7422  1.6493 -2.4897
 6580TIP3   OH241230   2.562   4.695   3.407 -0.4116  0.1073 -0.4817
 6580TIP3    H141231   2.552   4.761   3.338  1.4703  1.6984  0.6767
 6580TIP3    H241232   2.637   4.642   3.380 -0.2527  0.1352 -0.0998
 6581TIP3   OH241233   0.240   3.698  12.006 -0.3279 -0.1654  0.1993
 6581TIP3    H141234   0.269   3.627  11.949 -1.0962 -0.5042  0.2209
 6581TIP3    H241235   0.310   3.706  12.071  1.5397  1.5194 -1.8406
 6582TIP3   OH241236   4.556   4.571  15.791  0.1424  0.5681  0.4016
 6582TIP3    H141237   4.479   4.627  15.779 -0.8496 -0.8133 -0.0365
 6582TIP3    H241238   4.627   4.617  15.749 -0.5449  1.6833  0.4256
 6583TIP3   OH241239   4.714   2.748  14.901  0.3850 -0.4344 -0.9580
 6583TIP3    H141240   4.688   2.762  14.992  0.7394  0.9708 -1.0339
 6583TIP3    H241241   4.808   2.770  14.900 -0.0443  1.6419 -2.0164
 6584TIP3   OH241242   0.986   1.386   5.549  0.0065  0.1165 -0.2850
 6584TIP3    H141243   0.942   1.341   5.477  0.1464  0.9360 -0.8937
 6584TIP3    H241244   0.917   1.436   5.593 -0.0146 -0.1075 -0.0590
 6585TIP3   OH241245   4.511   5.372   4.991 -0.1700 -0.1450  0.4308
 6585TIP3    H141246   4.471   5.459   4.998 -0.4969 -0.3656  1.5202
 6585TIP3    H241247   4.605   5.389   4.996 -0.2627  0.0323  2.6095
 6586TIP3   OH241248   5.280   3.651  14.818 -0.1723  0.1422  0.4007
 6586TIP3    H141249   5.336   3.640  14.741 -2.8924  0.0480 -1.7547
 6586TIP3    H241250   5.282   3.566  14.862  0.0317 -0.3931 -0.6178
 6587TIP3   OH241251   1.431   5.816  12.549 -0.1469  0.7186 -0.4780
 6587TIP3    H141252   1.511   5.835  12.499 -0.6212  0.2959 -1.4398
 6587TIP3    H241253   1.414   5.723  12.531 -0.8607  0.8123 -0.2999
 6588TIP3   OH241254   2.487   0.330  11.555  0.2252 -0.2932  0.0977
 6588TIP3    H141255   2.521   0.362  11.638 -0.6224 -0.3077  0.4651
 6588TIP3    H241256   2.431   0.400  11.523  0.3396 -0.3950 -0.3342
 6589TIP3   OH241257   4.025   1.013  15.300 -0.4664 -0.2670 -0.2660
 6589TIP3    H141258   4.028   0.945  15.233 -0.0858 -2.2871  1.6976
 6589TIP3    H241259   4.028   0.966  15.383  0.3818  2.1756  1.2023
 6590TIP3   OH241260   2.049   4.799  13.914 -0.7022  0.2919 -0.2310
 6590TIP3    H141261   2.080   4.876  13.961 -0.6121 -0.1185  0.3962
 6590TIP3    H241262   2.074   4.725  13.970 -0.5152 -0.2148 -0.9578
 6591TIP3   OH241263   3.482   2.694  16.779  0.2867  0.0372  0.1939
 6591TIP3    H141264   3.568   2.657  16.801  0.7660  0.2325 -1.2732
 6591TIP3    H241265   3.468   2.762  16.844  0.5086 -1.0413  1.4284
 6592TIP3   OH241266   4.244   4.341  16.192  0.2509  0.9330  0.1815
 6592TIP3    H141267   4.217   4.259  16.151  1.8993 -0.0001  0.8377
 6592TIP3    H241268   4.179   4.405  16.165 -1.2304 -0.6498 -0.1304
 6593TIP3   OH241269   6.297   5.305   1.425  0.0382 -0.2365 -0.0109
 6593TIP3    H141270   6.370   5.295   1.487  0.3999 -2.0653 -0.6570
 6593TIP3    H241271   6.339   5.327   1.342 -0.1766 -0.6758 -0.2423
 6594TIP3   OH241272   6.066   3.839   5.998  0.1364 -0.3320 -0.9578
 6594TIP3    H141273   6.063   3.916   6.055  1.6402  0.3204 -1.7107
 6594TIP3    H241274   6.088   3.766   6.057  1.4495  0.2948 -0.6476
 6595TIP3   OH241275   2.598   3.009  13.315  0.1367 -0.4416 -0.2078
 6595TIP3    H141276   2.533   3.005  13.244 -0.1521 -0.9976  0.0825
 6595TIP3    H241277   2.546   3.023  13.394  0.4273 -0.2221 -0.0542
 6596TIP3   OH241278   0.655   5.995   2.037 -0.3035 -0.2410  0.7336
 6596TIP3    H141279   0.602   6.000   1.958 -0.3282 -1.9881  0.5893
 6596TIP3    H241280   0.671   6.086   2.062 -2.3561  0.3399  0.1153
 6597TIP3   OH241281   1.851   1.582  11.771  0.1280  0.5678  0.4472
 6597TIP3    H141282   1.920   1.532  11.815 -1.8844 -1.0780  1.9224
 6597TIP3    H241283   1.869   1.570  11.677  2.2778  0.9116  0.7541
 6598TIP3   OH241284   0.187   1.293   2.935 -0.1802 -0.2796 -0.0308
 6598TIP3    H141285   0.164   1.327   2.848 -2.4164 -0.7095  0.3477
 6598TIP3    H241286   0.163   1.362   2.995  1.5457  0.0947  0.2917
 6599TIP3   OH241287   2.477   4.613   4.735  0.0175 -0.2954 -0.7774
 6599TIP3    H141288   2.548   4.638   4.795 -0.7738 -1.2966  0.6295
 6599TIP3    H241289   2.398   4.648   4.776 -1.1887 -4.8476  1.4051
 6600TIP3   OH241290   4.044   5.444   1.227  0.1481 -0.4239  0.3867
 6600TIP3    H141291   3.957   5.444   1.187 -0.6151  1.9665  1.8362
 6600TIP3    H241292   4.071   5.352   1.225 -2.3712 -1.2407 -0.1953
 6601TIP3   OH241293   2.575   3.078   3.775  0.3927  0.3871 -0.0776
 6601TIP3    H141294   2.593   3.039   3.861 -0.7862 -0.4624 -0.1931
 6601TIP3    H241295   2.491   3.041   3.749  1.3061 -0.4140 -2.1821
 6602TIP3   OH241296   3.391   1.406  14.476 -0.1590 -0.2476 -0.3102
 6602TIP3    H141297   3.437   1.420  14.558 -0.5894  1.3975 -0.3017
 6602TIP3    H241298   3.434   1.466  14.414 -3.2708  2.7935  0.1331
 6603TIP3   OH241299   3.685   5.912  15.263 -0.1135  0.3976 -0.4575
 6603TIP3    H141300   3.716   5.992  15.222  1.1991  0.5740  0.8102
 6603TIP3    H241301   3.590   5.925  15.272 -0.0978  1.2654 -1.3730
 6604TIP3   OH241302   0.341   2.068  14.594  0.6240 -0.1683 -0.0940
 6604TIP3    H141303   0.408   2.076  14.526 -1.0005  0.5438 -1.6932
 6604TIP3    H241304   0.332   2.156  14.630  1.1052 -0.4357  0.7003
 6605TIP3   OH241305   6.098   1.314   5.126  0.3522  0.0645  0.7018
 6605TIP3    H141306   6.169   1.344   5.183  0.2676 -0.1554  0.9249
 6605TIP3    H241307   6.108   1.367   5.046  2.6106 -1.9919 -0.5115
 6606TIP3   OH241308   1.779   2.529   1.348  0.1434 -0.3726  0.0772
 6606TIP3    H141309   1.812   2.563   1.265  0.8822 -1.6568 -0.1955
 6606TIP3    H241310   1.738   2.445   1.324 -0.9307 -0.0842  0.8187
 6607TIP3   OH241311   0.038   5.562   5.923 -0.0968 -0.1868 -0.5687
 6607TIP3    H141312   0.119   5.530   5.964 -0.0558 -0.1328 -0.6076
 6607TIP3    H241313  -0.022   5.487   5.927 -0.3530  0.0561  0.2862
 6608TIP3   OH241314   3.734   4.515  12.044  0.4115 -0.2755  0.0115
 6608TIP3    H141315   3.711   4.461  11.968  1.1770 -0.6102 -0.0031
 6608TIP3    H241316   3.816   4.558  12.018  0.9404 -0.7652  0.8090
 6609TIP3   OH241317   6.008   2.487  15.852 -0.1020 -0.4073 -0.1841
 6609TIP3    H141318   6.027   2.573  15.813  0.2002  0.0967  1.0130
 6609TIP3    H241319   6.034   2.424  15.785  0.8534  0.4043 -0.6130
 6610TIP3   OH241320   1.419   0.076  12.193  0.0512  0.0075 -0.0891
 6610TIP3    H141321   1.430   0.152  12.250 -2.3285  1.2266 -1.1114
 6610TIP3    H241322   1.357   0.020  12.239 -0.3924  0.0698 -0.6053
 6611TIP3   OH241323   6.649   2.976   6.261  0.1657  0.3779 -0.5352
 6611TIP3    H141324   6.598   3.043   6.307 -1.7015 -0.0425 -1.8510
 6611TIP3    H241325   6.659   2.905   6.324  0.5959  1.1562  0.2821
 6612TIP3   OH241326   5.989   0.856  11.177  0.6891  0.7794 -0.1854
 6612TIP3    H141327   6.018   0.772  11.214  1.0360  1.1984  0.5107
 6612TIP3    H241328   5.933   0.893  11.244  0.2505  0.9500 -0.6426
 6613TIP3   OH241329   0.420   4.706   2.508  0.2542 -0.2042 -0.2000
 6613TIP3    H141330   0.372   4.788   2.514 -0.0896 -0.4897  1.3448
 6613TIP3    H241331   0.419   4.670   2.597 -1.6469 -3.0549 -1.2170
 6614TIP3   OH241332   5.321   2.003  16.522  0.0832  0.3965 -0.3929
 6614TIP3    H141333   5.252   2.069  16.528 -0.0936  0.2170 -0.4715
 6614TIP3    H241334   5.391   2.047  16.473 -1.1237 -0.3833 -3.0159
 6615TIP3   OH241335   1.277   3.987  16.058  0.5615  0.1907 -0.1332
 6615TIP3    H141336   1.234   3.903  16.077  1.0913 -0.5038 -1.8565
 6615TIP3    H241337   1.265   3.999  15.964 -0.8405  2.8321  0.2785
 6616TIP3   OH241338   1.948   1.427  15.067 -0.4311  0.2492 -0.1868
 6616TIP3    H141339   1.905   1.360  15.013 -0.2547  1.6614 -2.1769
 6616TIP3    H241340   1.909   1.416  15.153 -2.2230 -0.8213 -1.0678
 6617TIP3   OH241341   5.472   5.988  11.813  0.4791  0.2210  0.4960
 6617TIP3    H141342   5.415   5.996  11.736  1.9125 -0.0613 -0.6628
 6617TIP3    H241343   5.549   6.040  11.790  0.2120  1.6179  2.5354
 6618TIP3   OH241344   0.841   1.739   0.591 -0.3772 -0.6557 -0.1593
 6618TIP3    H141345   0.877   1.737   0.502 -0.5474  0.0873 -0.2535
 6618TIP3    H241346   0.915   1.762   0.647 -0.6747  0.8246 -0.3473
 6619TIP3   OH241347   2.509   4.336  15.505  0.3028 -0.1138  0.2721
 6619TIP3    H141348   2.438   4.352  15.567 -1.1579  1.8009 -1.7255
 6619TIP3    H241349   2.488   4.252  15.466 -0.0202 -0.2708  0.7708
 6620TIP3   OH241350   5.125   5.194  14.740  0.3156 -0.2471 -0.2446
 6620TIP3    H141351   5.139   5.176  14.647  0.6865  0.4746 -0.3362
 6620TIP3    H241352   5.208   5.232  14.770 -0.4410  1.3706 -0.0998
 6621TIP3   OH241353   6.171   6.728  11.832  0.5916 -0.0743  0.5793
 6621TIP3    H141354   6.166   6.785  11.909 -1.3530  0.3754  0.1749
 6621TIP3    H241355   6.147   6.785  11.759 -0.1856 -1.1008  0.0086
 6622TIP3   OH241356   3.168   5.907   0.192  0.4820  0.2508 -0.3170
 6622TIP3    H141357   3.108   5.902   0.118  0.8218  0.1500 -0.5848
 6622TIP3    H241358   3.219   5.986   0.176 -0.1615  0.8181  0.3546
 6623TIP3   OH241359   0.022   5.291  16.040 -0.2442 -0.0727  0.2461
 6623TIP3    H141360  -0.036   5.360  16.007 -0.9591 -1.3346 -1.2083
 6623TIP3    H241361  -0.036   5.232  16.089  0.4476  0.5720  1.9252
 6624TIP3   OH241362   1.639   6.334   5.486  0.5299 -0.3785  0.1871
 6624TIP3    H141363   1.659   6.388   5.409  0.5881 -0.7841 -0.0823
 6624TIP3    H241364   1.640   6.396   5.559 -1.3175  0.3697 -0.3498
 6625TIP3   OH241365   2.877   4.214   3.001 -0.3026 -0.1220 -0.1961
 6625TIP3    H141366   2.961   4.235   2.960 -0.0167  0.8796  0.8542
 6625TIP3    H241367   2.892   4.130   3.044  0.1258 -0.0009 -0.1047
 6626TIP3   OH241368   0.793   6.565  13.678 -0.5078  0.3459  0.0758
 6626TIP3    H141369   0.728   6.633  13.691 -0.7735  0.1003  0.0496
 6626TIP3    H241370   0.750   6.484  13.707 -0.7663 -0.0578 -1.3498
 6627TIP3   OH241371   5.417   0.127   3.265 -0.3662  0.3386 -0.2388
 6627TIP3    H141372   5.361   0.136   3.342  1.3293  0.5335  1.0140
 6627TIP3    H241373   5.398   0.039   3.232 -0.5072 -0.0746  0.9082
 6628TIP3   OH241374   6.069   4.031  15.031 -0.2314  0.6338 -0.5709
 6628TIP3    H141375   6.027   4.090  15.093 -0.9306 -0.3054 -0.1249
 6628TIP3    H241376   6.027   3.947  15.046  1.0094 -0.0753 -0.9250
 6629TIP3   OH241377   4.606   6.246  13.702 -0.0482  0.3642 -0.2567
 6629TIP3    H141378   4.614   6.326  13.755  1.8040 -0.3870  0.6995
 6629TIP3    H241379   4.613   6.276  13.612  0.2293  1.3328  0.0780
 6630TIP3   OH241380   3.795   4.780  11.208  0.1318  0.6698 -0.0294
 6630TIP3    H141381   3.702   4.774  11.187  0.2186 -0.5865 -0.1263
 6630TIP3    H241382   3.837   4.798  11.124  0.0556  0.4081 -0.1228
 6631TIP3   OH241383   2.846   6.371   1.410 -0.0368 -0.1110  0.1138
 6631TIP3    H141384   2.929   6.394   1.368  0.2542 -2.5070 -0.7595
 6631TIP3    H241385   2.790   6.448   1.396  1.0490  0.3782 -1.9703
 6632TIP3   OH241386   5.579   3.569   4.948 -0.5960  0.0896  0.0339
 6632TIP3    H141387   5.529   3.513   5.007 -0.3015 -0.4984 -0.2669
 6632TIP3    H241388   5.619   3.634   5.005 -1.0149  0.0481  0.3758
 6633TIP3   OH241389   5.357   2.732  10.244 -0.1425 -0.5085  0.2542
 6633TIP3    H141390   5.377   2.798  10.311 -0.6124 -0.3029  0.1946
 6633TIP3    H241391   5.440   2.686  10.231 -0.1890 -0.9679  1.4254
 6634TIP3   OH241392   6.254   3.979  15.680  0.0690  0.5094 -0.2585
 6634TIP3    H141393   6.288   3.901  15.637  0.2692  0.0743  0.6639
 6634TIP3    H241394   6.177   3.948  15.729  0.0091  0.9340 -0.0749
 6635TIP3   OH241395   4.250   4.133   1.868 -0.3455 -0.0005  0.4769
 6635TIP3    H141396   4.273   4.222   1.895  0.8191  0.3388 -1.4095
 6635TIP3    H241397   4.155   4.134   1.859 -0.2030  2.0095 -2.3196
 6636TIP3   OH241398   5.158   1.210  11.753 -0.3574 -0.7855 -1.3628
 6636TIP3    H141399   5.109   1.245  11.678 -1.3570 -1.5297 -1.0827
 6636TIP3    H241400   5.233   1.269  11.762 -2.6066  2.1678 -0.0890
 6637TIP3   OH241401   5.721   0.590  11.663  0.6853 -0.3984 -0.0645
 6637TIP3    H141402   5.795   0.576  11.722  1.5351 -0.0135 -1.0212
 6637TIP3    H241403   5.755   0.644  11.593 -0.3316 -0.7761 -0.8855
 6638TIP3   OH241404   0.622   0.156   5.856 -0.7970  0.6111 -0.4608
 6638TIP3    H141405   0.644   0.159   5.949  2.2780  0.7810 -1.0888
 6638TIP3    H241406   0.636   0.064   5.831  0.8520  1.0415 -1.2245
 6639TIP3   OH241407   5.436   0.796  11.927 -0.1352  0.7055 -0.6348
 6639TIP3    H141408   5.354   0.791  11.976 -0.3777  3.3218 -0.6186
 6639TIP3    H241409   5.502   0.763  11.988 -0.9189  0.5060  0.1235
 6640TIP3   OH241410   6.134   1.329  15.602  1.2505  0.1853 -0.1641
 6640TIP3    H141411   6.141   1.236  15.579  1.9653  0.3074 -0.4660
 6640TIP3    H241412   6.149   1.375  15.520  3.7114  0.6305  0.4457
 6641TIP3   OH241413   2.525   5.819  14.270  0.4578  0.0557 -0.3219
 6641TIP3    H141414   2.526   5.745  14.331  0.0336  0.1292 -0.2198
 6641TIP3    H241415   2.502   5.779  14.186  1.9336 -0.1785 -0.6289
 6642TIP3   OH241416   3.206   0.084  11.127 -0.2516  0.0222 -0.2038
 6642TIP3    H141417   3.176   0.011  11.180  1.6854  0.2376  1.2865
 6642TIP3    H241418   3.265   0.045  11.062  0.4950  0.2016  0.3588
 6643TIP3   OH241419   2.830   3.809   0.622 -0.4951 -0.1692 -0.2088
 6643TIP3    H141420   2.896   3.766   0.567 -0.8500 -0.3157 -0.5242
 6643TIP3    H241421   2.857   3.789   0.712 -0.6393 -1.0500 -0.3469
 6644TIP3   OH241422   5.052   3.287  11.449 -0.2464 -0.5143 -0.4636
 6644TIP3    H141423   5.051   3.364  11.393 -1.3018  0.2263  0.5175
 6644TIP3    H241424   5.141   3.281  11.481 -0.1298  0.2348 -0.6355
 6645TIP3   OH241425   3.312   5.950  13.689 -0.8410 -0.6157 -0.3477
 6645TIP3    H141426   3.321   5.922  13.780  2.0013 -1.2016 -0.6958
 6645TIP3    H241427   3.347   6.039  13.687 -2.3230 -0.0171 -0.6352
 6646TIP3   OH241428   1.602   0.705  11.655 -0.5219 -0.3990 -0.3192
 6646TIP3    H141429   1.624   0.612  11.655 -0.7512 -0.4536 -0.2360
 6646TIP3    H241430   1.506   0.707  11.662 -0.4713 -0.1440  0.4166
 6647TIP3   OH241431   6.723   4.118  16.014 -0.0250 -0.5392 -0.0925
 6647TIP3    H141432   6.633   4.110  15.982  0.1842 -0.7245 -0.6473
 6647TIP3    H241433   6.720   4.190  16.077 -0.6116 -0.7101  0.0803
 6648TIP3   OH241434   2.518   6.301   5.850 -0.2499 -0.1581 -0.0512
 6648TIP3    H141435   2.529   6.387   5.890 -0.6380 -0.1944  0.1375
 6648TIP3    H241436   2.524   6.240   5.923  1.5267 -0.4120 -0.3675
 6649TIP3   OH241437   1.585   2.584   3.278 -0.7431 -0.0249 -0.0243
 6649TIP3    H141438   1.532   2.511   3.246  2.0820 -1.5573 -1.6150
 6649TIP3    H241439   1.544   2.662   3.241 -2.0084 -1.0864 -0.9670
 6650TIP3   OH241440   2.330   2.941   3.719  0.0551 -0.0481  0.1976
 6650TIP3    H141441   2.312   2.849   3.698  2.3104  0.2161 -4.3243
 6650TIP3    H241442   2.312   2.988   3.637  0.2087  3.4029  1.9429
 6651TIP3   OH241443   3.554   3.986  15.586  0.0240 -0.3717  0.2232
 6651TIP3    H141444   3.590   3.951  15.667  0.6772 -0.7242 -0.2094
 6651TIP3    H241445   3.617   4.054  15.559 -0.3499 -0.0413  0.1704
 6652TIP3   OH241446   0.253   5.767  12.058  0.0959  0.2798 -0.1208
 6652TIP3    H141447   0.279   5.676  12.077 -1.0019 -0.0476 -0.1382
 6652TIP3    H241448   0.221   5.801  12.142 -1.2956  0.0225 -0.5324
 6653TIP3   OH241449   2.634   4.363  13.630 -0.3994  0.2540 -0.1210
 6653TIP3    H141450   2.709   4.406  13.670 -0.2950 -1.1296  1.2664
 6653TIP3    H241451   2.573   4.348  13.703 -1.2911 -0.1406 -0.9240
 6654TIP3   OH241452   5.062   5.636  13.956 -0.7995 -0.6374  0.0015
 6654TIP3    H141453   5.059   5.731  13.955  0.1371 -0.6023  0.0535
 6654TIP3    H241454   4.974   5.610  13.985 -1.3611  0.1721 -0.9043
 6655TIP3   OH241455   3.651   0.189  14.370  0.1311  0.1903 -0.2383
 6655TIP3    H141456   3.680   0.229  14.288  1.6182 -0.2376  0.0586
 6655TIP3    H241457   3.731   0.177  14.421 -0.6400 -0.5221  0.8489
 6656TIP3   OH241458   1.808   5.437  10.825  0.0350 -0.5746 -0.7345
 6656TIP3    H141459   1.845   5.358  10.863 -0.2987  1.1657  3.8599
 6656TIP3    H241460   1.884   5.493  10.807  0.1562  0.1570  1.6497
 6657TIP3   OH241461   0.117   2.893  16.148 -0.3861  0.8234 -0.0265
 6657TIP3    H141462   0.126   2.890  16.053 -0.1461  1.0988 -0.0114
 6657TIP3    H241463   0.037   2.842  16.166 -0.7282  1.2119 -0.4149
 6658TIP3   OH241464   5.101   2.655   5.402  0.0193 -0.3478  0.1333
 6658TIP3    H141465   5.020   2.668   5.451  0.0488 -1.2011  0.4229
 6658TIP3    H241466   5.130   2.567   5.427  1.7136  0.4134  1.0162
 6659TIP3   OH241467   0.485   6.627  14.479  0.3211  0.3055 -0.2826
 6659TIP3    H141468   0.391   6.640  14.472  0.6162  2.4312 -0.9365
 6659TIP3    H241469   0.510   6.582  14.399 -0.0905 -0.0215 -0.2290
 6660TIP3   OH241470   4.134   5.462   3.285 -0.5397 -0.7558  0.1038
 6660TIP3    H141471   4.214   5.478   3.236 -0.4800  2.2229  1.0155
 6660TIP3    H241472   4.065   5.508   3.237 -1.5225 -2.2101  0.0269
 6661TIP3   OH241473   6.221   0.310  10.684 -0.1556 -0.5075  0.5095
 6661TIP3    H141474   6.306   0.281  10.716  2.2185  1.5148 -3.3206
 6661TIP3    H241475   6.184   0.233  10.641  1.4362 -0.5703 -0.8371
 6662TIP3   OH241476   4.703   1.441   1.638 -0.7444 -0.3577 -0.7192
 6662TIP3    H141477   4.639   1.408   1.575 -0.1749 -2.4574 -0.3009
 6662TIP3    H241478   4.780   1.385   1.625 -1.0381 -1.7446  2.6320
 6663TIP3   OH241479   5.493   0.454   3.345 -0.1408 -0.3732 -0.0509
 6663TIP3    H141480   5.438   0.469   3.268 -0.1452  1.6078  0.2865
 6663TIP3    H241481   5.431   0.443   3.417 -0.1179 -0.5708 -0.0611
 6664TIP3   OH241482   1.518   1.851   2.155 -0.3421 -0.3665 -0.0212
 6664TIP3    H141483   1.535   1.928   2.210  2.1727 -1.3447  0.7045
 6664TIP3    H241484   1.519   1.777   2.215 -1.5596 -1.1304 -0.8796
 6665TIP3   OH241485   2.984   5.896  13.626  0.0846 -0.8746  0.1148
 6665TIP3    H141486   3.022   5.982  13.608 -1.6791 -0.5564 -2.6613
 6665TIP3    H241487   2.908   5.915  13.682  0.2870 -0.7588  0.3524
 6666TIP3   OH241488   2.545   1.905   2.056 -0.3469  0.1829 -0.2786
 6666TIP3    H141489   2.632   1.902   2.017 -0.4412 -2.1356 -0.4268
 6666TIP3    H241490   2.534   1.819   2.097 -2.4811  0.4989 -0.0832
 6667TIP3   OH241491   6.720   3.709  15.856 -0.2690 -0.0665  0.0789
 6667TIP3    H141492   6.803   3.754  15.866 -0.9477  1.1597  0.4447
 6667TIP3    H241493   6.739   3.617  15.874  0.6338  0.4661  2.0463
 6668TIP3   OH241494   0.111   3.429   4.392 -0.1170 -0.2734  0.5794
 6668TIP3    H141495   0.062   3.363   4.442 -0.8935 -0.4137 -0.3446
 6668TIP3    H241496   0.045   3.471   4.337  0.5991  0.3914  0.2143
 6669TIP3   OH241497   0.647   5.922   4.404 -0.1436 -0.2985 -0.2055
 6669TIP3    H141498   0.611   5.931   4.316  1.4974  0.7928 -0.8238
 6669TIP3    H241499   0.714   5.991   4.409  0.9620 -1.4265  1.2893
 6670TIP3   OH241500   4.907   1.087   1.099 -0.2973 -1.0463 -0.2876
 6670TIP3    H141501   4.831   1.052   1.054 -2.6791  2.0533  0.9573
 6670TIP3    H241502   4.942   1.154   1.040 -0.4872 -0.3086  0.4139
 6671TIP3   OH241503   3.967   5.038   2.788  0.2771  0.2888 -0.6198
 6671TIP3    H141504   3.911   5.111   2.816  0.8907  1.0224 -1.2764
 6671TIP3    H241505   3.952   4.970   2.854 -0.6804  0.8205 -0.2732
 6672TIP3   OH241506   6.169   0.697  12.892 -0.7027  0.0717  0.1396
 6672TIP3    H141507   6.171   0.737  12.805 -0.1976  0.1460  0.1832
 6672TIP3    H241508   6.240   0.633  12.890 -1.7297 -1.1123 -0.0608
 6673TIP3   OH241509   2.578   3.486  11.137 -0.0839  0.4937  0.6733
 6673TIP3    H141510   2.615   3.554  11.080  0.2738 -0.2582 -0.0136
 6673TIP3    H241511   2.483   3.501  11.133  0.0556  1.8270  1.6724
 6674TIP3   OH241512   6.770   5.060  11.395 -0.1864 -0.1640  0.0535
 6674TIP3    H141513   6.786   4.970  11.367 -0.3840  0.5590 -2.7017
 6674TIP3    H241514   6.677   5.074  11.378  0.1625  0.9995 -1.0363
 6675TIP3   OH241515   4.886   1.462   5.242 -0.0510 -0.0329 -0.2074
 6675TIP3    H141516   4.954   1.474   5.309 -0.7556  1.0878  0.3402
 6675TIP3    H241517   4.846   1.378   5.264 -1.1713  0.9377  1.6409
 6676TIP3   OH241518   2.042   6.004   5.835 -0.0279  0.1904  0.4752
 6676TIP3    H141519   1.952   5.996   5.868 -1.8176  1.7082 -3.3138
 6676TIP3    H241520   2.042   5.951   5.755  3.5334 -2.2592  1.8487
 6677TIP3   OH241521   2.709   6.019  11.265  0.5055  0.2224  0.2942
 6677TIP3    H141522   2.781   5.962  11.293 -0.4634 -1.0210  0.3363
 6677TIP3    H241523   2.687   5.989  11.177 -1.3092 -0.8482  1.0462
 6678TIP3   OH241524   5.985   4.046   5.637  0.4814  0.6747 -0.4392
 6678TIP3    H141525   5.943   4.087   5.561 -0.0787 -0.0804 -0.5415
 6678TIP3    H241526   5.975   3.952   5.623 -0.9528  0.5128  1.2817
 6679TIP3   OH241527   1.469   0.345   2.922  0.0607  0.5066  0.0182
 6679TIP3    H141528   1.392   0.309   2.879 -0.4095  1.1316  0.3175
 6679TIP3    H241529   1.447   0.347   3.015  0.5627  0.3941  0.1439
 6680TIP3   OH241530   2.425   6.763  11.439 -0.4873 -1.0994 -0.6818
 6680TIP3    H141531   2.475   6.694  11.481  0.7278  1.3446  2.2201
 6680TIP3    H241532   2.489   6.832  11.420 -1.5789 -0.7632 -3.8017
 6681TIP3   OH241533   4.465   6.563   6.205  0.4807 -0.0288  0.4655
 6681TIP3    H141534   4.462   6.631   6.273  1.2973 -0.4774  0.9664
 6681TIP3    H241535   4.413   6.491   6.242 -1.4358  0.7442 -0.5842
 6682TIP3   OH241536   4.296   5.889  15.766 -0.0388  0.2845 -0.4388
 6682TIP3    H141537   4.274   5.801  15.796 -0.9786 -0.2075 -2.4337
 6682TIP3    H241538   4.229   5.910  15.701  1.3995  1.6077 -1.5789
 6683TIP3   OH241539   3.934   0.936  15.547 -0.1547 -0.1384 -0.2829
 6683TIP3    H141540   3.840   0.921  15.552 -0.1201 -0.7333 -1.2594
 6683TIP3    H241541   3.970   0.890  15.623 -0.7819  1.5682  1.1455
 6684TIP3   OH241542   5.064   2.404  16.408  0.2196 -0.0319 -0.5720
 6684TIP3    H141543   5.020   2.445  16.482  0.0482  0.6675 -1.0538
 6684TIP3    H241544   5.000   2.407  16.337 -0.2307 -2.1839 -0.3169
 6685TIP3   OH241545   2.437   0.102   4.316 -0.3878 -0.2099 -0.3746
 6685TIP3    H141546   2.529   0.098   4.291 -0.3912 -1.0773 -0.2867
 6685TIP3    H241547   2.418   0.015   4.351 -0.5326  0.7314  2.0937
 6686TIP3   OH241548   5.528   4.762   5.782 -0.1553  0.1668 -0.9273
 6686TIP3    H141549   5.437   4.767   5.751 -0.3415  2.6000 -0.1808
 6686TIP3    H241550   5.521   4.768   5.877  0.7877 -0.3389 -0.8145
 6687TIP3   OH241551   5.074   1.219   0.878 -0.2674 -0.0160 -0.0720
 6687TIP3    H141552   5.114   1.206   0.792 -1.9834  1.8566 -1.2611
 6687TIP3    H241553   5.146   1.207   0.940  0.3569 -4.8938 -1.3718
 6688TIP3   OH241554   5.572   0.696   5.131 -0.3270  0.1005 -0.2518
 6688TIP3    H141555   5.526   0.676   5.050  1.8826 -0.2287 -1.5222
 6688TIP3    H241556   5.597   0.788   5.121 -1.6038  0.6048  0.9212
 6689TIP3   OH241557   4.958   3.487  12.316  0.0499 -0.4551  0.2751
 6689TIP3    H141558   4.914   3.571  12.333  2.2149  0.9631 -0.6976
 6689TIP3    H241559   4.907   3.449  12.244 -0.3376  0.5701 -0.0266
 6690TIP3   OH241560   4.642   0.576  14.895 -0.4696  0.8822 -0.2839
 6690TIP3    H141561   4.610   0.493  14.858 -0.0895 -0.0412  1.3623
 6690TIP3    H241562   4.564   0.618  14.930 -0.2266 -0.7789  2.5888
 6691TIP3   OH241563   3.531   3.282  14.404 -0.1252 -0.2153  0.2881
 6691TIP3    H141564   3.496   3.256  14.489  0.2268 -0.6122  0.3140
 6691TIP3    H241565   3.460   3.333  14.363  0.6686  2.3978  1.9250
 6692TIP3   OH241566   4.919   4.898  14.267  0.5999  0.1441 -0.1627
 6692TIP3    H141567   4.832   4.911  14.305 -0.1529 -1.1072 -1.3613
 6692TIP3    H241568   4.939   4.805  14.285  0.5005 -0.3064 -2.1866
 6693TIP3   OH241569   6.065   0.475   5.898 -0.4314 -0.0612  0.0342
 6693TIP3    H141570   6.054   0.523   5.816  0.7092  0.1822  0.0078
 6693TIP3    H241571   6.128   0.526   5.948 -0.0992 -0.9011  0.5004
 6694TIP3   OH241572   3.675   0.291   0.673 -0.0653  0.2497 -0.1169
 6694TIP3    H141573   3.769   0.304   0.662 -0.0246  0.6685  0.6571
 6694TIP3    H241574   3.653   0.342   0.751 -1.0416  0.6558 -0.6406
 6695TIP3   OH241575   4.792   2.179   1.193 -0.0294  0.1479  0.0513
 6695TIP3    H141576   4.792   2.085   1.211 -0.4954 -0.1662 -1.4238
 6695TIP3    H241577   4.701   2.206   1.207 -0.6161 -0.2845 -2.4466
 6696TIP3   OH241578   0.971   2.694   5.231  0.4472 -0.0468 -0.1173
 6696TIP3    H141579   0.990   2.614   5.182  1.0198 -0.9111  1.4358
 6696TIP3    H241580   1.057   2.722   5.264  0.0240  0.2234  0.7757
 6697TIP3   OH241581   0.045   3.230  14.319 -0.0062  0.1959  0.2993
 6697TIP3    H141582   0.034   3.144  14.359 -0.5140  1.4934  3.2603
 6697TIP3    H241583   0.140   3.243  14.316  0.1677  1.2684  4.3819
 6698TIP3   OH241584   1.058   3.253  14.351 -0.0809  0.7223 -0.2356
 6698TIP3    H141585   1.009   3.335  14.341 -2.0267 -0.2828  0.5717
 6698TIP3    H241586   1.144   3.281  14.382  0.2197  2.6072 -2.4930
 6699TIP3   OH241587   3.358   5.387   4.040  0.5397 -0.1856 -0.1346
 6699TIP3    H141588   3.335   5.439   4.117 -2.4453  1.0609 -1.7037
 6699TIP3    H241589   3.367   5.298   4.072 -1.1137  0.2228  1.6242
 6700TIP3   OH241590   3.951   3.523  12.156  0.5271 -0.5415  0.6863
 6700TIP3    H141591   4.018   3.537  12.223  1.0151 -1.8863  0.5127
 6700TIP3    H241592   3.913   3.438  12.178 -2.7710  1.1194  2.1442
 6701TIP3   OH241593   2.413   5.175  13.872 -0.2416 -0.3181  0.0558
 6701TIP3    H141594   2.414   5.079  13.882  3.6478 -0.2696  1.7326
 6701TIP3    H241595   2.392   5.208  13.959  3.8769  0.1802  1.0652
 6702TIP3   OH241596   0.288   4.987  14.245  0.0095 -0.0054 -0.1638
 6702TIP3    H141597   0.381   5.002  14.263 -0.2634 -0.3211  1.7490
 6702TIP3    H241598   0.281   4.892  14.234  0.0415  0.1088 -1.2844
 6703TIP3   OH241599   5.250   5.560   4.768  0.2005  0.2871  0.0894
 6703TIP3    H141600   5.267   5.654   4.772  0.0767  0.2914  0.5776
 6703TIP3    H241601   5.314   5.527   4.705 -1.0697  0.9842 -1.6379
 6704TIP3   OH241602   5.398   0.540   4.923 -0.4589  0.3697 -0.0110
 6704TIP3    H141603   5.367   0.466   4.975 -1.6385  1.5439  1.0215
 6704TIP3    H241604   5.397   0.508   4.833  0.2385 -1.2456  0.5117
 6705TIP3   OH241605   1.065   3.547   3.366 -0.2524 -0.0013  0.3238
 6705TIP3    H141606   1.124   3.510   3.432 -0.8141  1.1942  1.5590
 6705TIP3    H241607   1.123   3.574   3.294  0.4076 -1.0498  0.4472
 6706TIP3   OH241608   2.519   1.968   6.416  0.0538  0.6314  0.6302
 6706TIP3    H141609   2.529   2.052   6.460  0.3201  0.1189  1.5809
 6706TIP3    H241610   2.458   1.919   6.472  0.3691 -0.0201  0.4088
 6707TIP3   OH241611   1.061   3.711   4.426  0.3635  0.4281 -0.3576
 6707TIP3    H141612   1.083   3.629   4.382 -0.1985 -1.0617  1.9641
 6707TIP3    H241613   1.142   3.735   4.472  0.0031  0.1590  0.4322
 6708TIP3   OH241614   5.983   4.979  11.525 -0.4232 -0.0970 -0.6645
 6708TIP3    H141615   6.074   4.982  11.498 -0.3692 -0.9545 -0.6065
 6708TIP3    H241616   5.982   5.018  11.612 -0.3723  1.3429 -1.2723
 6709TIP3   OH241617   3.955   0.725  13.634 -0.7698  0.1724  0.7856
 6709TIP3    H141618   3.928   0.717  13.725 -2.9919 -2.0595  0.0584
 6709TIP3    H241619   3.953   0.635  13.600 -2.4985  1.1288 -2.0586
 6710TIP3   OH241620   1.211   3.425   5.258  0.2561 -0.4540 -0.4412
 6710TIP3    H141621   1.268   3.350   5.243  0.6570 -0.1055 -0.6667
 6710TIP3    H241622   1.269   3.501   5.255 -0.1268 -0.1414 -0.0981
 6711TIP3   OH241623   5.057   2.749  12.262  0.1568 -0.4686 -0.0075
 6711TIP3    H141624   5.029   2.759  12.353  0.6930  0.5783  0.0639
 6711TIP3    H241625   5.118   2.822  12.248  1.8180 -1.8976 -0.5379
 6712TIP3   OH241626   1.912   2.391   6.729 -0.0617  0.0647  0.7485
 6712TIP3    H141627   1.855   2.452   6.775  0.9614  1.2002  0.5608
 6712TIP3    H241628   1.938   2.437   6.649 -0.0116 -0.9860  0.1374
 6713TIP3   OH241629   2.164   3.005  12.018 -0.1300 -0.2137  0.2383
 6713TIP3    H141630   2.205   3.076  12.067 -0.1184  0.4892 -0.7811
 6713TIP3    H241631   2.097   2.971  12.077 -2.0719  2.4603 -0.2346
 6714TIP3   OH241632   1.940   6.455   2.902  0.7219 -0.3529 -0.1551
 6714TIP3    H141633   1.945   6.375   2.954 -1.8672  1.2817  2.9668
 6714TIP3    H241634   2.001   6.515   2.945  0.0772  0.4158 -0.2934
 6715TIP3   OH241635   1.502   1.307   2.906 -0.5677  0.3411 -0.5733
 6715TIP3    H141636   1.475   1.229   2.955 -2.0502  0.6194 -0.8979
 6715TIP3    H241637   1.494   1.379   2.968 -1.5209  0.5557 -0.9205
 6716TIP3   OH241638   5.639   5.270   5.106  0.1358 -0.7472  0.1711
 6716TIP3    H141639   5.636   5.330   5.031  1.3628 -0.0951  0.6141
 6716TIP3    H241640   5.549   5.266   5.137 -0.4452 -1.2134 -1.4603
 6717TIP3   OH241641   4.897   4.158  11.050 -0.7399  0.0497  0.1409
 6717TIP3    H141642   4.879   4.085  10.991  0.5640  0.3771 -0.7132
 6717TIP3    H241643   4.903   4.234  10.992 -1.5691  0.7695  0.9589
 6718TIP3   OH241644   6.417   1.613   0.376 -0.3900  0.0238  0.3522
 6718TIP3    H141645   6.430   1.559   0.299 -2.7760 -2.3587  1.4883
 6718TIP3    H241646   6.426   1.703   0.344 -0.8639 -0.8772 -2.5882
 6719TIP3   OH241647   3.333   5.069   6.142  0.0579 -0.3244  0.0312
 6719TIP3    H141648   3.367   5.119   6.216 -3.3662 -0.0889  1.6449
 6719TIP3    H241649   3.410   5.045   6.092  2.6347 -0.5692  3.7006
 6720TIP3   OH241650   2.229   0.616  13.880 -0.2405  0.3363  0.3906
 6720TIP3    H141651   2.316   0.651  13.900 -0.6640  2.6143 -1.3377
 6720TIP3    H241652   2.178   0.631  13.959  0.1241  1.9206  0.3550
 6721TIP3   OH241653   0.473   4.593  16.950 -0.0033 -0.0823  0.4171
 6721TIP3    H141654   0.565   4.582  16.928  0.2107  0.0290  1.2391
 6721TIP3    H241655   0.461   4.542  17.030 -0.6892 -0.2025  0.2452
 6722TIP3   OH241656   4.264   0.942  14.403 -0.1144 -0.1167  0.2712
 6722TIP3    H141657   4.205   1.013  14.376 -0.2304  0.1779  1.2503
 6722TIP3    H241658   4.310   0.917  14.323  0.2768  1.3897  0.0017
 6723TIP3   OH241659   5.203   2.686   1.089  0.3135  0.2053  0.2500
 6723TIP3    H141660   5.129   2.700   1.148  0.9757  2.2112  0.6647
 6723TIP3    H241661   5.224   2.593   1.100 -1.9347 -0.3655  0.3142
 6724TIP3   OH241662   5.206   1.118  12.832 -0.1500  0.2116 -0.2432
 6724TIP3    H141663   5.125   1.123  12.884  0.7462  3.9517  1.1212
 6724TIP3    H241664   5.176   1.094  12.744 -2.5338 -0.1677  0.5799
 6725TIP3   OH241665   2.890   2.259   1.754 -0.1242  0.2356 -0.3389
 6725TIP3    H141666   2.810   2.306   1.775  0.1583  1.1327 -1.1913
 6725TIP3    H241667   2.960   2.308   1.798 -0.1352 -1.2114  1.3772
 6726TIP3   OH241668   6.492   6.509  12.551  0.0511 -0.1545 -0.8015
 6726TIP3    H141669   6.429   6.567  12.509  0.4220 -0.9198 -2.5213
 6726TIP3    H241670   6.523   6.452  12.480  2.4604 -0.0077  0.0334
 6727TIP3   OH241671   4.263   3.932  15.998 -0.0347 -0.0497 -0.1853
 6727TIP3    H141672   4.268   3.929  16.094  0.8798 -2.4471 -0.2391
 6727TIP3    H241673   4.329   3.997  15.973 -0.2455  0.5658  0.7817
 6728TIP3   OH241674   1.730   1.226  12.365 -0.5618  0.0384 -0.0719
 6728TIP3    H141675   1.824   1.211  12.355 -0.9374 -2.8108 -0.0744
 6728TIP3    H241676   1.724   1.310  12.411  2.1153 -1.1016  2.6907
 6729TIP3   OH241677   5.244   5.977   2.719  0.0267  0.2327  0.5183
 6729TIP3    H141678   5.243   5.905   2.655  0.6074  0.5128  0.1850
 6729TIP3    H241679   5.199   6.049   2.674  1.9001  0.9767 -0.2534
 6730TIP3   OH241680   2.869   2.977   6.377 -0.1877  0.5753  0.0726
 6730TIP3    H141681   2.835   2.889   6.392  1.4453 -0.4923 -2.0395
 6730TIP3    H241682   2.791   3.032   6.370 -1.2391 -0.6362  1.4891
 6731TIP3   OH241683   5.266   3.008   2.921 -0.2183 -0.0693  0.2416
 6731TIP3    H141684   5.193   2.948   2.907 -0.4180  0.5881 -1.9456
 6731TIP3    H241685   5.224   3.088   2.955 -0.2933 -0.2360  0.5483
 6732TIP3   OH241686   2.659   6.585  14.602  0.0424  0.2315 -0.0030
 6732TIP3    H141687   2.636   6.493  14.609 -0.2775  0.0765 -2.3711
 6732TIP3    H241688   2.709   6.591  14.521 -0.0947  2.1632  0.0124
 6733TIP3   OH241689   0.840   4.594   4.745  0.1569 -0.7783  0.1555
 6733TIP3    H141690   0.776   4.612   4.813 -0.1153  1.1849 -0.5611
 6733TIP3    H241691   0.914   4.555   4.792 -0.7568 -1.2300  1.2689
 6734TIP3   OH241692   1.203   4.883  13.757 -0.1969  0.1312 -0.0707
 6734TIP3    H141693   1.264   4.853  13.690 -1.6098 -0.9246 -0.9579
 6734TIP3    H241694   1.128   4.916  13.706 -0.7120  0.6388  0.9903
 6735TIP3   OH241695   2.589   0.126  11.399  0.1998  0.2306 -0.0022
 6735TIP3    H141696   2.539   0.197  11.439 -0.1350  0.3548 -0.6166
 6735TIP3    H241697   2.678   0.137  11.433 -0.0998  0.2433  0.7985
 6736TIP3   OH241698   3.230   1.554   3.579  0.4614  0.5894  0.2343
 6736TIP3    H141699   3.223   1.496   3.502 -0.3400 -1.3828  1.7079
 6736TIP3    H241700   3.252   1.639   3.542  0.8187 -0.4342 -2.1344
 6737TIP3   OH241701   0.250   5.669  14.637  0.0474 -0.6018 -0.9454
 6737TIP3    H141702   0.315   5.650  14.569  0.7902  0.2838 -0.5103
 6737TIP3    H241703   0.290   5.638  14.718  0.4314  0.9122 -0.5189
 6738TIP3   OH241704   4.425   5.381   5.255 -0.3035  0.1924  0.0717
 6738TIP3    H141705   4.438   5.402   5.163  1.2666  0.3567  0.2908
 6738TIP3    H241706   4.514   5.371   5.290 -0.8864 -1.1221  1.2871
 6739TIP3   OH241707   5.228   3.746  16.034 -0.0884 -0.3495  0.0099
 6739TIP3    H141708   5.320   3.723  16.044  0.3218  0.8765 -0.7565
 6739TIP3    H241709   5.194   3.683  15.969  0.5938  0.1316 -0.8326
 6740TIP3   OH241710   5.022   4.357   2.194  0.1179 -0.0146  0.0885
 6740TIP3    H141711   4.959   4.353   2.266 -0.1248 -1.5806 -0.1693
 6740TIP3    H241712   5.087   4.290   2.215  1.7228  1.5227  0.3223
 6741TIP3   OH241713   5.776   4.627   0.173 -0.4936  0.3993  0.0092
 6741TIP3    H141714   5.858   4.578   0.178 -0.6369  0.1502 -0.0668
 6741TIP3    H241715   5.723   4.592   0.245 -1.1915 -0.6612 -0.9836
 6742TIP3   OH241716   5.902   3.560   5.140  0.3839  0.6435 -0.0805
 6742TIP3    H141717   5.884   3.486   5.083  1.0847  0.8242 -0.5524
 6742TIP3    H241718   5.845   3.547   5.216 -0.5008  0.3541 -0.7827
 6743TIP3   OH241719   4.446   6.149   2.531 -0.1733 -0.4110 -0.1859
 6743TIP3    H141720   4.470   6.197   2.452 -1.8515  0.4402 -0.2243
 6743TIP3    H241721   4.530   6.127   2.572  0.7061 -0.0857 -1.7159
 6744TIP3   OH241722   5.780   6.631   2.489  0.4250  0.5948 -0.3857
 6744TIP3    H141723   5.873   6.644   2.507  0.3089  0.0325  0.6587
 6744TIP3    H241724   5.739   6.628   2.575 -0.3377 -0.7771 -0.7665
 6745TIP3   OH241725   2.779   4.530   3.384  0.6463 -0.2661 -0.9781
 6745TIP3    H141726   2.863   4.566   3.356  0.9006 -0.3706 -0.3649
 6745TIP3    H241727   2.790   4.514   3.477 -0.3751  0.6193 -0.6835
 6746TIP3   OH241728   5.629   1.311  13.257 -0.0410  0.0208  0.2003
 6746TIP3    H141729   5.560   1.256  13.220  1.8070 -0.7027 -2.5143
 6746TIP3    H241730   5.675   1.253  13.318 -0.3499 -0.2509  0.1803
 6747TIP3   OH241731   1.079   5.644   5.348  0.0678 -0.0375 -0.2256
 6747TIP3    H141732   0.989   5.661   5.319 -0.7568  0.4977  2.4342
 6747TIP3    H241733   1.079   5.553   5.375  0.6758 -0.3630 -1.2539
 6748TIP3   OH241734   3.318   0.613   3.803 -0.6530 -0.0223 -0.0337
 6748TIP3    H141735   3.347   0.704   3.808  2.9360 -0.8161 -2.8369
 6748TIP3    H241736   3.337   0.578   3.890 -1.3884  1.6582  0.8612
 6749TIP3   OH241737   5.500   3.039  11.523 -0.2705  0.2046 -0.2094
 6749TIP3    H141738   5.542   2.956  11.545  0.2459  0.9574  1.8636
 6749TIP3    H241739   5.569   3.104  11.531 -1.2612  1.1631  0.8732
 6750TIP3   OH241740   5.198   0.489   1.749  0.0862  0.2345 -0.4136
 6750TIP3    H141741   5.103   0.482   1.744  0.1513 -1.4210 -0.0229
 6750TIP3    H241742   5.218   0.472   1.841  0.9050 -2.6249 -1.0168
 6751TIP3   OH241743   5.436   4.442   0.197 -0.8195  0.2088  0.2597
 6751TIP3    H141744   5.441   4.349   0.178 -2.0867  0.0286  0.6997
 6751TIP3    H241745   5.500   4.456   0.266 -1.4581 -0.5889  1.0409
 6752TIP3   OH241746   5.568   4.203   2.986  0.0046  0.3069 -0.5472
 6752TIP3    H141747   5.531   4.129   3.036 -0.2134 -0.2880 -1.5695
 6752TIP3    H241748   5.499   4.226   2.923  0.7095  0.3077 -1.3316
 6753TIP3   OH241749   0.090   4.674   0.184  0.1357 -0.6115 -0.3297
 6753TIP3    H141750   0.112   4.696   0.275 -1.0754 -0.8669  0.0430
 6753TIP3    H241751   0.173   4.648   0.145  0.8605  0.5433  0.4004
 6754TIP3   OH241752   5.588   5.013  12.287  0.2894 -0.4838 -0.0635
 6754TIP3    H141753   5.548   4.932  12.319 -0.3397 -0.3909 -0.5987
 6754TIP3    H241754   5.515   5.067  12.260  0.7676 -0.7635 -2.1568
 6755TIP3   OH241755   3.243   4.790  14.949  0.3189  0.2017 -0.3291
 6755TIP3    H141756   3.286   4.737  15.016 -0.6939 -0.5349 -0.2477
 6755TIP3    H241757   3.163   4.742  14.928  0.8412  0.1536 -2.4057
 6756TIP3   OH241758   3.064   1.966  13.504  0.2948  0.1227 -0.0420
 6756TIP3    H141759   3.086   2.011  13.422  1.7052 -1.5841 -0.6740
 6756TIP3    H241760   3.047   1.876  13.477 -1.8395  0.0900  1.2526
 6757TIP3   OH241761   4.099   3.712  12.304 -0.5078 -0.6379  0.7202
 6757TIP3    H141762   4.142   3.721  12.219 -1.2453 -1.9039  0.1802
 6757TIP3    H241763   4.013   3.752  12.291 -1.0574 -1.8725  0.5084
 6758TIP3   OH241764   4.977   0.655   1.833 -0.7074  0.1144  0.0523
 6758TIP3    H141765   5.018   0.703   1.760 -0.6065  0.8754  0.5951
 6758TIP3    H241766   4.939   0.578   1.792 -1.7063  1.1291 -1.0128
 6759TIP3   OH241767   4.663   2.301  16.674  0.5845 -0.4182  0.3616
 6759TIP3    H141768   4.582   2.332  16.714 -0.2217 -1.6112 -0.2875
 6759TIP3    H241769   4.637   2.269  16.588  1.6907 -1.0967  0.2605
 6760TIP3   OH241770   3.018   5.440  15.294 -0.3326 -0.0929 -0.0731
 6760TIP3    H141771   2.931   5.476  15.279 -0.1453  0.0560 -0.8270
 6760TIP3    H241772   3.003   5.350  15.322 -0.7761  0.3294  1.1295
 6761TIP3   OH241773   4.319   6.502   5.660  0.8999 -0.3823 -0.5301
 6761TIP3    H141774   4.227   6.488   5.679  1.2935 -0.4303  1.6539
 6761TIP3    H241775   4.355   6.414   5.647  0.8974 -0.4878  0.1250
 6762TIP3   OH241776   4.322   2.089  16.726  0.1193  0.4923  0.1703
 6762TIP3    H141777   4.248   2.085  16.787 -1.2684 -0.3954 -1.4707
 6762TIP3    H241778   4.398   2.066  16.779 -1.2376 -1.8170  1.2874
 6763TIP3   OH241779   5.455   2.760  16.965 -0.2801  0.2235  0.2787
 6763TIP3    H141780   5.544   2.782  16.992  0.0117 -0.8826  0.2880
 6763TIP3    H241781   5.412   2.844  16.949  0.4036  0.8048  1.4124
 6764TIP3   OH241782   4.120   2.773   6.200  0.0977 -0.2264  0.5786
 6764TIP3    H141783   4.101   2.689   6.158  0.4420  0.1090 -0.2679
 6764TIP3    H241784   4.060   2.777   6.275 -0.9638 -0.5713 -0.2233
 6765TIP3   OH241785   3.109   4.016  13.878 -0.2037  0.3175 -0.3519
 6765TIP3    H141786   3.152   3.982  13.957 -2.4018  1.9992  1.7158
 6765TIP3    H241787   3.074   3.939  13.834  0.8749 -0.6421  0.4172
 6766TIP3   OH241788   1.017   3.577   2.862 -0.5359  0.4239 -0.0279
 6766TIP3    H141789   0.958   3.644   2.897 -2.2506  0.0527 -2.0675
 6766TIP3    H241790   1.028   3.515   2.935 -1.9705  0.9484  0.6738
 6767TIP3   OH241791   0.939   5.231   1.096  0.1968  0.5521 -0.2250
 6767TIP3    H141792   0.939   5.265   1.186 -0.4475 -1.1747  0.4741
 6767TIP3    H241793   0.898   5.301   1.045 -2.6400  0.2872  1.4275
 6768TIP3   OH241794   4.482   2.434  15.490  0.0681  0.0178  0.4269
 6768TIP3    H141795   4.528   2.390  15.419 -2.4283 -0.7002 -0.8453
 6768TIP3    H241796   4.480   2.370  15.561 -0.4755 -0.6035 -0.1415
 6769TIP3   OH241797   4.615   5.552  11.921 -0.0744 -0.1054  0.5895
 6769TIP3    H141798   4.665   5.582  11.845  0.4830  0.4301  1.1553
 6769TIP3    H241799   4.601   5.631  11.973 -1.1186 -0.3242  0.6778
 6770TIP3   OH241800   4.925   4.006  14.450 -0.5031 -0.6498  0.2073
 6770TIP3    H141801   4.896   4.045  14.532  0.4756 -0.0094  0.2641
 6770TIP3    H241802   4.930   4.079  14.388  2.8193 -0.2936  0.7078
 6771TIP3   OH241803   6.054   3.093   3.122  0.5455 -0.2576  0.0071
 6771TIP3    H141804   6.139   3.136   3.114 -0.0121  0.7657 -0.6604
 6771TIP3    H241805   6.017   3.127   3.204  0.7450 -0.6450  0.2593
 6772TIP3   OH241806   6.084   6.755   4.745  0.3306 -0.3033  0.5671
 6772TIP3    H141807   6.127   6.682   4.790  0.5299  0.1474  1.1232
 6772TIP3    H241808   6.010   6.778   4.802 -0.6495 -1.0632 -0.3768
 6773TIP3   OH241809   5.255   3.379  15.600 -0.1087 -0.2041 -0.1016
 6773TIP3    H141810   5.312   3.456  15.598 -1.3676  0.8359  1.3615
 6773TIP3    H241811   5.185   3.400  15.537 -0.2334 -0.3238 -0.0037
 6774TIP3   OH241812   3.574   0.974  12.533 -0.0600  0.6104  0.1431
 6774TIP3    H141813   3.602   0.942  12.447 -0.5142  0.3238  0.0988
 6774TIP3    H241814   3.614   0.914  12.595 -0.2854  0.4070  0.0954
 6775TIP3   OH241815   4.543   2.286   4.524 -0.2982 -0.3689 -0.2050
 6775TIP3    H141816   4.619   2.282   4.466  0.3051 -0.0546  0.5403
 6775TIP3    H241817   4.469   2.262   4.469  0.1294  0.7920 -1.3198
 6776TIP3   OH241818   1.746   2.321  14.589  0.6748  0.7758 -0.1756
 6776TIP3    H141819   1.822   2.290  14.639  2.3358  0.4252 -2.7237
 6776TIP3    H241820   1.751   2.274  14.506 -2.0010  1.2535 -0.6959
 6777TIP3   OH241821   6.149   0.872   1.952 -0.1014  0.3305  0.3216
 6777TIP3    H141822   6.242   0.867   1.934 -0.1357 -1.6716  0.4094
 6777TIP3    H241823   6.107   0.849   1.869 -0.4173 -1.1845  0.8577
 6778TIP3   OH241824   0.071   0.780  14.421 -0.0087  0.0655 -0.0921
 6778TIP3    H141825   0.120   0.741  14.493 -0.5158 -0.6840 -0.1483
 6778TIP3    H241826   0.011   0.841  14.463  0.2831  0.2532  0.0522
 6779TIP3   OH241827   4.178   3.766  11.436  0.4000  0.1406 -0.2265
 6779TIP3    H141828   4.185   3.670  11.434  1.2432  0.1922 -0.5998
 6779TIP3    H241829   4.231   3.792  11.512 -0.2675  0.2826  0.1911
 6780TIP3   OH241830   1.087   6.049   2.818 -0.4956 -0.6333 -0.2638
 6780TIP3    H141831   1.081   5.989   2.893  0.4923 -0.3241  0.0841
 6780TIP3    H241832   1.128   5.997   2.749  1.2025 -0.1421  0.3238
 6781TIP3   OH241833   5.002   3.070  12.605  0.2831  0.9775 -0.2047
 6781TIP3    H141834   4.999   3.127  12.528  0.5939  0.0085 -0.9526
 6781TIP3    H241835   5.096   3.059  12.623  0.2930 -0.4310 -0.9567
 6782TIP3   OH241836   2.378   0.201  11.223 -0.3534  0.6388 -0.1583
 6782TIP3    H141837   2.453   0.258  11.209 -1.1153  1.2594 -2.0793
 6782TIP3    H241838   2.394   0.125  11.167 -1.0933  0.7344 -0.5205
 6783TIP3   OH241839   3.545   4.264  10.907  0.6285  0.3772  0.1998
 6783TIP3    H141840   3.457   4.230  10.920  0.8792  0.0032  0.9776
 6783TIP3    H241841   3.591   4.194  10.860  1.2104 -0.5006  2.0040
 6784TIP3   OH241842   6.811   0.330  15.153  0.2729 -0.4038 -0.3438
 6784TIP3    H141843   6.797   0.396  15.085  0.7608 -0.0760 -0.1310
 6784TIP3    H241844   6.871   0.372  15.214  1.0669 -1.2619 -0.5142
 6785TIP3   OH241845   4.706   6.561  13.625  0.0983  0.4374  0.1238
 6785TIP3    H141846   4.726   6.515  13.707  0.9956 -0.6569 -0.6867
 6785TIP3    H241847   4.694   6.652  13.651 -2.0452 -0.2421  1.8382
 6786TIP3   OH241848   2.163   0.950  16.790  0.4211  0.3743 -0.0721
 6786TIP3    H141849   2.125   0.863  16.783  0.3275  0.3881  0.2508
 6786TIP3    H241850   2.256   0.937  16.774  0.8964 -0.2246  2.6851
 6787TIP3   OH241851   2.494   3.126  15.543 -0.2762  0.5079 -0.2521
 6787TIP3    H141852   2.434   3.087  15.606 -0.0323 -0.1415 -0.4197
 6787TIP3    H241853   2.475   3.220  15.547  0.0594  0.5312  1.1281
 6788TIP3   OH241854   4.219   4.077  13.234 -0.0824  0.3874  0.1320
 6788TIP3    H141855   4.154   4.138  13.268  1.1858  1.1885  1.2583
 6788TIP3    H241856   4.282   4.066  13.306  2.2393  1.4254 -1.6019
 6789TIP3   OH241857   4.383   5.257  12.955  0.5361  0.3107  0.0436
 6789TIP3    H141858   4.318   5.323  12.931 -1.1761 -1.5220 -0.6231
 6789TIP3    H241859   4.466   5.303  12.950 -0.5456  2.2945 -0.8639
 6790TIP3   OH241860   0.326   0.040   3.325 -0.6936  0.4097  0.4629
 6790TIP3    H141861   0.232   0.056   3.324 -0.7934 -0.0476  1.6074
 6790TIP3    H241862   0.347   0.013   3.236 -2.1445 -2.2896  0.8631
 6791TIP3   OH241863   2.138   6.740   2.849 -0.4059 -0.1126  0.2054
 6791TIP3    H141864   2.058   6.767   2.894 -0.3470 -0.4217  0.4972
 6791TIP3    H241865   2.157   6.812   2.789  0.3794  1.0587  1.7738
 6792TIP3   OH241866   4.220   3.480   5.628 -0.2555 -0.1310 -0.4405
 6792TIP3    H141867   4.227   3.525   5.712  1.1163 -1.7079  0.3464
 6792TIP3    H241868   4.137   3.431   5.635 -0.0353 -0.4393  0.1104
 6793TIP3   OH241869   0.601   3.039  14.516  0.1649  0.1106 -0.0144
 6793TIP3    H141870   0.525   2.982  14.509  0.3352 -0.1124 -0.0624
 6793TIP3    H241871   0.674   2.980  14.534  0.1853  0.4122  0.9343
 6794TIP3   OH241872   6.573   1.327   6.472  0.1924  0.3505 -0.1718
 6794TIP3    H141873   6.547   1.413   6.506 -1.4355  0.6391 -1.9782
 6794TIP3    H241874   6.668   1.334   6.460  0.0667  1.9774 -0.4761
 6795TIP3   OH241875   1.863   5.383   1.715 -0.0206  0.9153 -0.1000
 6795TIP3    H141876   1.784   5.418   1.673 -0.3098 -1.1996 -1.4648
 6795TIP3    H241877   1.931   5.391   1.649 -0.0442 -0.7695 -0.3766
 6796TIP3   OH241878   6.776   3.082   4.908 -0.0106 -0.1826 -0.0388
 6796TIP3    H141879   6.766   3.064   5.001 -0.8560  1.0170  0.1183
 6796TIP3    H241880   6.711   3.149   4.889  0.3136 -0.2378 -1.4453
 6797TIP3   OH241881   3.329   4.007   3.294  0.7408 -0.4908  0.5074
 6797TIP3    H141882   3.283   3.959   3.226 -1.3506  1.4355  0.4344
 6797TIP3    H241883   3.278   3.991   3.374  0.3893  0.9884  0.6121
 6798TIP3   OH241884   5.412   0.557  12.498  0.3372  0.1887 -0.7152
 6798TIP3    H141885   5.467   0.630  12.526  2.7129 -1.7551  0.0216
 6798TIP3    H241886   5.339   0.557  12.560  1.9015  0.1579  1.2136
 6799TIP3   OH241887   2.840   4.214  11.889  0.3694 -0.0216  0.0463
 6799TIP3    H141888   2.792   4.281  11.841 -1.5807 -0.8858  0.7136
 6799TIP3    H241889   2.877   4.158  11.820 -2.8320 -1.5613 -0.6295
 6800TIP3   OH241890   1.601   0.363  11.855  0.4731  0.1624 -0.1326
 6800TIP3    H141891   1.687   0.339  11.889  0.1761 -2.1539 -0.8675
 6800TIP3    H241892   1.539   0.310  11.906 -0.6230  2.0710  0.6595
 6801TIP3   OH241893   1.538   5.490   4.248 -0.2019 -0.0072  0.2620
 6801TIP3    H141894   1.549   5.585   4.260 -2.2907  0.1458  1.6775
 6801TIP3    H241895   1.533   5.456   4.338  2.1431 -1.7457 -0.1941
 6802TIP3   OH241896   6.613   0.830   4.443 -0.0827  0.2519 -0.0913
 6802TIP3    H141897   6.680   0.864   4.502 -0.0953  1.1189 -0.5560
 6802TIP3    H241898   6.630   0.873   4.359  0.1246 -1.1899 -0.8246
 6803TIP3   OH241899   6.490   6.611  14.290  0.0429  0.1621 -0.1488
 6803TIP3    H141900   6.472   6.687  14.234  0.0736 -1.5237 -2.6070
 6803TIP3    H241901   6.585   6.612  14.301  0.0449  0.4591 -0.1677
 6804TIP3   OH241902   4.306   5.853  13.462  0.3606  0.6875  0.1559
 6804TIP3    H141903   4.355   5.882  13.385 -1.7480  0.5956 -1.3164
 6804TIP3    H241904   4.303   5.929  13.519  1.0389  1.0982 -0.3380
 6805TIP3   OH241905   3.531   1.442  14.713  0.3034 -0.0428  0.3824
 6805TIP3    H141906   3.610   1.404  14.750 -0.2007 -1.9072 -0.3765
 6805TIP3    H241907   3.524   1.528  14.755  2.0749 -0.3195  1.3261
 6806TIP3   OH241908   1.915   3.559  12.486  0.6941  0.1788 -0.0035
 6806TIP3    H141909   1.938   3.639  12.533 -0.1474  0.1182  0.5318
 6806TIP3    H241910   1.861   3.588  12.413 -0.3522  0.0382  0.6970
 6807TIP3   OH241911   5.053   2.384   1.314  0.1145  0.1280 -0.1669
 6807TIP3    H141912   5.040   2.371   1.220 -0.1884  0.9459 -0.2432
 6807TIP3    H241913   5.148   2.390   1.324  0.0888  1.8160 -0.6852
 6808TIP3   OH241914   1.577   3.129   4.340 -0.5898 -0.4131  0.4699
 6808TIP3    H141915   1.564   3.044   4.297 -0.0172 -0.9851  1.3886
 6808TIP3    H241916   1.672   3.134   4.352 -0.6650  0.1671  0.8206
 6809TIP3   OH241917   5.493   6.239   1.076 -0.7350  0.3376 -0.3741
 6809TIP3    H141918   5.511   6.249   0.983  0.3681  1.1970 -0.0856
 6809TIP3    H241919   5.558   6.294   1.120 -0.0271 -1.4493  0.9868
 6810TIP3   OH241920   2.849   5.127   2.909 -0.6323 -0.0158  0.3388
 6810TIP3    H141921   2.908   5.195   2.878  0.3046 -0.7559  0.4785
 6810TIP3    H241922   2.769   5.138   2.857  0.1412  0.0942 -0.8488
 6811TIP3   OH241923   5.633   2.198   2.373 -0.3717 -0.2297 -0.0396
 6811TIP3    H141924   5.651   2.277   2.323  1.5842  0.0052  0.9235
 6811TIP3    H241925   5.580   2.228   2.447 -0.5016  0.0010 -0.2259
 6812TIP3   OH241926   2.954   5.772   6.338 -0.3089 -0.3706  0.4793
 6812TIP3    H141927   2.859   5.769   6.352 -0.8820  0.5347 -2.3720
 6812TIP3    H241928   2.971   5.700   6.277  0.5987  0.2062  0.0351
 6813TIP3   OH241929   1.260   6.230  14.578 -0.0899  0.3741 -0.5140
 6813TIP3    H141930   1.316   6.275  14.515  1.1345  0.0013  0.2595
 6813TIP3    H241931   1.308   6.236  14.661 -1.5102  0.5827  0.3211
 6814TIP3   OH241932   6.824   4.628   4.813 -0.5087  0.8094 -0.2587
 6814TIP3    H141933   6.734   4.604   4.834 -0.3284 -0.6192 -1.0142
 6814TIP3    H241934   6.819   4.719   4.784 -1.8414  0.4589 -1.1839
 6815TIP3   OH241935   5.420   4.843  15.574 -0.5828  0.4008 -0.1282
 6815TIP3    H141936   5.438   4.783  15.646  0.7184  1.3833  0.4105
 6815TIP3    H241937   5.461   4.802  15.498 -0.5823  0.1252  0.0196
 6816TIP3   OH241938   4.150   5.949   0.144 -0.0360  0.4809  0.1413
 6816TIP3    H141939   4.061   5.945   0.178  0.2846 -0.6750  0.9116
 6816TIP3    H241940   4.184   6.032   0.176 -0.2042  0.0362  1.5363
 6817TIP3   OH241941   3.683   0.300   6.206 -0.6067 -0.3369  0.3599
 6817TIP3    H141942   3.763   0.351   6.215 -0.2964 -0.3792 -1.7105
 6817TIP3    H241943   3.659   0.276   6.295  1.3211  0.2254  1.0623
 6818TIP3   OH241944   5.450   1.876   3.741  0.5324 -0.0886 -0.0584
 6818TIP3    H141945   5.373   1.889   3.686  0.1831  0.2078  0.4884
 6818TIP3    H241946   5.467   1.962   3.780  1.4976 -0.0044 -0.6142
 6819TIP3   OH241947   2.025   5.709   1.930 -0.3667 -0.3797  0.0230
 6819TIP3    H141948   2.061   5.621   1.943  1.1011  0.0380 -1.0631
 6819TIP3    H241949   1.969   5.701   1.853 -0.1590 -0.3462 -0.1321
 6820TIP3   OH241950   6.765   1.538  11.396  0.4247 -0.4837 -0.7920
 6820TIP3    H141951   6.757   1.565  11.487  0.3807 -0.9712 -0.6502
 6820TIP3    H241952   6.855   1.508  11.388  0.9373  1.0836 -1.3311
 6821TIP3   OH241953   1.972   4.858   4.123  0.1494 -0.5632 -0.4426
 6821TIP3    H141954   1.905   4.922   4.100 -0.7353 -1.5069 -0.5485
 6821TIP3    H241955   1.927   4.793   4.177  1.0631 -1.0291 -0.2086
 6822TIP3   OH241956   0.978   0.738   0.395 -0.3525  0.1038 -0.5988
 6822TIP3    H141957   0.894   0.767   0.361 -0.7452  1.2317  1.2072
 6822TIP3    H241958   1.029   0.818   0.404  0.2980 -0.3602 -0.0539
 6823TIP3   OH241959   5.970   3.213   2.252  0.0338  0.0959 -0.3523
 6823TIP3    H141960   6.042   3.264   2.216 -0.8263  0.2560 -1.9252
 6823TIP3    H241961   5.950   3.148   2.185  1.1279 -2.4483  1.6000
 6824TIP3   OH241962   1.224   6.679   0.000 -0.5038  0.2604 -0.1014
 6824TIP3    H141963   1.262   6.747  -0.056 -1.7008  1.1170  0.0749
 6824TIP3    H241964   1.270   6.688   0.084  1.7624 -1.4591 -1.0428
 6825TIP3   OH241965   2.162   0.791  14.069 -0.2221  0.0063  0.1483
 6825TIP3    H141966   2.194   0.841  14.144 -1.6109 -1.0315  1.5173
 6825TIP3    H241967   2.212   0.824  13.994  1.9467  0.3785  1.6780
 6826TIP3   OH241968   5.772   5.282   0.037  0.3661  0.0470 -0.2167
 6826TIP3    H141969   5.748   5.323  -0.046 -1.5263 -0.4333  0.0415
 6826TIP3    H241970   5.846   5.333   0.069  2.2010 -0.7404 -2.9320
 6827TIP3   OH241971   5.300   6.554  14.235  0.4590 -0.0699 -0.4760
 6827TIP3    H141972   5.337   6.639  14.214  0.4262  0.2141  0.5547
 6827TIP3    H241973   5.311   6.546  14.330  0.5746 -1.2636 -0.5767
 6828TIP3   OH241974   3.797   2.519   0.960  0.2075  0.3377 -0.0996
 6828TIP3    H141975   3.744   2.595   0.937  0.7612  0.7273 -0.1195
 6828TIP3    H241976   3.835   2.490   0.877 -1.2101 -0.9254 -0.3629
 6829TIP3   OH241977   1.423   2.771   4.035 -0.3539 -0.1163 -0.2937
 6829TIP3    H141978   1.369   2.750   4.112 -1.1740  1.6378 -0.3581
 6829TIP3    H241979   1.483   2.838   4.066 -1.4956  1.5112 -1.4489
 6830TIP3   OH241980   6.608   5.702   2.683 -0.3193  0.2285  0.3279
 6830TIP3    H141981   6.666   5.702   2.608 -2.3355 -0.6395 -1.3442
 6830TIP3    H241982   6.664   5.722   2.758  1.8089  0.8528 -1.3534
 6831TIP3   OH241983   4.634   2.382  15.894  0.1524 -0.5911  0.2324
 6831TIP3    H141984   4.543   2.394  15.867  0.8903  1.4260 -1.6315
 6831TIP3    H241985   4.664   2.470  15.918  1.8194 -1.0672  0.0242
 6832TIP3   OH241986   2.841   1.026  11.660 -0.3613 -0.2724 -0.5826
 6832TIP3    H141987   2.794   1.094  11.611  0.0777  1.2400  1.0268
 6832TIP3    H241988   2.930   1.028  11.624 -0.9551 -1.8539 -2.3275
 6833TIP3   OH241989   6.812   0.926  15.323 -0.2809  0.4213  0.2326
 6833TIP3    H141990   6.870   0.935  15.248  0.8209  0.5388  1.0747
 6833TIP3    H241991   6.785   1.016  15.344 -0.3846  0.4113  0.1462
 6834TIP3   OH241992   3.194   1.451  10.904 -0.0378  0.1514 -0.7425
 6834TIP3    H141993   3.105   1.430  10.876  0.4755 -0.5048 -1.9478
 6834TIP3    H241994   3.251   1.403  10.844  1.1390 -0.0325  0.4577
 6835TIP3   OH241995   2.004   5.622   0.269 -0.4792  0.5325  0.4077
 6835TIP3    H141996   2.064   5.550   0.289 -0.8580  0.0818 -0.0360
 6835TIP3    H241997   1.924   5.599   0.316  0.2028  1.9815  2.3854
 6836TIP3   OH241998   4.974   3.600  14.789  0.0043 -0.1072  0.4584
 6836TIP3    H141999   5.031   3.636  14.857  0.4236  2.3362 -1.0738
 6836TIP3    H242000   5.033   3.563  14.724 -0.1823  0.7138 -0.2080
 6837TIP3   OH242001   0.478   6.204   3.792 -0.1245 -0.2436  0.9116
 6837TIP3    H142002   0.444   6.289   3.820  1.7533  1.1593 -0.6850
 6837TIP3    H242003   0.401   6.153   3.769 -1.2973  1.2046  1.4880
 6838TIP3   OH242004   3.743   0.349  16.005 -0.7999 -0.3423  0.4504
 6838TIP3    H142005   3.771   0.438  15.983 -0.4553 -0.0851  1.8122
 6838TIP3    H242006   3.737   0.304  15.921 -0.7101  0.8875 -0.2396
 6839TIP3   OH242007   0.877   5.969  13.437 -0.0630  0.3498 -0.4659
 6839TIP3    H142008   0.914   6.034  13.378 -2.4963  2.6837  0.3810
 6839TIP3    H242009   0.854   6.018  13.516 -1.2527 -1.6967  0.5446
 6840TIP3   OH242010   0.007   3.809  15.258  0.2206  0.4067  0.1062
 6840TIP3    H142011   0.012   3.826  15.164 -0.3411  0.8931  0.1516
 6840TIP3    H242012   0.098   3.808  15.287  0.3650  1.5246 -0.2383
 6841TIP3   OH242013   3.098   3.158   2.611  0.3101  0.2279 -0.2462
 6841TIP3    H142014   3.112   3.243   2.652  0.1038  0.8099 -1.3644
 6841TIP3    H242015   3.050   3.108   2.677  2.0986  0.2846  1.1926
 6842TIP3   OH242016   2.067   5.419   5.565  0.0275  0.2761  0.3812
 6842TIP3    H142017   2.112   5.482   5.510  1.1236 -0.5951  0.2490
 6842TIP3    H242018   2.064   5.459   5.652 -1.8756  1.7410 -0.2881
 6843TIP3   OH242019   3.488   3.714   2.483 -0.0648 -0.4016 -0.3096
 6843TIP3    H142020   3.550   3.780   2.514  1.7996 -2.0720 -0.2342
 6843TIP3    H242021   3.437   3.692   2.561  0.4158 -0.2073  0.0673
 6844TIP3   OH242022   2.931   5.932  11.759 -0.0699  0.3627 -0.1497
 6844TIP3    H142023   2.921   5.978  11.676  0.5062  0.9634  0.1015
 6844TIP3    H242024   2.918   6.000  11.825  0.0686  0.0110  0.2433
 6845TIP3   OH242025   0.724   4.001   2.254  0.3021  0.1364  0.0046
 6845TIP3    H142026   0.719   3.905   2.261  1.2277  0.1748  1.3757
 6845TIP3    H242027   0.780   4.028   2.326 -1.0965  1.8584  0.5240
 6846TIP3   OH242028   5.389   3.268   4.217 -0.2879  0.0102 -0.1324
 6846TIP3    H142029   5.366   3.354   4.183 -0.1119 -0.0413 -0.3860
 6846TIP3    H242030   5.351   3.266   4.305  1.9057  1.3622  0.9464
 6847TIP3   OH242031   0.351   6.620   3.668  0.4344 -0.0102  0.2397
 6847TIP3    H142032   0.425   6.668   3.705  1.1211  1.0040 -2.2682
 6847TIP3    H242033   0.275   6.677   3.683  0.6210  0.1902  0.4274
 6848TIP3   OH242034   5.005   0.057  15.372  0.1625 -0.2907 -0.7912
 6848TIP3    H142035   5.067  -0.010  15.344  0.9841  0.6287 -1.2353
 6848TIP3    H242036   4.972   0.026  15.457  3.3237  0.4887  0.8706
 6849TIP3   OH242037   0.399   0.666   3.147  0.5353  0.1315  0.0702
 6849TIP3    H142038   0.380   0.580   3.182  1.1672  0.2616  0.7476
 6849TIP3    H242039   0.492   0.663   3.124  0.0125 -0.1971 -2.3269
 6850TIP3   OH242040   1.476   3.095   0.933  0.2571 -0.6225 -0.7513
 6850TIP3    H142041   1.464   3.002   0.952 -0.9076 -0.4259 -0.4302
 6850TIP3    H242042   1.487   3.136   1.019 -1.4385 -0.1956 -0.7075
 6851TIP3   OH242043   3.774   2.369   5.759  0.4262  0.1426 -0.2600
 6851TIP3    H142044   3.806   2.432   5.823 -0.4546  0.3924 -0.0501
 6851TIP3    H242045   3.712   2.418   5.705  0.0065 -0.4442 -0.3270
 6852TIP3   OH242046   0.877   3.726  12.488  0.4159 -0.5855 -0.2211
 6852TIP3    H142047   0.923   3.787  12.547 -0.8716  0.9470 -0.7113
 6852TIP3    H242048   0.812   3.684  12.544 -1.0150  1.0959 -0.5139
 6853TIP3   OH242049   0.141   5.325   4.396  0.2286  0.3233 -0.0149
 6853TIP3    H142050   0.234   5.307   4.409  0.6632  1.8356 -0.7479
 6853TIP3    H242051   0.137   5.373   4.313 -1.5022 -1.8682 -1.3057
 6854TIP3   OH242052   2.304   2.692   1.402  0.4669  0.1554 -0.2044
 6854TIP3    H142053   2.331   2.625   1.464  1.5437  0.4961 -0.2800
 6854TIP3    H242054   2.275   2.644   1.324 -0.4841 -0.2584  0.3801
 6855TIP3   OH242055   0.189   3.100   5.638  0.3335  0.0434  0.1555
 6855TIP3    H142056   0.226   3.182   5.669  0.4678  0.7617 -1.7478
 6855TIP3    H242057   0.106   3.091   5.685 -0.2793  1.9252 -0.4390
 6856TIP3   OH242058   2.845   2.820   0.464 -0.7633 -0.2536 -0.0815
 6856TIP3    H142059   2.769   2.852   0.512  0.7695  0.4654  1.9954
 6856TIP3    H242060   2.857   2.730   0.496 -0.1918 -0.0328  0.3482
 6857TIP3   OH242061   1.029   3.970  13.361  0.3277 -0.3394  0.2291
 6857TIP3    H142062   0.953   3.913  13.356  0.8585 -1.0876  0.5700
 6857TIP3    H242063   1.035   3.996  13.452  0.7408 -0.6565  0.2975
 6858TIP3   OH242064   0.631   4.685   3.667  0.1689  0.0582 -0.1009
 6858TIP3    H142065   0.668   4.615   3.615  0.9336 -0.6172  1.2965
 6858TIP3    H242066   0.694   4.757   3.660 -0.7789  0.7896 -1.8087
 6859TIP3   OH242067   5.036   6.427   3.329 -0.3971  0.0746  0.1156
 6859TIP3    H142068   5.021   6.521   3.341  0.1065  0.4635 -1.7947
 6859TIP3    H242069   4.956   6.394   3.289  0.4562  0.3472 -1.9510
 6860TIP3   OH242070   5.192   2.983  10.222 -0.2929 -0.2408  0.3392
 6860TIP3    H142071   5.249   2.911  10.194 -0.4886 -0.1219 -0.3985
 6860TIP3    H242072   5.110   2.968  10.175 -0.3677  0.4023  0.2528
 6861TIP3   OH242073   5.543   0.806   3.832  0.3413  0.0561  0.0252
 6861TIP3    H142074   5.466   0.863   3.832 -0.0658 -0.4582 -1.1333
 6861TIP3    H242075   5.507   0.717   3.827  1.0031 -0.2171  0.0220
 6862TIP3   OH242076   2.431   6.641   5.286  0.0434  0.4205 -0.2227
 6862TIP3    H142077   2.496   6.625   5.354 -1.2245 -1.7272  0.6172
 6862TIP3    H242078   2.480   6.677   5.213  1.9037  0.2915  0.9104
 6863TIP3   OH242079   5.819   1.721   5.810 -0.2438 -0.2904 -0.3824
 6863TIP3    H142080   5.774   1.798   5.845 -0.8474 -1.1801  0.8992
 6863TIP3    H242081   5.794   1.719   5.718 -1.2471  0.3508 -0.1498
 6864TIP3   OH242082   3.786   1.157  12.136  0.8676 -0.3971 -0.1123
 6864TIP3    H142083   3.777   1.160  12.041  0.7695  0.5663 -0.0811
 6864TIP3    H242084   3.788   1.248  12.163 -0.8483 -0.6191  0.9609
 6865TIP3   OH242085   0.524   2.097  16.164 -0.2761 -0.0745  0.2118
 6865TIP3    H142086   0.520   2.108  16.069 -1.9057  0.0450  0.2654
 6865TIP3    H242087   0.458   2.030  16.184 -0.9204  0.8575  1.3764
 6866TIP3   OH242088   1.749   5.802  12.749  0.1378 -0.3652  0.5047
 6866TIP3    H142089   1.698   5.880  12.727  0.4674 -0.3682 -0.3285
 6866TIP3    H242090   1.813   5.795  12.678  1.4704 -0.2118  1.6676
 6867TIP3   OH242091   2.028   2.596  15.034  0.2348 -0.6764 -0.2434
 6867TIP3    H142092   2.118   2.619  15.057  0.7250 -1.1055 -1.6399
 6867TIP3    H242093   2.010   2.517  15.085  0.5353 -0.4101  0.2821
 6868TIP3   OH242094   1.303   0.450   6.455 -0.0283 -0.7125 -0.0840
 6868TIP3    H142095   1.333   0.360   6.466  0.7410 -0.3747  0.7568
 6868TIP3    H242096   1.220   0.443   6.408 -0.0748 -1.8649  0.1559
 6869TIP3   OH242097   3.812   2.579  14.586  0.0077 -0.3388  0.3001
 6869TIP3    H142098   3.876   2.644  14.559 -0.5620  0.5784  1.1129
 6869TIP3    H242099   3.736   2.596  14.530 -0.2968 -0.0248  0.8083
 6870TIP3   OH242100   3.622   2.722  14.151  0.2329  0.1404  0.3940
 6870TIP3    H142101   3.667   2.677  14.079  0.0481 -1.0775  1.0090
 6870TIP3    H242102   3.531   2.728  14.122  0.6202  2.1023 -0.6090
 6871TIP3   OH242103   5.707   4.148   1.893 -0.4729 -0.3923 -0.0919
 6871TIP3    H142104   5.678   4.208   1.824 -0.2940 -0.3282 -0.1138
 6871TIP3    H242105   5.665   4.065   1.872 -1.2715 -0.1036  0.3285
 6872TIP3   OH242106   2.575   6.580  11.035  0.1738  0.1901  0.4575
 6872TIP3    H142107   2.483   6.584  11.011  0.2291  1.6869  0.4302
 6872TIP3    H242108   2.619   6.638  10.973  1.0540 -0.0085  0.8742
 6873TIP3   OH242109   1.461   1.192  15.624  0.4048  0.2462  0.2266
 6873TIP3    H142110   1.520   1.134  15.673  2.0304  1.0069 -0.7371
 6873TIP3    H242111   1.519   1.239  15.564 -1.2125  1.0414 -0.7710
 6874TIP3   OH242112   4.302   1.777  12.456  0.2829 -0.2738  0.0940
 6874TIP3    H142113   4.226   1.725  12.483  0.4641 -0.7183 -0.2263
 6874TIP3    H242114   4.341   1.807  12.538  0.1429 -0.5996  0.2839
 6875TIP3   OH242115   3.802   1.425   2.415 -0.1547 -0.2476 -0.2856
 6875TIP3    H142116   3.757   1.508   2.403  1.4361  0.7501  0.3391
 6875TIP3    H242117   3.771   1.393   2.500 -0.4786 -0.1110 -0.3507
 6876TIP3   OH242118   1.569   1.979  12.045  0.1931  0.3765  0.1013
 6876TIP3    H142119   1.618   2.050  12.087  2.2609 -0.5978 -0.5340
 6876TIP3    H242120   1.632   1.939  11.985 -1.1323 -1.5390 -0.0950
 6877TIP3   OH242121   4.546   3.493  13.592 -0.4363 -0.0521  0.0674
 6877TIP3    H142122   4.454   3.469  13.579 -0.3828 -0.4097  0.3254
 6877TIP3    H242123   4.545   3.548  13.670 -0.4699  0.2024 -0.1117
 6878TIP3   OH242124   3.428   5.672  13.113 -0.4612 -0.2104 -0.0497
 6878TIP3    H142125   3.347   5.722  13.113 -0.7325 -0.6406  0.2915
 6878TIP3    H242126   3.460   5.678  13.023 -1.0475 -0.3125 -0.2691
 6879TIP3   OH242127   5.632   4.547  15.354  0.1994  0.2333  0.3897
 6879TIP3    H142128   5.609   4.639  15.338  0.0489  0.2109  0.4745
 6879TIP3    H242129   5.644   4.542  15.448 -0.3402  0.0432  0.4512
 6880TIP3   OH242130   1.059   0.523  11.219  0.0026  0.3217  0.2890
 6880TIP3    H142131   0.972   0.520  11.180  0.3719  2.7212 -0.8863
 6880TIP3    H242132   1.046   0.564  11.304  0.0062  0.8496  0.0359
 6881TIP3   OH242133   4.994   3.929   2.540 -0.3301  0.0682 -0.2073
 6881TIP3    H142134   5.052   3.853   2.550  1.0249  0.7592 -2.2824
 6881TIP3    H242135   5.047   4.003   2.568 -0.7584  0.5512 -0.6694
 6882TIP3   OH242136   4.170   3.554   3.015 -0.4487  0.1348  0.2517
 6882TIP3    H142137   4.247   3.516   3.057 -1.1094  0.0237  1.4106
 6882TIP3    H242138   4.136   3.617   3.078 -1.6326 -0.2302  0.0180
 6883TIP3   OH242139   0.603   6.573  16.634  0.1070  0.1407 -0.4451
 6883TIP3    H142140   0.661   6.622  16.575 -1.4296  0.6352 -1.6073
 6883TIP3    H242141   0.528   6.549  16.580 -0.9898 -0.0913  1.1100
 6884TIP3   OH242142   2.461   1.148   5.611 -0.1592 -0.1040 -0.0408
 6884TIP3    H142143   2.506   1.092   5.675  0.3388  1.2395  0.8184
 6884TIP3    H242144   2.382   1.176   5.657  1.5671  3.2247  1.2358
 6885TIP3   OH242145   1.607   6.015   1.301 -0.0924 -0.1988  0.0805
 6885TIP3    H142146   1.670   6.085   1.318 -0.7110  0.4988 -0.3921
 6885TIP3    H242147   1.537   6.030   1.364  0.0270 -0.7312  0.3418
 6886TIP3   OH242148   4.778   5.459   5.016  0.3183  0.2815  0.1966
 6886TIP3    H142149   4.862   5.427   4.981 -0.4873 -0.4041 -1.2204
 6886TIP3    H242150   4.763   5.541   4.968  0.7861  1.1120  1.4188
 6887TIP3   OH242151   0.131   1.789  16.445 -0.6614 -0.1574  0.1637
 6887TIP3    H142152   0.119   1.809  16.352  0.5018  2.5928  0.5000
 6887TIP3    H242153   0.217   1.747  16.450 -1.6913 -2.4640 -0.1738
 6888TIP3   OH242154   5.555   6.732  11.813 -0.0049  0.1543  0.0878
 6888TIP3    H142155   5.465   6.765  11.821 -0.0477  0.2984 -0.8275
 6888TIP3    H242156   5.573   6.689  11.896 -0.3130  1.6129  0.9441
 6889TIP3   OH242157   6.458   5.859  14.151 -0.1133  0.2941 -0.2302
 6889TIP3    H142158   6.413   5.894  14.074  1.4382  0.7179 -0.9934
 6889TIP3    H242159   6.496   5.777  14.121  0.2611  0.3196  0.1612
 6890TIP3   OH242160   6.225   4.608  15.160  0.2739  0.6154 -0.2700
 6890TIP3    H142161   6.267   4.681  15.113 -0.2837  0.2233 -1.4073
 6890TIP3    H242162   6.275   4.601  15.241  2.4425  0.1744 -1.5598
 6891TIP3   OH242163   3.593   2.567   3.422  0.5041 -0.0044  0.2267
 6891TIP3    H142164   3.652   2.499   3.454  0.5114 -0.4616 -0.7135
 6891TIP3    H242165   3.556   2.531   3.342  0.2486  0.9661 -0.1118
 6892TIP3   OH242166   5.542   5.452   4.061  0.6266 -0.0376  0.0299
 6892TIP3    H142167   5.448   5.435   4.066  0.8947 -1.2425  1.6877
 6892TIP3    H242168   5.552   5.538   4.102  0.2713 -0.0645  0.1856
 6893TIP3   OH242169   1.749   3.555  13.750  0.1880  0.0404  0.0285
 6893TIP3    H142170   1.757   3.465  13.720 -0.2945  0.2577 -0.7982
 6893TIP3    H242171   1.757   3.550  13.845 -0.6364 -0.9775  0.0661
 6894TIP3   OH242172   0.723   0.244  16.113 -0.4221 -0.0071 -0.6291
 6894TIP3    H142173   0.658   0.238  16.044 -0.9060 -1.6414 -0.0786
 6894TIP3    H242174   0.690   0.186  16.182  0.5309  0.8159  0.5704
 6895TIP3   OH242175   2.484   1.228  16.210 -0.1413  0.0368  0.0438
 6895TIP3    H142176   2.402   1.277  16.212 -0.1623 -0.0090  1.1971
 6895TIP3    H242177   2.459   1.139  16.188 -0.1720  0.3879 -1.4610
 6896TIP3   OH242178   1.201   3.938  16.435  0.4943  0.1098 -0.1367
 6896TIP3    H142179   1.176   3.846  16.427 -2.0139  0.4595  2.1742
 6896TIP3    H242180   1.271   3.939  16.499  0.1509 -0.1667  0.2477
 6897TIP3   OH242181   5.850   2.196  10.999  0.4453  0.0286  0.2146
 6897TIP3    H142182   5.867   2.197  11.093 -0.7822 -2.0067  0.4915
 6897TIP3    H242183   5.923   2.147  10.961  0.2606 -0.2781  0.2567
 6898TIP3   OH242184   0.619   0.440   1.097 -1.1468  0.4877  0.3814
 6898TIP3    H142185   0.647   0.351   1.119 -3.7840 -0.5194  0.1097
 6898TIP3    H242186   0.621   0.443   1.001 -1.1253  0.7017  0.3878
 6899TIP3   OH242187   1.573   1.870   3.861  0.1744  0.3308 -0.2622
 6899TIP3    H142188   1.506   1.814   3.823  1.1660 -1.1111  0.0212
 6899TIP3    H242189   1.651   1.814   3.864  1.4420  1.9956 -0.7529
 6900TIP3   OH242190   4.979   6.513   0.165  0.2659  0.0936 -0.3228
 6900TIP3    H142191   5.067   6.543   0.191  0.7819 -0.6285 -1.1817
 6900TIP3    H242192   4.996   6.442   0.104 -0.9325  0.6549 -1.3330
 6901TIP3   OH242193   3.386   4.724   5.409  0.0328  0.0579  0.0051
 6901TIP3    H142194   3.462   4.775   5.381  0.8193 -0.5677  0.9462
 6901TIP3    H242195   3.404   4.702   5.500 -0.5528 -1.4248 -0.2103
 6902TIP3   OH242196   3.291   5.998   0.788 -0.4403  0.0981 -0.2003
 6902TIP3    H142197   3.282   5.943   0.710  2.1457  0.8619 -1.1353
 6902TIP3    H242198   3.244   6.079   0.766  0.4852  0.4109 -1.1184
 6903TIP3   OH242199   0.689   3.704  14.095  0.0888 -0.1496 -0.5136
 6903TIP3    H142200   0.764   3.647  14.082 -0.7598 -1.2805 -0.6382
 6903TIP3    H242201   0.657   3.723  14.007 -0.4753 -0.6753 -0.4342
 6904TIP3   OH242202   4.065   5.079  12.944 -0.4475 -0.4078  0.3960
 6904TIP3    H142203   4.077   5.116  13.032 -0.4936  0.8128 -0.0942
 6904TIP3    H242204   4.134   5.119  12.891  0.0438 -1.6870  0.0139
 6905TIP3   OH242205   4.188   2.943   4.856  0.2663  0.0229  0.0700
 6905TIP3    H142206   4.237   2.998   4.917  0.6669 -1.3756  1.0710
 6905TIP3    H242207   4.186   2.992   4.774 -1.8245  2.7976  1.6220
 6906TIP3   OH242208   5.620   2.202  13.918 -0.4957 -0.6485 -0.5036
 6906TIP3    H142209   5.714   2.205  13.932 -0.3183  3.0143 -1.4389
 6906TIP3    H242210   5.582   2.235  13.999 -0.7064  0.7662 -1.1358
 6907TIP3   OH242211   4.806   5.985  10.445  0.1888  0.8121 -0.0106
 6907TIP3    H142212   4.865   6.033  10.503  0.8644  3.5507 -2.7006
 6907TIP3    H242213   4.721   5.988  10.488  0.6319  2.8351  0.8310
 6908TIP3   OH242214   5.402   6.325   0.569 -0.3648 -0.2531 -0.3636
 6908TIP3    H142215   5.352   6.401   0.600 -0.4133 -0.2240 -0.5126
 6908TIP3    H242216   5.431   6.349   0.481 -1.5981 -0.9514 -1.0041
 6909TIP3   OH242217   0.725   6.166   4.337  0.3096 -0.0552  0.0864
 6909TIP3    H142218   0.779   6.241   4.360 -2.4803  1.9943  0.4959
 6909TIP3    H242219   0.687   6.188   4.252  0.7719 -1.8554 -0.6366
 6910TIP3   OH242220   6.512   4.078   1.859  0.0334  0.5342  0.7217
 6910TIP3    H142221   6.450   4.074   1.932 -0.3198 -2.9438  0.3668
 6910TIP3    H242222   6.489   4.004   1.803  4.3063 -0.8838  0.4627
 6911TIP3   OH242223   1.953   3.031  16.035 -0.4164  0.0874  0.3757
 6911TIP3    H142224   2.021   2.974  16.073 -2.1098 -0.6733  2.4631
 6911TIP3    H242225   2.003   3.100  15.990  1.7019 -1.7893 -0.3526
 6912TIP3   OH242226   5.930   2.339   5.067  0.2230 -0.6236 -0.4075
 6912TIP3    H142227   6.009   2.391   5.051 -1.0616  2.2015  1.4403
 6912TIP3    H242228   5.893   2.323   4.981  2.3243 -1.2388 -1.2409
 6913TIP3   OH242229   1.920   3.109  11.368 -0.6122 -0.4722  1.2428
 6913TIP3    H142230   1.917   3.199  11.334 -0.8893 -1.4044 -1.3896
 6913TIP3    H242231   1.830   3.077  11.356  0.0944 -1.9522 -0.4545
 6914TIP3   OH242232   0.034   2.866  10.949  0.4501 -1.1903 -0.0519
 6914TIP3    H142233   0.003   2.853  11.039  1.3976  0.6942  0.5963
 6914TIP3    H242234  -0.046   2.867  10.897 -0.4232  0.5947  1.1907
 6915TIP3   OH242235   4.729   6.009  14.313 -0.0384 -0.3380 -0.1545
 6915TIP3    H142236   4.727   5.937  14.376  0.0310 -0.5355 -0.3737
 6915TIP3    H242237   4.808   6.058  14.335  0.0066 -0.4292 -0.1118
 6916TIP3   OH242238   2.285   6.761  16.277  0.3347  0.1614 -0.7337
 6916TIP3    H142239   2.284   6.824  16.205  0.1173  2.0384  0.8281
 6916TIP3    H242240   2.247   6.809  16.351  0.5553 -1.6896  0.6454
 6917TIP3   OH242241   4.487   4.919  16.127  0.1286 -0.2979 -0.1246
 6917TIP3    H142242   4.557   4.932  16.192  1.9014 -0.1051 -1.9656
 6917TIP3    H242243   4.524   4.857  16.065 -1.0619  0.3892 -1.5797
 6918TIP3   OH242244   1.667   5.705   5.476  0.0033  0.4832  0.1631
 6918TIP3    H142245   1.698   5.766   5.409 -0.5093  1.8805  1.1662
 6918TIP3    H242246   1.631   5.761   5.545 -2.2489 -0.9709  0.2748
 6919TIP3   OH242247   5.822   1.819  15.445  0.4496  0.4993 -0.2120
 6919TIP3    H142248   5.848   1.727  15.445 -0.3413  0.2639 -0.3769
 6919TIP3    H242249   5.794   1.836  15.535 -0.3424  0.2887 -0.4081
 6920TIP3   OH242250   5.197   1.990  15.125  0.1033 -0.0820  0.1532
 6920TIP3    H142251   5.175   2.059  15.062 -1.3748 -1.5982 -1.0932
 6920TIP3    H242252   5.238   1.922  15.072  0.2768 -0.7553  1.1306
 6921TIP3   OH242253   1.440   3.932  12.004 -0.1721  0.4385  0.1539
 6921TIP3    H142254   1.418   3.983  12.083  0.8098  1.5731 -0.2753
 6921TIP3    H242255   1.430   3.841  12.031 -1.6696  0.8266  1.0467
 6922TIP3   OH242256   0.299   1.685   1.054  0.1639 -0.0622  0.2194
 6922TIP3    H142257   0.375   1.707   1.107 -0.5061 -1.7755  2.0156
 6922TIP3    H242258   0.225   1.725   1.101 -0.1402  1.1092 -1.1925
 6923TIP3   OH242259   0.426   4.854  13.856 -0.1446 -0.3672  0.3199
 6923TIP3    H142260   0.506   4.812  13.823  0.0810  0.9206 -0.9178
 6923TIP3    H242261   0.455   4.902  13.934  1.0958  2.5631 -1.7623
 6924TIP3   OH242262   4.686   6.110   3.870 -0.0307 -0.1892 -0.3902
 6924TIP3    H142263   4.755   6.055   3.835 -1.3837 -1.0004 -1.9482
 6924TIP3    H242264   4.645   6.150   3.792  0.2325  2.2293  0.6087
 6925TIP3   OH242265   3.022   4.677  11.568  0.0088 -0.5982 -0.2438
 6925TIP3    H142266   2.964   4.750  11.547  0.9759  0.2674  0.0113
 6925TIP3    H242267   3.104   4.696  11.522  1.3826  0.1538  2.3069
 6926TIP3   OH242268   4.649   4.854   2.923  0.2963  0.1615  0.2207
 6926TIP3    H142269   4.615   4.767   2.941 -0.1060  0.1146 -0.6969
 6926TIP3    H242270   4.724   4.864   2.982 -0.6846 -0.1337  1.5427
 6927TIP3   OH242271   6.262   1.661  11.235 -0.0191 -0.2206 -0.3170
 6927TIP3    H142272   6.355   1.641  11.224  0.2828 -0.2898  1.8608
 6927TIP3    H242273   6.242   1.628  11.323 -1.3498  2.4404  0.4488
 6928TIP3   OH242274   3.507   1.502  13.225  0.3646 -0.6370  0.1935
 6928TIP3    H142275   3.527   1.574  13.165 -1.0716  0.4401  0.9462
 6928TIP3    H242276   3.574   1.508  13.293 -0.4597  0.7830  0.9053
 6929TIP3   OH242277   6.269   2.424   3.566 -0.0445  0.3723 -0.6895
 6929TIP3    H142278   6.248   2.411   3.659 -1.0332  0.1950 -0.9287
 6929TIP3    H242279   6.190   2.462   3.529  0.3662  0.4864 -1.4568
 6930TIP3   OH242280   3.777   3.427  16.963  0.1005  0.2357 -0.1342
 6930TIP3    H142281   3.852   3.382  17.002 -0.7984 -1.2985 -0.0747
 6930TIP3    H242282   3.800   3.438  16.871  0.1627 -0.7999 -0.2546
 6931TIP3   OH242283   2.077   4.919   1.278 -0.1751  0.0075 -0.0097
 6931TIP3    H142284   2.119   4.972   1.211 -0.2448  1.0511  0.7487
 6931TIP3    H242285   2.117   4.947   1.360  0.3071 -1.6434  0.3589
 6932TIP3   OH242286   5.235   3.683   5.235 -0.3495  0.0089 -0.3142
 6932TIP3    H142287   5.156   3.737   5.228  0.0372  0.4166 -2.1151
 6932TIP3    H242288   5.201   3.593   5.231 -0.9200  0.0782  1.8238
 6933TIP3   OH242289   0.136   4.755  12.930  0.5358  0.1870 -0.3458
 6933TIP3    H142290   0.159   4.795  13.014 -0.0453 -1.3972  0.6165
 6933TIP3    H242291   0.046   4.725  12.941  0.8444 -1.1148 -1.0997
 6934TIP3   OH242292   5.254   6.336  13.879  0.2495 -0.2030 -0.0474
 6934TIP3    H142293   5.193   6.292  13.819 -0.9046 -0.6364  1.3843
 6934TIP3    H242294   5.244   6.289  13.962  0.6139  1.3816  0.9387
 6935TIP3   OH242295   3.387   4.400   3.390  0.1412 -0.1157 -0.0492
 6935TIP3    H142296   3.419   4.490   3.393  0.1774 -0.1165 -0.3887
 6935TIP3    H242297   3.325   4.394   3.463  0.0269  0.2296 -0.1159
 6936TIP3   OH242298   1.825   2.137   5.303  0.2310 -0.4194 -0.1877
 6936TIP3    H142299   1.914   2.166   5.325 -0.3572  0.0630  1.7344
 6936TIP3    H242300   1.778   2.218   5.281  0.1838 -0.6452 -0.9525
 6937TIP3   OH242301   0.046   5.124  14.526  0.1761  0.4974  0.5429
 6937TIP3    H142302   0.053   5.198  14.466  0.1899  0.0815  0.0223
 6937TIP3    H242303  -0.046   5.098  14.520  0.3370  0.0067  0.1532
 6938TIP3   OH242304   5.021   3.066  16.986  0.3005 -0.1535 -0.2107
 6938TIP3    H142305   5.061   3.134  16.933 -0.8230 -0.0749 -0.9948
 6938TIP3    H242306   5.087   3.044  17.051  0.4368  2.2227  0.5547
 6939TIP3   OH242307   2.056   5.769   2.999 -0.3635  0.3196 -0.0135
 6939TIP3    H142308   2.006   5.694   2.967  0.0173  0.7137 -1.6138
 6939TIP3    H242309   2.009   5.797   3.077  0.1465 -2.2843  1.3659
 6940TIP3   OH242310   5.589   2.783  11.595 -0.2230 -0.0160  0.1831
 6940TIP3    H142311   5.667   2.785  11.650 -0.9506 -1.9060  1.3915
 6940TIP3    H242312   5.544   2.702  11.620 -1.8164  0.2655 -1.5317
 6941TIP3   OH242313   1.735   3.937   4.800 -0.5610  0.1771 -0.1831
 6941TIP3    H142314   1.701   3.855   4.763  3.6423 -1.3306 -1.3061
 6941TIP3    H242315   1.752   3.992   4.724  2.6648 -0.6457 -0.2239
 6942TIP3   OH242316   1.507   5.152  14.424 -0.4363  0.2302 -0.4322
 6942TIP3    H142317   1.501   5.242  14.392  0.7647  0.1848 -0.8393
 6942TIP3    H242318   1.428   5.140  14.478 -0.8070  1.3863 -0.6890
 6943TIP3   OH242319   5.099   3.981  13.589 -0.1270 -0.8310 -0.0054
 6943TIP3    H142320   5.048   3.901  13.580  0.0092 -0.9242  0.0420
 6943TIP3    H242321   5.136   3.976  13.677 -0.6512 -0.3993  0.2412
 6944TIP3   OH242322   0.073   2.072  12.330  0.7028 -0.3423  0.0689
 6944TIP3    H142323   0.089   2.166  12.339 -0.3529 -0.1928  0.6076
 6944TIP3    H242324   0.012   2.051  12.401  0.3175 -1.2745 -0.5097
 6945TIP3   OH242325   2.206   0.905  10.671  0.3488  0.1535 -0.0078
 6945TIP3    H142326   2.161   0.906  10.586  2.0553 -0.0264 -0.9578
 6945TIP3    H242327   2.293   0.872  10.651  0.3524 -1.2627  2.0645
 6946TIP3   OH242328   2.408   3.394  15.254 -0.1366  0.0919 -0.0111
 6946TIP3    H142329   2.321   3.368  15.285  0.2966 -0.3018  0.9110
 6946TIP3    H242330   2.391   3.446  15.175 -1.1958 -0.1250  0.0604
 6947TIP3   OH242331   3.209   1.714  10.299 -0.3632  0.1608 -0.2831
 6947TIP3    H142332   3.176   1.784  10.244  0.2994  0.4969 -0.2624
 6947TIP3    H242333   3.131   1.677  10.340 -0.5790  2.4568  1.6039
 6948TIP3   OH242334   1.806   2.645   6.497 -0.1010 -0.3641  0.1251
 6948TIP3    H142335   1.712   2.637   6.481  0.3348 -1.6719 -2.1482
 6948TIP3    H242336   1.816   2.733   6.533 -2.0210  0.5655 -1.3882
 6949TIP3   OH242337   1.471   5.170  13.167  0.3609 -1.1088  0.2476
 6949TIP3    H142338   1.390   5.217  13.187  0.3459 -1.7080  1.7184
 6949TIP3    H242339   1.478   5.174  13.072 -0.7989 -0.0684  0.1805
 6950TIP3   OH242340   2.546   6.765  14.359  0.3046 -0.3063 -0.0959
 6950TIP3    H142341   2.597   6.842  14.382 -1.4075  1.4415 -1.7789
 6950TIP3    H242342   2.611   6.694  14.352  2.0642  1.1724  0.4881
 6951TIP3   OH242343   4.197   2.211   3.065  0.5030 -0.5798 -0.1902
 6951TIP3    H142344   4.148   2.283   3.024  0.8390  0.4316  1.1389
 6951TIP3    H242345   4.149   2.132   3.039 -0.4557  0.1990 -0.8586
 6952TIP3   OH242346   2.715   4.875   1.621 -0.5946 -0.3688 -0.7879
 6952TIP3    H142347   2.696   4.811   1.551 -1.1131 -1.6498  0.4769
 6952TIP3    H242348   2.679   4.835   1.700 -0.2659  1.1839  0.1844
 6953TIP3   OH242349   4.394   3.749   0.616 -0.0608 -0.1180 -0.3973
 6953TIP3    H142350   4.463   3.774   0.555 -0.2540 -1.6487 -1.2900
 6953TIP3    H242351   4.330   3.820   0.611  1.4851  1.4016  0.5720
 6954TIP3   OH242352   1.256   0.904   2.202 -0.3807 -0.1309  0.1007
 6954TIP3    H142353   1.223   0.814   2.202 -0.0513 -0.2641  1.0049
 6954TIP3    H242354   1.269   0.925   2.295 -0.4560  0.8539 -0.0947
 6955TIP3   OH242355   0.571   1.614  16.089  0.5246  0.6398  0.0037
 6955TIP3    H142356   0.516   1.562  16.148  1.6512 -0.7962 -0.1445
 6955TIP3    H242357   0.544   1.588  16.001  0.8739  0.5300 -0.0746
 6956TIP3   OH242358   5.001   5.700  15.661 -0.2008  0.0643  0.0496
 6956TIP3    H142359   5.067   5.667  15.600 -1.7835  1.0760 -2.3488
 6956TIP3    H242360   4.935   5.631  15.666  0.3466 -0.4011  1.4201
 6957TIP3   OH242361   1.181   2.041   1.750  0.1673 -0.0710 -0.0045
 6957TIP3    H142362   1.102   2.055   1.697  0.5800  0.9925 -0.3683
 6957TIP3    H242363   1.216   1.957   1.721  0.0574  0.2191 -0.9975
 6958TIP3   OH242364   6.789   5.767  15.031  0.0309 -0.2830 -0.1088
 6958TIP3    H142365   6.813   5.711  14.957 -0.4155 -1.8535  0.8782
 6958TIP3    H242366   6.727   5.830  14.994 -0.6299 -1.4060 -0.9652
 6959TIP3   OH242367   4.562   2.752  16.538  0.3868  0.6085 -1.1371
 6959TIP3    H142368   4.610   2.676  16.506 -1.0361 -1.5071  1.3176
 6959TIP3    H242369   4.486   2.758  16.480  1.2068  1.0961 -2.1978
 6960TIP3   OH242370   6.689   4.793  15.624  0.2011 -0.2851 -0.1841
 6960TIP3    H142371   6.680   4.789  15.529 -1.0202 -1.0624 -0.0454
 6960TIP3    H242372   6.621   4.736  15.658 -0.8229  1.6612  1.2212
 6961TIP3   OH242373   5.608   1.575   3.075  1.1431 -0.4549  0.3560
 6961TIP3    H142374   5.697   1.552   3.048  1.7439  0.1658  1.7045
 6961TIP3    H242375   5.620   1.641   3.144 -0.3572 -0.4080  0.6102
 6962TIP3   OH242376   0.282   4.291  13.875  0.2708 -0.1500  0.0079
 6962TIP3    H142377   0.285   4.227  13.804  2.4105 -0.4784  0.3305
 6962TIP3    H242378   0.224   4.252  13.940  0.6736 -1.2744 -0.2842
 6963TIP3   OH242379   6.783   5.085   1.461 -0.2558  0.0744 -0.0966
 6963TIP3    H142380   6.774   5.084   1.557 -1.9048 -0.5320 -0.2220
 6963TIP3    H242381   6.773   5.177   1.437 -0.4345  0.1531  0.2732
 6964TIP3   OH242382   5.882   3.824  14.783  0.0065  0.4242  0.4934
 6964TIP3    H142383   5.933   3.803  14.861  1.1659 -0.4349 -0.4594
 6964TIP3    H242384   5.939   3.879  14.731  0.5747 -1.6405 -1.2085
 6965TIP3   OH242385   3.198   6.301   4.242 -0.9474 -0.7366  0.1968
 6965TIP3    H142386   3.265   6.328   4.179 -0.0576 -1.2015  0.9186
 6965TIP3    H242387   3.148   6.381   4.259  1.0442  0.3059  1.5894
 6966TIP3   OH242388   4.506   6.569   1.223 -0.0433  0.2942  0.5339
 6966TIP3    H142389   4.412   6.578   1.206  0.2672  1.6136 -0.6174
 6966TIP3    H242390   4.516   6.596   1.315 -0.7671  0.3132  0.6111
 6967TIP3   OH242391   4.579   3.932   0.161  0.4602  0.3057  0.2997
 6967TIP3    H142392   4.548   3.842   0.157 -0.2887  0.5792 -0.1928
 6967TIP3    H242393   4.605   3.953   0.071  2.4352 -0.0196  0.7328
 6968TIP3   OH242394   4.143   1.277  16.881 -0.3773 -0.5320  0.5554
 6968TIP3    H142395   4.160   1.202  16.939 -1.1157  0.5129  2.1614
 6968TIP3    H242396   4.224   1.285  16.830  0.8312 -0.7245  2.3226
 6969TIP3   OH242397   0.635   3.009  11.668 -0.3985 -0.0064  0.2886
 6969TIP3    H142398   0.701   2.994  11.735 -0.7137  0.0094  0.6041
 6969TIP3    H242399   0.644   3.102  11.646 -0.5761  0.0891  0.6126
 6970TIP3   OH242400   6.371   6.125   1.410  0.5776 -0.2469  0.1097
 6970TIP3    H142401   6.467   6.128   1.399  0.4098  0.2489 -1.5936
 6970TIP3    H242402   6.358   6.079   1.492  2.3402  1.6793  1.5775
 6971TIP3   OH242403   0.771   5.624   0.220  0.0561 -0.3113  0.4823
 6971TIP3    H142404   0.809   5.651   0.136 -0.6366  0.0228  0.2679
 6971TIP3    H242405   0.702   5.688   0.237  0.2456 -0.3211  1.3606
 6972TIP3   OH242406   1.376   5.844  16.300 -0.0603  0.0315  0.0701
 6972TIP3    H142407   1.288   5.863  16.333 -0.3653  0.2510 -0.8609
 6972TIP3    H242408   1.434   5.896  16.357 -0.8072  3.1348 -1.7800
 6973TIP3   OH242409   3.856   0.341   3.842 -0.4723  0.4248 -0.1282
 6973TIP3    H142410   3.852   0.326   3.748 -0.6436 -1.3938  0.1464
 6973TIP3    H242411   3.767   0.364   3.867 -0.2201  1.9917 -0.5382
 6974TIP3   OH242412   2.485   4.569   3.059 -0.0742 -0.1501 -0.0104
 6974TIP3    H142413   2.466   4.496   3.000 -1.2001  1.4366 -1.7032
 6974TIP3    H242414   2.517   4.527   3.139 -1.4893 -2.5545 -0.6005
 6975TIP3   OH242415   0.059   4.811  12.453 -0.2426 -0.0770  0.3088
 6975TIP3    H142416   0.023   4.755  12.523  0.2202 -0.6128  0.1224
 6975TIP3    H242417   0.124   4.865  12.498  1.4095 -1.7146 -0.0117
 6976TIP3   OH242418   1.049   1.962   2.495  0.1714 -0.1064 -0.0091
 6976TIP3    H142419   0.964   2.007   2.500  0.2715  0.0275  0.6231
 6976TIP3    H242420   1.026   1.871   2.474 -0.0019  0.3061 -1.7757
 6977TIP3   OH242421   2.798   4.872  13.058 -0.4857 -0.6089  0.3474
 6977TIP3    H142422   2.769   4.919  13.136  0.8964 -1.5396  1.4666
 6977TIP3    H242423   2.859   4.806  13.090  2.8174  1.1174 -1.7668
 6978TIP3   OH242424   6.739   1.787  16.559 -0.0503 -0.1972  0.3719
 6978TIP3    H142425   6.825   1.789  16.517  0.0375  1.9602  0.5517
 6978TIP3    H242426   6.756   1.804  16.651 -0.5038 -2.0490  0.8353
 6979TIP3   OH242427   3.526   2.104   3.544  0.0013  0.1029  0.2043
 6979TIP3    H142428   3.487   2.094   3.458 -0.2267  0.9028  0.2160
 6979TIP3    H242429   3.616   2.073   3.532 -1.0114 -3.5694  0.6057
 6980TIP3   OH242430   0.639   3.166  13.864 -0.0685  0.1646  0.1925
 6980TIP3    H142431   0.687   3.086  13.841 -1.4478 -1.0332  1.2841
 6980TIP3    H242432   0.549   3.137  13.878 -0.9916  2.2205 -1.0064
 6981TIP3   OH242433   5.714   0.158   4.439  0.5433  0.1278  0.0262
 6981TIP3    H142434   5.632   0.121   4.407  0.0494  1.5042 -0.3993
 6981TIP3    H242435   5.694   0.189   4.528  0.6208  0.3985 -0.0490
 6982TIP3   OH242436   6.449   0.232   5.155 -0.1389 -0.2389  0.6585
 6982TIP3    H142437   6.399   0.193   5.082  1.0744  0.8118 -0.7927
 6982TIP3    H242438   6.478   0.317   5.122 -0.3697  0.7222  2.7574
 6983TIP3   OH242439   0.042   2.122   0.239 -0.3083  0.4036  0.0318
 6983TIP3    H142440   0.006   2.211   0.239  1.1606  1.0724 -1.8729
 6983TIP3    H242441  -0.026   2.068   0.200  0.1369  1.3953 -2.2557
 6984TIP3   OH242442   2.013   3.668  16.140 -0.0311  0.4226  0.0037
 6984TIP3    H142443   1.972   3.625  16.215  0.3918  0.0951  0.0495
 6984TIP3    H242444   1.995   3.761  16.153 -1.4386  0.2332 -0.3866
 6985TIP3   OH242445   2.135   6.237   3.587 -0.1225 -0.3087 -0.0037
 6985TIP3    H142446   2.136   6.151   3.630 -1.1954 -0.1783  0.3175
 6985TIP3    H242447   2.141   6.217   3.493  0.1801 -0.6997  0.0962
 6986TIP3   OH242448   5.457   0.622  11.572 -0.2511 -0.2820  0.4855
 6986TIP3    H142449   5.542   0.606  11.614 -0.1215 -1.1318 -0.0783
 6986TIP3    H242450   5.440   0.715  11.589  0.9824  0.0064  0.2706
 6987TIP3   OH242451   5.561   1.991  13.758 -0.1724  0.1787 -0.4037
 6987TIP3    H142452   5.522   2.021  13.676 -1.1001 -0.5410 -0.2470
 6987TIP3    H242453   5.571   2.070  13.811 -0.1667  0.5570 -0.9579
 6988TIP3   OH242454   5.716   3.179   3.081  0.1391 -0.0901 -0.0849
 6988TIP3    H142455   5.736   3.257   3.133 -2.2940  0.3605  0.2663
 6988TIP3    H242456   5.778   3.184   3.008  0.9419  1.4347  0.6289
 6989TIP3   OH242457   4.123   2.742  15.505 -0.2261 -0.7253 -0.2287
 6989TIP3    H142458   4.167   2.827  15.502  0.3381 -1.0460 -1.8020
 6989TIP3    H242459   4.032   2.763  15.526  0.4518 -0.0024  2.3382
 6990TIP3   OH242460   1.390   3.240  13.740 -0.6935 -0.5256  0.1770
 6990TIP3    H142461   1.335   3.253  13.662 -0.8716  0.3625  0.4403
 6990TIP3    H242462   1.377   3.149  13.763 -1.1748 -0.6233 -0.4401
 6991TIP3   OH242463   4.808   1.161  13.580 -0.0322 -0.5799 -0.4395
 6991TIP3    H142464   4.787   1.227  13.647  1.1883  0.1172 -0.7211
 6991TIP3    H242465   4.794   1.077  13.624 -1.4800 -0.1575 -0.0305
 6992TIP3   OH242466   2.943   5.748  13.414  0.7215 -0.6782  0.1365
 6992TIP3    H142467   2.969   5.659  13.439  4.8668  0.2443 -0.1860
 6992TIP3    H242468   2.939   5.796  13.496 -1.5338 -1.0418  0.3115
 6993TIP3   OH242469   1.147   1.419   4.106  0.2632  0.4515  0.3639
 6993TIP3    H142470   1.199   1.339   4.100  0.9605  0.8710  0.6829
 6993TIP3    H242471   1.058   1.388   4.122  0.6431 -0.2516  1.2057
 6994TIP3   OH242472   5.207   3.349   2.125 -0.3363  0.3812  0.1029
 6994TIP3    H142473   5.157   3.285   2.074  1.3116 -1.3126  0.5194
 6994TIP3    H242474   5.268   3.387   2.062 -0.5630  0.7448  0.1012
 6995TIP3   OH242475   1.385   1.493   0.204  1.3400  0.0488  0.4796
 6995TIP3    H142476   1.427   1.434   0.267  0.1066 -1.4011  0.0019
 6995TIP3    H242477   1.350   1.434   0.137  2.0768  1.5102 -1.2457
 6996TIP3   OH242478   0.038   1.296   6.158  0.4250 -0.4213 -0.0784
 6996TIP3    H142479   0.079   1.297   6.245 -0.1041  1.5904  0.1952
 6996TIP3    H242480   0.071   1.375   6.115  1.0086 -1.6002 -1.9136
 6997TIP3   OH242481   5.326   6.843  12.704 -0.4832 -0.0220 -0.4348
 6997TIP3    H142482   5.296   6.919  12.754  0.2957 -1.2514  2.0908
 6997TIP3    H242483   5.387   6.879  12.639  0.4374  1.4569  1.1683
 6998TIP3   OH242484   4.382   2.839   4.325 -0.1444  0.2738  0.4726
 6998TIP3    H142485   4.401   2.748   4.348 -0.8049 -0.0800 -0.3539
 6998TIP3    H242486   4.453   2.865   4.266 -0.7168 -0.1736 -0.4311
 6999TIP3   OH242487   3.706   3.270   0.637 -0.3139  0.0354 -0.1206
 6999TIP3    H142488   3.731   3.178   0.646  1.9965  0.6714  0.7782
 6999TIP3    H242489   3.639   3.284   0.704  0.1563 -0.7277  0.5286
 7000TIP3   OH242490   4.452   1.747  16.072 -0.1365 -0.2962 -0.1273
 7000TIP3    H142491   4.516   1.754  16.143 -0.3304  1.6399 -0.0859
 7000TIP3    H242492   4.500   1.771  15.993 -0.4883 -0.1031 -0.2895
 7001TIP3   OH242493   6.598   5.463  11.111 -0.6412 -0.9036  0.2916
 7001TIP3    H142494   6.519   5.429  11.070 -0.2855 -0.4575 -0.8191
 7001TIP3    H242495   6.658   5.388  11.116 -0.7639 -1.0101  0.1663
 7002TIP3   OH242496   0.549   2.611  16.314  0.1757  0.0395 -0.0166
 7002TIP3    H142497   0.560   2.549  16.242  1.4823  1.2942 -0.9439
 7002TIP3    H242498   0.486   2.675  16.281  2.0606  1.5874 -0.7736
 7003TIP3   OH242499   4.372   1.015  15.090 -0.2855  0.0260 -0.1677
 7003TIP3    H142500   4.354   0.998  15.183 -0.7836  1.1196 -0.0439
 7003TIP3    H242501   4.292   0.985  15.045 -0.1695 -0.2168 -0.2138
 7004TIP3   OH242502   2.651   4.969  12.768  0.0346 -0.3963 -0.4941
 7004TIP3    H142503   2.667   4.891  12.822 -2.5538 -0.9701 -0.4313
 7004TIP3    H242504   2.574   4.946  12.716 -0.8733  2.1773 -0.3960
 7005TIP3   OH242505   2.453   4.911   2.835 -0.2729  0.0406  1.1914
 7005TIP3    H142506   2.365   4.939   2.857 -0.2021  0.3431  1.1003
 7005TIP3    H242507   2.499   4.993   2.812 -0.6200 -0.3241 -1.0926
 7006TIP3   OH242508   2.117   0.349  11.579  0.5436  0.3781  0.5020
 7006TIP3    H142509   2.190   0.296  11.610 -0.1458 -1.3389 -0.6033
 7006TIP3    H242510   2.148   0.386  11.496  0.9433  1.5389  1.1605
 7007TIP3   OH242511   1.131   6.223   1.643  0.9299 -0.2833 -0.9704
 7007TIP3    H142512   1.051   6.245   1.597  1.2719 -0.0646 -1.4700
 7007TIP3    H242513   1.155   6.304   1.689  0.8106 -0.3810 -0.7306
 7008TIP3   OH242514   6.171   0.098  15.938 -0.2036 -0.0145  0.8145
 7008TIP3    H142515   6.181   0.084  16.033 -0.9868 -0.6516  0.8122
 7008TIP3    H242516   6.186   0.192  15.927  2.7760 -0.3454  1.1693
 7009TIP3   OH242517   1.695   5.813   1.829  0.5294  0.4182  0.0036
 7009TIP3    H142518   1.624   5.868   1.796  2.1349  2.2395 -0.5562
 7009TIP3    H242519   1.701   5.835   1.922  0.1319 -0.0075  0.1317
 7010TIP3   OH242520   5.748   2.866  12.098  0.0161  0.4886  0.3236
 7010TIP3    H142521   5.726   2.780  12.062 -1.8135  1.7935 -2.0357
 7010TIP3    H242522   5.828   2.891  12.052 -0.1533  0.5546  0.0631
 7011TIP3   OH242523   1.658   4.534   4.997 -0.1341  0.3031 -0.3057
 7011TIP3    H142524   1.665   4.546   4.902 -0.2890 -0.5508 -0.4384
 7011TIP3    H242525   1.584   4.474   5.008 -0.8085  1.2425  0.4299
 7012TIP3   OH242526   2.735   1.929   3.514 -0.0531 -0.1186 -0.3268
 7012TIP3    H142527   2.662   1.990   3.523  1.5052  1.9150 -0.7655
 7012TIP3    H242528   2.764   1.938   3.424  2.8991  1.8346  0.6770
 7013TIP3   OH242529   3.256   6.534  16.572  0.1322 -0.0796  0.2317
 7013TIP3    H142530   3.236   6.501  16.484  0.0788 -1.2872  0.6725
 7013TIP3    H242531   3.349   6.514  16.584  0.6435  1.7947 -0.2431
 7014TIP3   OH242532   0.146   3.485  14.933 -0.2633  0.1104 -0.4838
 7014TIP3    H142533   0.208   3.454  14.998 -0.7099 -1.6518 -0.8519
 7014TIP3    H242534   0.189   3.559  14.891 -0.1583  1.6292  2.1085
 7015TIP3   OH242535   4.596   4.304  15.217 -0.2464 -0.3907  0.0554
 7015TIP3    H142536   4.507   4.282  15.192 -0.8769  0.5979  1.2694
 7015TIP3    H242537   4.630   4.225  15.258 -1.9124  0.2143  2.9326
 7016TIP3   OH242538   6.765   3.090  12.242  0.2088  0.3821 -0.5621
 7016TIP3    H142539   6.812   3.159  12.195 -0.4191  1.3379  0.1838
 7016TIP3    H242540   6.697   3.062  12.181  0.1753  0.7387 -0.6868
 7017TIP3   OH242541   2.348   3.293  14.018  0.1752 -0.4074  0.7677
 7017TIP3    H142542   2.397   3.374  14.007  0.2724 -0.5373  0.1883
 7017TIP3    H242543   2.394   3.229  13.963 -0.8518 -0.4371 -0.1070
 7018TIP3   OH242544   0.254   6.527  14.972 -0.2509 -0.5289  0.4501
 7018TIP3    H142545   0.342   6.548  14.939 -0.0515 -1.3931  0.4021
 7018TIP3    H242546   0.199   6.598  14.941 -0.0821 -1.3089 -1.8317
 7019TIP3   OH242547   0.675   5.082   2.754  0.2600  0.3077  0.1245
 7019TIP3    H142548   0.708   5.026   2.684  0.2732 -1.2149  1.2936
 7019TIP3    H242549   0.635   5.021   2.817 -1.4598  1.7824  0.5337
 7020TIP3   OH242550   4.532   6.332   5.395  0.0437 -0.0659 -0.8294
 7020TIP3    H142551   4.513   6.421   5.426  2.1952  0.2174 -0.1478
 7020TIP3    H242552   4.612   6.307   5.441 -0.2263 -2.1811 -1.4058
 7021TIP3   OH242553   5.423   4.203   6.577  0.2581  0.0522 -0.4836
 7021TIP3    H142554   5.502   4.228   6.625  0.0514 -1.6886  0.8806
 7021TIP3    H242555   5.456   4.165   6.495  0.8305 -0.3707 -0.0700
 7022TIP3   OH242556   5.272   2.896   4.044 -0.0623 -0.3987 -0.4908
 7022TIP3    H142557   5.284   2.960   3.974  1.1358  0.9744  0.9116
 7022TIP3    H242558   5.345   2.912   4.104 -3.3561  1.6049  3.4252
 7023TIP3   OH242559   0.302   4.674   1.896 -0.0134 -0.0379  0.0098
 7023TIP3    H142560   0.389   4.711   1.910  0.1367  0.4322 -1.9154
 7023TIP3    H242561   0.241   4.744   1.918  0.0232 -0.4942  1.7577
 7024TIP3   OH242562   6.132   6.700  16.892 -0.2688 -0.2062  0.1037
 7024TIP3    H142563   6.201   6.713  16.957 -0.0247  1.4731 -0.4545
 7024TIP3    H242564   6.055   6.741  16.931 -0.3738 -0.0754 -0.2382
 7025TIP3   OH242565   0.758   3.036   2.283 -0.0205  0.6577  0.0398
 7025TIP3    H142566   0.822   3.096   2.247  0.8635 -0.9706 -1.2557
 7025TIP3    H242567   0.791   2.949   2.260 -1.2488 -0.3513  1.8044
 7026TIP3   OH242568   4.808   5.998  10.815  0.4183  0.2569 -0.7664
 7026TIP3    H142569   4.758   6.057  10.870  1.8062  1.1120 -0.3718
 7026TIP3    H242570   4.846   6.055  10.748  0.0216 -0.5327 -1.6851
 7027TIP3   OH242571   4.273   3.656   3.439  0.3936 -0.5183  0.0853
 7027TIP3    H142572   4.268   3.716   3.513 -0.1807  0.5063 -0.7374
 7027TIP3    H242573   4.366   3.638   3.428  0.4365 -1.1124  1.3790
 7028TIP3   OH242574   4.172   3.761   2.415 -0.1532 -0.0981 -0.3061
 7028TIP3    H142575   4.109   3.691   2.394  2.5733 -2.0356 -2.7052
 7028TIP3    H242576   4.219   3.727   2.492  0.5045 -0.4861 -0.8688
 7029TIP3   OH242577   2.192   6.143  15.918 -0.5064 -0.2917 -0.1699
 7029TIP3    H142578   2.178   6.234  15.941  2.5884  1.0547 -2.9068
 7029TIP3    H242579   2.280   6.122  15.951 -0.5493 -1.7808 -0.8858
 7030TIP3   OH242580   4.717   5.332  15.229 -0.5247  0.1091 -0.2243
 7030TIP3    H142581   4.714   5.240  15.203  0.3011  0.1714 -0.5854
 7030TIP3    H242582   4.678   5.334  15.316 -0.3556 -0.6197 -0.1258
 7031TIP3   OH242583   3.815   1.369   4.206 -0.0822 -0.6071 -0.2695
 7031TIP3    H142584   3.863   1.447   4.179  1.4411 -1.2959  0.3720
 7031TIP3    H242585   3.882   1.302   4.219 -1.4403 -2.5853 -2.5257
 7032TIP3   OH242586   6.722   2.985   5.957  0.1686  0.0033 -0.4529
 7032TIP3    H142587   6.798   2.936   5.925 -1.0021 -0.9885 -1.8094
 7032TIP3    H242588   6.720   2.967   6.051  1.1599 -0.5884 -0.5370
 7033TIP3   OH242589   3.036   6.286  15.745  0.3428  0.0111 -0.0076
 7033TIP3    H142590   3.041   6.290  15.649 -1.4683  0.1806 -0.1316
 7033TIP3    H242591   2.983   6.208  15.762  1.7091 -0.7414  0.9231
 7034TIP3   OH242592   0.790   0.400   2.624 -0.0267 -0.3640 -0.4208
 7034TIP3    H142593   0.848   0.378   2.697 -0.0310  0.9207  0.0079
 7034TIP3    H242594   0.702   0.396   2.662 -0.0751 -0.3645 -0.5329
 7035TIP3   OH242595   6.799   1.953  13.104  0.1416  0.0164 -0.4333
 7035TIP3    H142596   6.740   2.024  13.130  1.3362  1.3923 -1.2637
 7035TIP3    H242597   6.882   1.975  13.146  0.2805 -1.4636  0.1015
 7036TIP3   OH242598   6.271   5.313  12.493  0.4977  0.4252  0.0104
 7036TIP3    H142599   6.354   5.272  12.518  1.4195  2.4538  0.5421
 7036TIP3    H242600   6.283   5.339  12.402 -0.0724 -0.4317 -0.3207
 7037TIP3   OH242601   0.389   3.594   6.311 -0.3268 -0.3345 -0.0798
 7037TIP3    H142602   0.450   3.668   6.314 -1.8313  0.9631 -0.2426
 7037TIP3    H242603   0.391   3.558   6.400  0.3836 -0.0833  0.0167
 7038TIP3   OH242604   5.866   2.044   3.423 -0.2872  0.2192  0.5674
 7038TIP3    H142605   5.926   2.007   3.488  0.4218 -1.3182 -0.8942
 7038TIP3    H242606   5.803   1.974   3.405 -0.8895  0.8624  0.0920
 7039TIP3   OH242607   4.692   5.901  16.438  0.1762  0.5595  0.3183
 7039TIP3    H142608   4.663   5.810  16.436  3.8527 -0.7941  1.0122
 7039TIP3    H242609   4.732   5.914  16.352 -0.1770  1.5137  0.2893
 7040TIP3   OH242610   1.605   5.567  11.560 -0.4176  0.2259  0.1578
 7040TIP3    H142611   1.693   5.528  11.556 -0.2101  0.3708  2.1782
 7040TIP3    H242612   1.553   5.513  11.500  1.0729  0.2900 -1.2710
 7041TIP3   OH242613   6.341   5.875  13.910  0.7566  0.0838  0.3417
 7041TIP3    H142614   6.361   5.959  13.870  1.3081  0.4820  1.4199
 7041TIP3    H242615   6.247   5.863  13.894  0.6297  0.9932  0.3329
 7042TIP3   OH242616   5.942   2.371   6.443  0.2940 -0.2976 -0.2777
 7042TIP3    H142617   6.023   2.377   6.392 -0.5958  0.7766 -1.6200
 7042TIP3    H242618   5.872   2.389   6.380 -0.9221 -0.0846  1.0820
 7043TIP3   OH242619   5.927   1.312   3.702 -0.0102 -0.1327  0.0226
 7043TIP3    H142620   5.843   1.278   3.670 -2.7854  3.0460  3.0618
 7043TIP3    H242621   5.955   1.249   3.768 -0.8274 -0.4713  0.0609
 7044TIP3   OH242622   2.907   3.893   2.192  0.3430  0.1265  0.3473
 7044TIP3    H142623   2.888   3.922   2.102 -2.7613 -0.3660  0.7145
 7044TIP3    H242624   2.907   3.798   2.187 -0.5528  0.0821  0.9537
 7045TIP3   OH242625   0.223   1.256   6.392  0.7098 -0.5703 -0.2988
 7045TIP3    H142626   0.307   1.212   6.400  0.7763 -0.3463  0.2509
 7045TIP3    H242627   0.243   1.349   6.397  0.5949 -0.4497 -1.7027
 7046TIP3   OH242628   5.016   6.257  14.950 -0.4599  0.0445 -0.2337
 7046TIP3    H142629   4.976   6.343  14.961  0.6306  0.2490  3.6245
 7046TIP3    H242630   4.949   6.196  14.980 -0.2752 -0.2175 -0.3510
 7047TIP3   OH242631   4.932   6.171  14.421 -0.0785  0.1928  0.3926
 7047TIP3    H142632   5.003   6.196  14.362 -0.1937 -0.8760 -0.2328
 7047TIP3    H242633   4.957   6.208  14.505  0.8745  0.4222  0.0269
 7048TIP3   OH242634   4.530   3.017  12.448 -0.3294 -0.5072  0.1513
 7048TIP3    H142635   4.614   2.973  12.462 -0.0771 -0.5607 -1.3724
 7048TIP3    H242636   4.543   3.105  12.482  0.4048 -0.4741 -0.1947
 7049TIP3   OH242637   1.221   1.952  13.525 -0.4603  0.3804  0.0449
 7049TIP3    H142638   1.280   1.944  13.450 -0.7810  0.7341 -0.2554
 7049TIP3    H242639   1.158   2.019  13.498  0.5313  1.9119  1.3871
 7050TIP3   OH242640   6.168   2.395  13.567 -0.1690  0.3855  0.2064
 7050TIP3    H142641   6.225   2.399  13.644  0.6982  0.4792 -0.4286
 7050TIP3    H242642   6.086   2.358  13.600  0.8589 -1.5128  0.7866
 7051TIP3   OH242643   6.333   3.209  12.729 -0.0358  0.1140  0.0210
 7051TIP3    H142644   6.421   3.181  12.753  0.0635  0.0998 -0.3603
 7051TIP3    H242645   6.283   3.204  12.811  0.4064  0.4885  0.3171
 7052TIP3   OH242646   4.943   3.453  11.721 -0.2054  0.4599 -0.0004
 7052TIP3    H142647   4.978   3.404  11.646 -0.9074 -0.7975  0.4505
 7052TIP3    H242648   4.850   3.466  11.700 -0.4256  0.0231  0.6735
 7053TIP3   OH242649   4.845   6.373  14.717 -0.2277  0.2824  0.1527
 7053TIP3    H142650   4.815   6.399  14.805  1.2951  0.0495  0.7670
 7053TIP3    H242651   4.782   6.307  14.689 -1.0180  0.7180  0.8653
 7054TIP3   OH242652   0.080   2.258   5.195  0.3533  0.4272  0.2160
 7054TIP3    H142653  -0.003   2.211   5.190  1.0971 -0.7895 -2.1957
 7054TIP3    H242654   0.055   2.349   5.213 -1.4112 -0.1010  0.6012
 7055TIP3   OH242655   4.013   3.184  16.828  0.3156  0.4233  0.1429
 7055TIP3    H142656   4.091   3.227  16.866 -0.6910  1.9434  0.5785
 7055TIP3    H242657   3.965   3.152  16.904 -2.1351  4.2013  0.4725
 7056TIP3   OH242658   5.818   5.703   5.393  0.1144  0.0838  0.1195
 7056TIP3    H142659   5.887   5.740   5.448  0.1839 -0.1724  0.2080
 7056TIP3    H242660   5.743   5.692   5.452 -0.2825  1.1575 -0.1726
 7057TIP3   OH242661   6.041   0.084  15.669 -0.1416  0.1534 -0.3831
 7057TIP3    H142662   6.058   0.094  15.763  0.2429 -0.0585 -0.4251
 7057TIP3    H242663   6.087   0.158  15.629  0.2237 -0.1077 -0.4525
 7058TIP3   OH242664   0.563   6.714   6.373  0.1162 -0.2222  0.2474
 7058TIP3    H142665   0.633   6.719   6.438  1.9107 -1.7795 -1.4266
 7058TIP3    H242666   0.609   6.718   6.289 -1.9634  0.0783 -0.9352
 7059TIP3   OH242667   0.172   6.732   4.918  0.5465 -0.3078 -0.2773
 7059TIP3    H142668   0.126   6.763   4.840 -1.2127 -0.1696  0.7670
 7059TIP3    H242669   0.140   6.787   4.989  2.9440  0.3120  0.4169
 7060TIP3   OH242670   1.284   1.326   1.610  0.6936  0.3286  0.0622
 7060TIP3    H142671   1.299   1.276   1.690 -0.6365 -1.6786 -0.8513
 7060TIP3    H242672   1.237   1.405   1.639 -1.3489 -1.1920  1.1568
 7061TIP3   OH242673   0.598   2.748   5.748 -0.2036  0.2367  0.6441
 7061TIP3    H142674   0.534   2.818   5.746 -0.3089  0.1418  0.7025
 7061TIP3    H242675   0.571   2.688   5.678  0.4540  0.7535 -0.0774
 7062TIP3   OH242676   0.519   2.261  13.514  0.2137 -0.6136  0.3644
 7062TIP3    H142677   0.607   2.226  13.525  0.5246  0.3956  1.2349
 7062TIP3    H242678   0.530   2.335  13.454 -0.2239 -1.1254 -0.3686
 7063TIP3   OH242679   4.453   6.643   3.939  0.2359 -0.2332 -0.3102
 7063TIP3    H142680   4.434   6.552   3.914  0.0924 -1.2205  2.8715
 7063TIP3    H242681   4.507   6.635   4.018  0.6846  2.4777 -0.2567
 7064TIP3   OH242682   0.037   4.059   5.862  0.0107 -0.2023 -0.0495
 7064TIP3    H142683   0.045   4.144   5.904  1.3498 -0.1627 -0.3489
 7064TIP3    H242684   0.031   3.997   5.935  1.6374 -0.0734  0.2236
 7065TIP3   OH242685   3.513   3.741   2.841  0.0903  0.2613  0.0535
 7065TIP3    H142686   3.498   3.704   2.928  0.4662 -0.8620 -0.3389
 7065TIP3    H242687   3.444   3.703   2.786  2.5876 -2.9231 -1.1883
 7066TIP3   OH242688   4.892   5.352  12.864 -0.3051  0.5509 -0.3336
 7066TIP3    H142689   4.973   5.403  12.859 -0.8718  1.4397 -0.6376
 7066TIP3    H242690   4.889   5.320  12.954 -0.2949  1.6735  0.0787
 7067TIP3   OH242691   0.957   1.195   4.784 -0.3004  0.4739 -0.1937
 7067TIP3    H142692   0.866   1.224   4.775 -0.4722 -0.0483 -0.2164
 7067TIP3    H242693   0.951   1.116   4.838 -0.2992 -1.6576 -3.0573
 7068TIP3   OH242694   3.496   4.088   4.596 -0.6390  0.3785 -0.1687
 7068TIP3    H142695   3.477   4.002   4.633  0.7509  0.8111  1.6941
 7068TIP3    H242696   3.591   4.090   4.587 -0.5835  1.9721  0.5306
 7069TIP3   OH242697   6.048   6.294   5.085  0.1537  0.3757 -0.6115
 7069TIP3    H142698   6.023   6.210   5.123  0.3922  0.8677  0.7260
 7069TIP3    H242699   6.053   6.279   4.991  0.5702 -1.2010 -0.3573
 7070TIP3   OH242700   3.709   0.499   2.960 -0.3336 -0.0726  0.7696
 7070TIP3    H142701   3.722   0.463   2.872 -1.2394  2.8729 -0.7153
 7070TIP3    H242702   3.761   0.443   3.017  2.8080 -0.3614 -2.0659
 7071TIP3   OH242703   2.214   6.406  11.015  0.2215  0.1820  0.0980
 7071TIP3    H142704   2.258   6.448  11.090  0.8998  0.5680 -0.5068
 7071TIP3    H242705   2.151   6.347  11.055  0.2960  0.6806  0.9829
 7072TIP3   OH242706   5.422   0.425   1.600  0.0651 -0.4023  0.0889
 7072TIP3    H142707   5.450   0.496   1.541 -0.0893  0.4600  1.0365
 7072TIP3    H242708   5.333   0.450   1.627 -0.2507 -1.3008 -0.0767
 7073TIP3   OH242709   2.367   1.211   0.694 -0.2193 -0.4841  0.4436
 7073TIP3    H142710   2.414   1.174   0.620  0.7754  0.2078  0.7071
 7073TIP3    H242711   2.274   1.192   0.676  0.1425 -1.8688 -0.0784
 7074TIP3   OH242712   2.322   0.420  16.701 -0.2906 -0.2479  0.5226
 7074TIP3    H142713   2.411   0.430  16.665 -0.3647 -0.0952  0.3802
 7074TIP3    H242714   2.301   0.506  16.737 -1.6686  0.7731 -2.3789
 7075TIP3   OH242715   0.777   3.125  11.329 -0.2113 -0.4301 -1.1531
 7075TIP3    H142716   0.850   3.139  11.269  0.1248  2.4157 -0.2445
 7075TIP3    H242717   0.699   3.126  11.274  0.3047 -1.9065 -1.9477
 7076TIP3   OH242718   1.919   6.016   1.790  0.1403 -0.2131  0.1488
 7076TIP3    H142719   1.976   5.939   1.788  0.0968 -0.2346 -2.2359
 7076TIP3    H242720   1.971   6.082   1.836  0.9534 -1.0758  0.5122
 7077TIP3   OH242721   2.862   4.905  13.435  0.0764  0.0106  0.3536
 7077TIP3    H142722   2.908   4.902  13.519 -2.4573 -1.4132  1.8021
 7077TIP3    H242723   2.824   4.992  13.431  2.7698  1.2696 -0.9349
 7078TIP3   OH242724   2.047   5.545   5.822 -0.7277  0.2269 -0.2129
 7078TIP3    H142725   2.137   5.551   5.854 -0.0660 -1.5713 -1.5469
 7078TIP3    H242726   2.005   5.481   5.879 -0.2082 -1.2491 -1.3941
 7079TIP3   OH242727   1.549   6.431  11.005  0.2326  0.0769 -0.4053
 7079TIP3    H142728   1.603   6.406  11.079  0.7663  1.6638 -0.2219
 7079TIP3    H242729   1.609   6.434  10.930  0.0199  0.0193 -0.5822
 7080TIP3   OH242730   3.870   4.671  13.569 -0.3617 -0.2553 -0.0791
 7080TIP3    H142731   3.834   4.727  13.501 -0.2057 -0.4775 -0.3479
 7080TIP3    H242732   3.845   4.713  13.651  0.0779  0.4182 -0.2760
 7081TIP3   OH242733   1.312   6.625  10.909  0.1955 -0.2882 -0.3759
 7081TIP3    H142734   1.337   6.663  10.993  0.4891  0.5329 -0.8203
 7081TIP3    H242735   1.226   6.663  10.890  1.1441  1.4167 -1.5404
 7082TIP3   OH242736   4.454   2.634   5.859 -0.1486  0.1327 -0.0166
 7082TIP3    H142737   4.461   2.585   5.777  1.3117 -1.5598  1.0392
 7082TIP3    H242738   4.376   2.598   5.901  2.0724 -3.1706  1.7588
 7083TIP3   OH242739   3.647   3.124  12.638  0.5549 -0.1538 -0.3848
 7083TIP3    H142740   3.617   3.109  12.549  2.6011 -0.0324 -1.1472
 7083TIP3    H242741   3.619   3.213  12.659 -0.1758 -0.2864 -0.7805
 7084TIP3   OH242742   2.891   6.740   0.912 -0.4071 -0.2227 -0.4458
 7084TIP3    H142743   2.895   6.765   0.819 -1.6739  2.3612  0.1203
 7084TIP3    H242744   2.893   6.823   0.959 -3.6447 -1.1874  1.7133
 7085TIP3   OH242745   1.802   1.851   3.618  0.0992  0.8014 -0.1904
 7085TIP3    H142746   1.790   1.891   3.704  0.9716  1.8676 -0.5369
 7085TIP3    H242747   1.891   1.815   3.621  0.7311  2.1858 -1.1265
 7086TIP3   OH242748   3.586   5.274  12.651 -0.6549  0.0502 -0.0423
 7086TIP3    H142749   3.607   5.343  12.588 -2.7061  1.7273  0.9769
 7086TIP3    H242750   3.639   5.293  12.727 -1.6645  0.9450  0.4690
 7087TIP3   OH242751   4.925   0.732   1.043 -0.0070  0.2880 -0.7240
 7087TIP3    H142752   4.910   0.692   0.957  0.9545  0.6077 -1.0526
 7087TIP3    H242753   4.931   0.826   1.025  2.6097  0.2118 -0.7177
 7088TIP3   OH242754   4.710   3.205   4.005 -0.2366  0.9047  0.3827
 7088TIP3    H142755   4.664   3.233   3.927 -1.3248  0.2735  0.7629
 7088TIP3    H242756   4.795   3.174   3.974 -0.3725  1.3562 -0.4470
 7089TIP3   OH242757   0.206   3.666   3.484  0.2549 -0.4396 -0.5951
 7089TIP3    H142758   0.215   3.575   3.458  0.4192  0.5334 -4.6733
 7089TIP3    H242759   0.294   3.703   3.476  0.0398  0.2863  0.1875
 7090TIP3   OH242760   2.732   6.057  10.961  0.1475  0.3234 -0.3027
 7090TIP3    H142761   2.759   5.968  10.937  1.3936  0.6490 -0.1834
 7090TIP3    H242762   2.646   6.068  10.919 -0.6178 -1.3638  0.7378
 7091TIP3   OH242763   2.630   1.710   5.909 -0.2123 -0.4629 -0.1456
 7091TIP3    H142764   2.548   1.677   5.947 -0.9288  1.0798 -0.2467
 7091TIP3    H242765   2.690   1.717   5.983  0.1854 -2.5071 -0.2193
 7092TIP3   OH242766   1.104   1.717   3.462  0.1995 -0.1961 -0.7814
 7092TIP3    H142767   1.074   1.757   3.381  0.4751  0.8756 -0.3689
 7092TIP3    H242768   1.179   1.663   3.437 -1.3223 -2.0412 -1.6463
 7093TIP3   OH242769   2.706   2.640   2.554  0.4213 -0.1811  0.0736
 7093TIP3    H142770   2.742   2.579   2.490  0.8390 -0.9642  1.0441
 7093TIP3    H242771   2.779   2.697   2.577 -0.2190  1.4217 -1.6178
 7094TIP3   OH242772   6.687   4.862  14.084  0.2671 -0.3215 -0.2872
 7094TIP3    H142773   6.777   4.878  14.055  1.7451 -1.1555  3.2906
 7094TIP3    H242774   6.696   4.817  14.168 -3.4399  1.4800  1.3417
 7095TIP3   OH242775   3.829   5.777   1.132  0.1859 -0.3257  0.0154
 7095TIP3    H142776   3.923   5.777   1.152  0.3362  2.5868 -0.3008
 7095TIP3    H242777   3.788   5.815   1.210 -0.7679 -1.5583  0.1440
 7096TIP3   OH242778   6.263   1.450  12.891  0.3270 -0.0085  0.7433
 7096TIP3    H142779   6.339   1.478  12.943  0.9354  0.4301 -0.3525
 7096TIP3    H242780   6.220   1.532  12.865 -1.0210 -0.2582  2.0205
 7097TIP3   OH242781   6.621   3.182   0.089 -0.0562 -0.1889 -0.2541
 7097TIP3    H142782   6.593   3.102   0.047  0.2145 -0.5745  0.2822
 7097TIP3    H242783   6.626   3.247   0.019  0.1933 -0.7650 -0.7696
 7098TIP3   OH242784   3.163   4.235   2.912  0.1756 -0.4304 -0.0924
 7098TIP3    H142785   3.197   4.246   3.001 -0.7874  1.6440  0.0711
 7098TIP3    H242786   3.224   4.172   2.871 -0.1165 -2.4778  2.3680
 7099TIP3   OH242787   3.448   4.575  14.022 -0.4109 -0.2842  0.2282
 7099TIP3    H142788   3.460   4.550  14.114 -2.6106 -1.5822  0.2370
 7099TIP3    H242789   3.398   4.504  13.984 -0.0387  0.4987 -1.8728
 7100TIP3   OH242790   5.842   0.518   0.815  0.2421 -0.0009  0.8665
 7100TIP3    H142791   5.843   0.591   0.752  0.3066 -0.5117  0.2701
 7100TIP3    H242792   5.923   0.530   0.866  1.7636 -1.2579 -1.1116
 7101TIP3   OH242793   3.212   0.197   3.042  0.0954  0.0311 -0.1274
 7101TIP3    H142794   3.185   0.228   3.129  0.1925 -1.9250  0.6479
 7101TIP3    H242795   3.264   0.269   3.006  1.3367  0.3192  2.0625
 7102TIP3   OH242796   2.639   5.475  16.923 -0.5270 -0.1160 -0.3969
 7102TIP3    H142797   2.548   5.479  16.895 -0.5675 -1.7833 -0.6475
 7102TIP3    H242798   2.646   5.391  16.968  0.9433 -0.1416 -0.6224
 7103TIP3   OH242799   4.969   5.436  14.354 -0.1073  0.5225  0.1980
 7103TIP3    H142800   4.957   5.526  14.385  0.0215  0.7549 -0.4214
 7103TIP3    H242801   5.062   5.429  14.334 -0.3390  0.6430 -0.9565
 7104TIP3   OH242802   5.961   3.136  14.797 -0.0150  0.6545 -0.2819
 7104TIP3    H142803   6.015   3.061  14.823 -0.5428  0.6291  0.7753
 7104TIP3    H242804   5.875   3.098  14.778 -0.1793  0.9421 -0.1144
 7105TIP3   OH242805   4.734   0.285  14.233  0.0690  0.3873 -0.1868
 7105TIP3    H142806   4.685   0.293  14.315  1.3340 -2.3130  0.9689
 7105TIP3    H242807   4.668   0.263  14.168 -0.5768 -1.2391  0.9395
 7106TIP3   OH242808   3.475   1.267   2.879  0.1567  0.0550  0.1261
 7106TIP3    H142809   3.558   1.236   2.916 -0.4626 -1.5262  0.2585
 7106TIP3    H242810   3.467   1.220   2.795 -0.7985 -0.1414  0.3166
 7107TIP3   OH242811   4.584   6.554  14.124  0.0957 -0.1774 -0.2952
 7107TIP3    H142812   4.494   6.575  14.146  0.0783 -1.4024  1.0000
 7107TIP3    H242813   4.604   6.477  14.178  1.6163 -0.4777 -1.2321
 7108TIP3   OH242814   2.522   0.454   5.394  0.7847 -0.0554  0.4838
 7108TIP3    H142815   2.490   0.459   5.304 -2.1744  1.1900  1.4762
 7108TIP3    H242816   2.617   0.445   5.386  0.7035  0.9051 -2.7345
 7109TIP3   OH242817   2.830   3.803   3.925  0.0074 -0.0158 -0.1047
 7109TIP3    H142818   2.901   3.829   3.866  0.5619 -1.7189 -0.2735
 7109TIP3    H242819   2.769   3.876   3.924  1.1035  0.9263 -1.0352
 7110TIP3   OH242820   6.139   6.124   0.036 -0.7710  0.2966 -0.8876
 7110TIP3    H142821   6.205   6.101   0.101 -0.6319  1.2116 -0.6904
 7110TIP3    H242822   6.063   6.071   0.059 -0.2865 -0.3780 -0.8027
 7111TIP3   OH242823   1.277   6.831  11.839  0.2234 -0.3150 -0.9410
 7111TIP3    H142824   1.228   6.793  11.912  0.7344 -0.8132 -0.8457
 7111TIP3    H242825   1.355   6.775  11.832  0.6589  0.3239 -1.2329
 7112TIP3   OH242826   4.301   3.485  15.159  0.2856 -0.3636 -0.3445
 7112TIP3    H142827   4.386   3.502  15.118  0.9252  3.3546  2.0246
 7112TIP3    H242828   4.249   3.563  15.141 -0.9436 -0.5209  2.0882
 7113TIP3   OH242829   1.372   4.561  15.801 -0.0013 -0.6308 -0.4583
 7113TIP3    H142830   1.460   4.592  15.823  0.3332 -2.1624  0.5165
 7113TIP3    H242831   1.347   4.611  15.723  1.2463  0.6673 -0.0563
 7114TIP3   OH242832   6.785   3.361   4.178  0.1109 -0.6699 -0.6498
 7114TIP3    H142833   6.801   3.304   4.102 -0.7456  0.5492 -1.7936
 7114TIP3    H242834   6.786   3.449   4.141  1.6637  0.1092  1.1175
 7115TIP3   OH242835   1.601   1.652   0.164 -0.2725 -0.1672 -0.0471
 7115TIP3    H142836   1.529   1.590   0.174 -0.3388  0.0307  0.7121
 7115TIP3    H242837   1.644   1.625   0.082 -1.0193 -0.4677 -0.3495
 7116TIP3   OH242838   5.794   2.505   4.282  0.1033 -0.5098  0.6389
 7116TIP3    H142839   5.721   2.493   4.221  1.8952 -0.9695 -1.5338
 7116TIP3    H242840   5.767   2.578   4.337 -1.2708  0.4895 -1.2346
 7117TIP3   OH242841   4.917   1.190  14.969 -0.4341  0.1346  0.0904
 7117TIP3    H142842   4.937   1.283  14.959  1.8086 -0.4323 -1.3892
 7117TIP3    H242843   4.882   1.163  14.884 -0.1468 -0.5673  0.1877
 7118TIP3   OH242844   3.292   4.982  16.949  0.2969  0.1174  0.0253
 7118TIP3    H142845   3.370   4.931  16.968  0.2435  0.3209  0.8296
 7118TIP3    H242846   3.275   4.966  16.856  0.8955 -0.4643  0.0082
 7119TIP3   OH242847   4.050   6.284   0.037  0.4697 -0.3740  0.1455
 7119TIP3    H142848   3.984   6.286  -0.032  0.2053 -1.7337  0.3296
 7119TIP3    H242849   4.008   6.325   0.113  0.4753  0.3784 -0.2519
 7120TIP3   OH242850   0.125   5.901  13.549 -0.1255 -0.2091 -0.1139
 7120TIP3    H142851   0.106   5.878  13.458 -1.1692 -1.8696  0.4999
 7120TIP3    H242852   0.182   5.831  13.580  0.4583  0.5034  0.4463
 7121TIP3   OH242853   2.969   1.302   3.560  0.4162 -0.3031  0.0352
 7121TIP3    H142854   2.889   1.260   3.528 -0.4072  2.0149 -1.1856
 7121TIP3    H242855   3.007   1.343   3.482  0.9672  1.4586  1.1708
 7122TIP3   OH242856   4.163   3.779   1.330 -0.3330 -0.5340  0.0938
 7122TIP3    H142857   4.219   3.702   1.335  0.7135  0.1879 -0.1260
 7122TIP3    H242858   4.195   3.836   1.400  1.3527  1.2230 -1.9340
 7123TIP3   OH242859   3.683   5.916   0.460 -0.6678  0.3157  0.0174
 7123TIP3    H142860   3.626   5.992   0.471 -0.6372  0.2775  0.4529
 7123TIP3    H242861   3.637   5.861   0.396 -1.6919 -0.2446  1.1913
 7124TIP3   OH242862   1.713   2.065   0.267  0.5971  0.9303  0.1769
 7124TIP3    H142863   1.684   1.997   0.207 -0.3248  1.5364 -0.0839
 7124TIP3    H242864   1.638   2.081   0.324  0.7447  1.8234  0.1424
 7125TIP3   OH242865   4.034   1.490   3.876 -0.9037 -0.0529 -0.2378
 7125TIP3    H142866   4.028   1.465   3.969 -1.5240  0.1221 -0.2324
 7125TIP3    H242867   4.121   1.459   3.850  0.1562  1.7244  0.9456
 7126TIP3   OH242868   1.744   2.030   1.530 -0.5691 -0.3619  0.6041
 7126TIP3    H142869   1.840   2.031   1.528 -0.5529 -0.7826  1.0232
 7126TIP3    H242870   1.721   2.097   1.594 -0.4863 -1.6114  2.0032
 7127TIP3   OH242871   0.583   0.275   4.227  0.1094 -0.6170 -0.5951
 7127TIP3    H142872   0.615   0.194   4.268  0.2209 -1.3270 -2.0192
 7127TIP3    H242873   0.663   0.325   4.207  0.1339 -0.8239 -1.0274
 7128TIP3   OH242874   4.410   6.495   2.490  0.0263  0.3036 -0.3166
 7128TIP3    H142875   4.315   6.486   2.477  0.0435  1.1923 -1.1066
 7128TIP3    H242876   4.449   6.435   2.426 -0.0019 -0.4376  0.3497
 7129TIP3   OH242877   2.112   0.271  15.483  0.0016 -0.1409  0.4085
 7129TIP3    H142878   2.043   0.292  15.546  0.1819  1.5952  0.0999
 7129TIP3    H242879   2.070   0.216  15.418 -0.2752 -1.6828  1.8262
 7130TIP3   OH242880   1.358   0.696   1.914  0.2844 -0.4176 -0.6689
 7130TIP3    H142881   1.268   0.711   1.885  0.2344  1.3267  0.2655
 7130TIP3    H242882   1.362   0.602   1.931 -1.4527 -0.4816 -0.4243
 7131TIP3   OH242883   3.420   1.139   0.195 -0.5743 -0.3004 -0.2971
 7131TIP3    H142884   3.386   1.064   0.244 -0.3436  0.1063  0.5104
 7131TIP3    H242885   3.363   1.147   0.119 -0.3632 -1.5342 -0.5963
 7132TIP3   OH242886   0.499   5.497   6.779 -0.6043  0.4107  0.5352
 7132TIP3    H142887   0.563   5.482   6.848 -1.4541 -0.9104  1.0732
 7132TIP3    H242888   0.540   5.460   6.700 -1.1297 -1.5169  1.1092
 7133TIP3   OH242889   3.552   2.842   6.596 -0.1147 -0.0312 -0.1054
 7133TIP3    H142890   3.632   2.876   6.554 -0.2305  0.4471  0.0530
 7133TIP3    H242891   3.568   2.748   6.606  0.5735  0.1177  0.2416
 7134TIP3   OH242892   0.743   2.028  16.334  0.3187 -0.0198  0.5617
 7134TIP3    H142893   0.660   2.061  16.299  0.4205  0.7867  1.0633
 7134TIP3    H242894   0.753   1.943  16.293  0.0557  0.5744 -0.8055
 7135TIP3   OH242895   4.583   6.188   1.327  0.0401  0.0240 -0.1918
 7135TIP3    H142896   4.658   6.129   1.336 -0.7244 -1.2242 -1.4856
 7135TIP3    H242897   4.622   6.275   1.319  1.1858 -0.1601  2.3482
 7136TIP3   OH242898   5.743   3.419  16.881 -0.4216 -0.0710  0.2988
 7136TIP3    H142899   5.694   3.439  16.802 -0.5268 -0.2149  0.3271
 7136TIP3    H242900   5.736   3.324  16.890  0.3665 -0.1676 -0.0294
 7137TIP3   OH242901   6.465   0.810  10.596  0.5941  0.7885  0.0065
 7137TIP3    H142902   6.494   0.888  10.549  1.1935  0.2290 -0.5842
 7137TIP3    H242903   6.456   0.743  10.528 -2.8612  1.0900  0.0115
 7138TIP3   OH242904   4.744   1.795  14.107 -0.2644  0.4902  0.2713
 7138TIP3    H142905   4.703   1.857  14.167 -0.9871  2.1686 -1.8081
 7138TIP3    H242906   4.787   1.850  14.042 -0.2756 -1.1987 -1.2540
 7139TIP3   OH242907   5.987   6.650  14.332  0.1910  0.0819 -0.1428
 7139TIP3    H142908   5.965   6.557  14.338  1.9443 -0.3502 -0.0689
 7139TIP3    H242909   6.066   6.653  14.278  0.7310  1.4310  0.6674
 7140TIP3   OH242910   0.637   2.417  13.302  0.0766  0.0818  0.8400
 7140TIP3    H142911   0.731   2.401  13.304  0.4426  1.2257 -1.8938
 7140TIP3    H242912   0.606   2.364  13.229 -0.7150  2.3895 -0.6075
 7141TIP3   OH242913   6.639   6.350   1.936  0.0731  0.7258  0.3609
 7141TIP3    H142914   6.581   6.279   1.911  0.6835 -0.8133  2.9882
 7141TIP3    H242915   6.715   6.340   1.879 -0.2772 -0.1250  0.0286
 7142TIP3   OH242916   4.319   5.109  16.786 -0.0817  0.1721  0.2908
 7142TIP3    H142917   4.332   5.029  16.734 -0.9618 -0.8432  1.5575
 7142TIP3    H242918   4.244   5.152  16.744 -0.0562 -0.0457  0.0174
 7143TIP3   OH242919   5.382   4.002   2.050 -0.7189 -0.0398 -0.7166
 7143TIP3    H142920   5.433   3.969   1.976 -0.5494  0.5925 -0.8885
 7143TIP3    H242921   5.338   3.924   2.085  2.2976 -1.1043  1.0361
 7144TIP3   OH242922   3.853   3.193   2.499 -0.2367 -0.1079  0.3353
 7144TIP3    H142923   3.799   3.115   2.507 -0.9322  0.1408 -1.3702
 7144TIP3    H242924   3.912   3.174   2.426  1.3157  0.0274  1.5087
 7145TIP3   OH242925   1.046   3.008   3.116  0.2167  0.4978 -0.1993
 7145TIP3    H142926   1.076   2.918   3.113  4.3343  1.6903 -0.8378
 7145TIP3    H242927   1.000   3.022   3.033  0.0368 -0.8422 -0.3362
 7146TIP3   OH242928   6.267   1.436  16.775 -0.0101 -0.4220 -0.3879
 7146TIP3    H142929   6.302   1.403  16.858 -2.0205  0.1716  0.7825
 7146TIP3    H242930   6.176   1.405  16.774 -0.7573  1.6243 -1.1521
 7147TIP3   OH242931   3.450   6.352   1.912 -0.6797  0.0604  0.3030
 7147TIP3    H142932   3.414   6.285   1.971  2.2845  0.6038  2.9848
 7147TIP3    H242933   3.442   6.314   1.825 -4.0135 -1.4014  1.0851
 7148TIP3   OH242934   1.109   4.512  11.459 -0.3341 -0.3864  0.0183
 7148TIP3    H142935   1.137   4.602  11.478 -3.8892  0.7714  0.7154
 7148TIP3    H242936   1.151   4.459  11.526  2.1524  0.6073 -0.6261
 7149TIP3   OH242937   5.095   4.500   3.953 -0.4097  0.1650  0.0570
 7149TIP3    H142938   5.074   4.406   3.953  0.6039 -0.1707 -2.7839
 7149TIP3    H242939   5.019   4.541   3.994 -1.0334 -1.8487  1.0736
 7150TIP3   OH242940   5.241   4.652   3.761 -0.0432  0.3430 -0.0961
 7150TIP3    H142941   5.295   4.596   3.705  1.5993  1.4753  0.2849
 7150TIP3    H242942   5.222   4.598   3.837  0.8119  0.0094 -0.1125
 7151TIP3   OH242943   6.124   1.785  12.384  0.1161  0.1260 -0.2210
 7151TIP3    H142944   6.164   1.860  12.341 -1.4656  0.5528 -1.0219
 7151TIP3    H242945   6.142   1.799  12.477 -0.6102  1.8095 -0.2925
 7152TIP3   OH242946   3.488   4.990   5.138  0.3703 -0.5302 -0.3114
 7152TIP3    H142947   3.553   5.059   5.153 -1.1916  0.8685  0.4290
 7152TIP3    H242948   3.420   5.033   5.086 -0.8710 -1.3567  0.5727
 7153TIP3   OH242949   6.298   3.891   4.786  0.2344  0.4385 -0.2832
 7153TIP3    H142950   6.347   3.851   4.858  1.8217 -0.9582 -2.0455
 7153TIP3    H242951   6.356   3.960   4.754 -0.8481  1.6549  0.2759
 7154TIP3   OH242952   3.111   0.387   3.987 -0.5187  0.5739  0.2628
 7154TIP3    H142953   3.094   0.333   4.065 -0.9970 -1.2920 -1.0732
 7154TIP3    H242954   3.116   0.325   3.915  1.6764  2.0702 -0.9977
 7155TIP3   OH242955   1.298   1.851   2.822  0.1718 -0.1954 -0.0409
 7155TIP3    H142956   1.249   1.931   2.804 -2.0808 -1.4868 -0.1448
 7155TIP3    H242957   1.295   1.803   2.739  0.5469 -0.8295  0.3055
 7156TIP3   OH242958   1.287   5.357   1.180  0.1362  0.2105  0.2221
 7156TIP3    H142959   1.244   5.437   1.206 -1.1000 -0.2259 -0.4113
 7156TIP3    H242960   1.251   5.289   1.237  0.3816 -0.0743  0.0499
 7157TIP3   OH242961   4.479   4.716   5.944 -0.1570  0.1264  0.4084
 7157TIP3    H142962   4.515   4.721   5.855  1.9648 -1.3804  1.0901
 7157TIP3    H242963   4.501   4.801   5.983 -0.3460  0.4792 -0.2372
 7158TIP3   OH242964   0.920   2.365  13.297 -0.3841  0.0035 -1.1124
 7158TIP3    H142965   0.875   2.285  13.270 -0.1069  0.3517 -2.7190
 7158TIP3    H242966   1.003   2.362  13.251  0.1448  0.6462 -0.2315
 7159TIP3   OH242967   4.837   3.817  12.607 -0.2764 -0.1149 -0.4955
 7159TIP3    H142968   4.809   3.898  12.650  0.7954  0.4098 -0.7441
 7159TIP3    H242969   4.857   3.757  12.680  0.7542  0.4987 -0.2492
 7160TIP3   OH242970   4.423   2.240  16.166  0.1736  0.3917  0.2094
 7160TIP3    H142971   4.333   2.246  16.134 -0.7828 -0.7281  2.4490
 7160TIP3    H242972   4.459   2.329  16.156 -1.2998  0.9459 -0.3688
 7161TIP3   OH242973   0.955   2.570  15.334  0.2935 -0.1692 -0.2264
 7161TIP3    H142974   0.912   2.630  15.394  0.1790 -0.2451 -0.2325
 7161TIP3    H242975   1.006   2.626  15.275  1.9947 -0.1645  1.1604
 7162TIP3   OH242976   0.926   1.302   4.430 -0.5457  0.3699 -0.6192
 7162TIP3    H142977   0.934   1.278   4.337 -1.9311 -1.2791 -0.3765
 7162TIP3    H242978   0.901   1.220   4.473 -1.6037  1.4692  0.9532
 7163TIP3   OH242979   2.401   1.716   6.148 -0.8888  0.3818  0.2558
 7163TIP3    H142980   2.385   1.655   6.076  0.5468  1.0207 -0.6465
 7163TIP3    H242981   2.330   1.699   6.210 -0.3095 -2.4900  0.2504
 7164TIP3   OH242982   1.537   0.179  14.151 -0.0878 -0.1839  0.6434
 7164TIP3    H142983   1.539   0.212  14.241 -0.1419 -0.6129  0.8011
 7164TIP3    H242984   1.592   0.101  14.152 -0.8338 -0.7193  0.5162
 7165TIP3   OH242985   3.536   0.673   2.845 -0.3054  0.6007 -0.3069
 7165TIP3    H142986   3.471   0.705   2.906  1.3312  1.2246  1.1868
 7165TIP3    H242987   3.586   0.607   2.894 -0.3825 -0.5808 -1.7143
 7166TIP3   OH242988   2.993   4.333   3.317  0.0723 -0.1152 -0.6687
 7166TIP3    H142989   3.002   4.413   3.368  0.1414 -0.7004  0.2508
 7166TIP3    H242990   3.077   4.324   3.271  0.4693 -0.2288  0.0690
 7167TIP3   OH242991   5.198   5.720  13.007  0.2122 -0.4517  0.2256
 7167TIP3    H142992   5.105   5.720  13.029 -0.0572 -0.4204 -0.8703
 7167TIP3    H242993   5.202   5.753  12.917  1.1614 -1.7367 -0.2377
 7168TIP3   OH242994   0.224   5.846  16.899  0.7608  0.0346 -0.0056
 7168TIP3    H142995   0.149   5.812  16.947 -0.4882  1.5625 -0.7883
 7168TIP3    H242996   0.286   5.873  16.967 -0.4492  1.0118  0.7507
 7169TIP3   OH242997   6.241   5.947   3.142 -0.7081 -0.0642 -0.5587
 7169TIP3    H142998   6.233   5.958   3.236 -0.3893  0.0654 -0.5468
 7169TIP3    H242999   6.217   6.032   3.105 -1.6193 -0.3451 -0.6373
 7170TIP3   OH243000   3.522   4.961  14.185  0.0096  0.1507  0.0452
 7170TIP3    H143001   3.484   5.030  14.240 -2.5645 -1.5405  0.5852
 7170TIP3    H243002   3.455   4.893  14.183  0.7987 -0.7431 -3.5900
 7171TIP3   OH243003   2.622   5.000   0.976 -0.7671  0.4514  0.5705
 7171TIP3    H143004   2.537   4.961   0.954 -0.6527  0.2695  0.4491
 7171TIP3    H243005   2.639   5.062   0.905 -0.7037  0.3376  0.4841
 7172TIP3   OH243006   5.846   6.720  11.976 -0.0936 -0.1491  0.4375
 7172TIP3    H143007   5.868   6.659  11.906 -0.1979  1.0647 -0.6768
 7172TIP3    H243008   5.772   6.678  12.021  1.2641 -1.9247  1.1656
 7173TIP3   OH243009   2.182   2.682   1.996 -0.3948  0.0022  0.2252
 7173TIP3    H143010   2.166   2.644   1.910 -3.5922  2.0408 -0.2473
 7173TIP3    H243011   2.112   2.648   2.051 -0.9080  1.9127  0.8375
 7174TIP3   OH243012   1.101   0.421  16.665 -0.0848  0.4764  0.7685
 7174TIP3    H143013   1.072   0.492  16.608  0.8102  0.0237 -0.3054
 7174TIP3    H243014   1.021   0.374  16.689 -0.4270  0.2774 -0.6970
 7175TIP3   OH243015   3.886   0.096   2.814 -0.3579 -0.2318 -0.3198
 7175TIP3    H143016   3.851   0.020   2.769 -0.8832  0.4632 -1.1052
 7175TIP3    H243017   3.979   0.097   2.791  0.0669 -1.6232  1.1348
 7176TIP3   OH243018   1.072   5.843  13.115 -0.1881  0.0150 -0.3667
 7176TIP3    H143019   1.075   5.775  13.048 -0.1616 -0.0617 -0.2888
 7176TIP3    H243020   1.044   5.922  13.068  1.9180  0.5060 -0.9057
 7177TIP3   OH243021   6.828   4.518  12.967  0.6440  0.4705 -0.0753
 7177TIP3    H143022   6.879   4.456  12.916 -0.4501 -0.7221  0.2246
 7177TIP3    H243023   6.873   4.525  13.051  1.4051  0.9905 -0.5165
 7178TIP3   OH243024   4.266   6.435  15.190 -0.5384  0.0324  0.2502
 7178TIP3    H143025   4.244   6.457  15.281 -0.1567  1.4735  0.0151
 7178TIP3    H243026   4.343   6.488  15.170 -0.6324 -0.2417 -0.9438
 7179TIP3   OH243027   0.302   1.262  12.067 -0.0927  0.6483  0.6793
 7179TIP3    H143028   0.268   1.188  12.119  2.0654  0.1206  1.4509
 7179TIP3    H243029   0.248   1.336  12.094 -2.4678 -0.6034 -0.2617
 7180TIP3   OH243030   3.492   5.143   0.302  0.1428 -0.3063 -0.4004
 7180TIP3    H143031   3.545   5.112   0.376  0.8041  0.8194 -0.3747
 7180TIP3    H243032   3.411   5.174   0.343 -0.0336 -0.8860 -0.3007
 7181TIP3   OH243033   6.172   3.106   4.535  0.1784 -0.2524  0.0779
 7181TIP3    H143034   6.265   3.082   4.537  0.2120 -0.7076 -2.5958
 7181TIP3    H243035   6.172   3.202   4.534  0.6372 -0.2530 -0.2420
 7182TIP3   OH243036   2.618   6.607   2.652  0.5195  0.7931 -0.2011
 7182TIP3    H143037   2.671   6.612   2.573 -0.4137 -1.1635 -1.0285
 7182TIP3    H243038   2.531   6.635   2.624 -0.0062 -0.6394 -0.1131
 7183TIP3   OH243039   1.133   0.272   4.443 -0.1281  0.4146 -0.0437
 7183TIP3    H143040   1.222   0.285   4.477 -1.4510  2.1012  3.3304
 7183TIP3    H243041   1.110   0.358   4.407 -0.6878  0.2785 -0.0051
 7184TIP3   OH243042   4.220   4.656   0.678  0.4372  0.1230  0.3948
 7184TIP3    H143043   4.174   4.733   0.711 -1.2656 -0.6283 -0.1160
 7184TIP3    H243044   4.256   4.614   0.756 -0.7243  0.1333  0.9519
 7185TIP3   OH243045   0.528   2.953   4.951 -0.0238  0.4543  0.2361
 7185TIP3    H143046   0.563   3.039   4.928 -1.5715  1.1974  0.5348
 7185TIP3    H243047   0.479   2.925   4.874 -2.3722  1.4232  1.2908
 7186TIP3   OH243048   0.393   5.439   4.414 -0.0644 -0.1917 -0.2828
 7186TIP3    H143049   0.419   5.507   4.476 -0.9309 -0.0263 -0.0850
 7186TIP3    H243050   0.385   5.483   4.330 -2.0617  0.2978  0.1186
 7187TIP3   OH243051   1.795   5.828   2.755 -0.4303  0.0586 -0.5026
 7187TIP3    H143052   1.833   5.751   2.798 -0.3631  0.2851 -0.1475
 7187TIP3    H243053   1.713   5.796   2.717 -1.9249  0.4215  2.1409
 7188TIP3   OH243054   4.690   0.244   3.495 -0.3220  0.3383 -0.3832
 7188TIP3    H143055   4.758   0.178   3.484 -0.6197  0.0768 -0.6526
 7188TIP3    H243056   4.727   0.323   3.455 -0.2929  0.1217 -0.7861
 7189TIP3   OH243057   0.225   2.245   4.961 -0.3036  0.2933  0.5535
 7189TIP3    H143058   0.184   2.219   5.044  0.2397 -0.0951  0.7048
 7189TIP3    H243059   0.287   2.314   4.986  0.6509 -0.5696  0.6458
 7190TIP3   OH243060   1.110   0.214  13.824 -0.5481 -0.1843 -0.1200
 7190TIP3    H143061   1.164   0.261  13.889  1.0401 -0.6453 -1.0506
 7190TIP3    H243062   1.032   0.187  13.873 -0.0444  0.6870  1.2368
 7191TIP3   OH243063   4.633   3.472   6.583  0.1073  0.1159  0.3281
 7191TIP3    H143064   4.632   3.567   6.597 -0.4060 -0.0424  1.4761
 7191TIP3    H243065   4.697   3.459   6.512 -0.4388  1.3856 -0.4427
 7192TIP3   OH243066   5.453   0.209   3.849 -0.4538  0.7956  0.0980
 7192TIP3    H143067   5.376   0.248   3.891 -0.9866 -0.4466  0.3225
 7192TIP3    H243068   5.416   0.153   3.780  0.2712  0.4085  0.0143
 7193TIP3   OH243069   6.535   6.834  13.748  0.1531 -0.6534  0.0251
 7193TIP3    H143070   6.627   6.830  13.774  0.2594 -0.7464 -0.3519
 7193TIP3    H243071   6.501   6.912  13.791 -0.1236 -1.7204  1.8377
 7194TIP3   OH243072   4.253   5.140  14.839  0.5497 -0.8660  0.4041
 7194TIP3    H143073   4.334   5.161  14.792  0.6499  0.8526  1.2445
 7194TIP3    H243074   4.267   5.052  14.873  2.8223 -0.0376  1.9271
 7195TIP3   OH243075   5.871   6.821   1.007 -0.3357  0.5844 -0.2014
 7195TIP3    H143076   5.790   6.801   0.959 -1.0590 -0.9946  1.5517
 7195TIP3    H243077   5.841   6.849   1.093  0.9074 -3.0602  1.6027
 7196TIP3   OH243078   1.884   2.564   1.799 -0.3392  0.0922  0.0810
 7196TIP3    H143079   1.796   2.576   1.835 -0.4674 -0.6802  0.0521
 7196TIP3    H243080   1.882   2.609   1.715 -0.1834  1.5151  0.8108
 7197TIP3   OH243081   4.539   3.694   3.427 -0.7428  0.4001  0.1536
 7197TIP3    H143082   4.607   3.758   3.449 -0.3793 -0.5964  2.2276
 7197TIP3    H243083   4.587   3.612   3.412 -1.3979 -0.0659  0.5316
 7198TIP3   OH243084   6.526   5.524  14.251 -0.1512 -0.0974  0.2629
 7198TIP3    H143085   6.601   5.532  14.192 -0.9322  0.8699 -0.6523
 7198TIP3    H243086   6.515   5.430  14.265  0.8426 -0.2742 -0.0881
 7199TIP3   OH243087   6.070   1.727  10.867 -0.4036 -0.6164 -0.6300
 7199TIP3    H143088   5.983   1.701  10.899 -0.7423  1.8388  0.6193
 7199TIP3    H243089   6.052   1.774  10.785 -0.3223  0.3807 -0.0819
 7200TIP3   OH243090   1.705   6.081   0.456 -0.4317  0.4170  0.5958
 7200TIP3    H143091   1.733   6.067   0.547  0.8798  1.2248  0.3466
 7200TIP3    H243092   1.624   6.030   0.448  0.5712 -1.4511  1.5803
 7201TIP3   OH243093   4.035   3.273   3.927 -0.4093 -0.2041  0.1565
 7201TIP3    H143094   4.018   3.210   3.997 -1.8998 -0.1143 -0.0780
 7201TIP3    H243095   4.041   3.357   3.972  0.2549 -0.3474  0.3374
 7202TIP3   OH243096   6.523   3.796   2.442 -0.2122 -0.3761 -0.3241
 7202TIP3    H143097   6.576   3.724   2.408  0.4056 -0.1916  0.2172
 7202TIP3    H243098   6.538   3.868   2.382  0.5860 -0.1627  0.1099
 7203TIP3   OH243099   4.965   0.668  12.519 -0.2163  0.6207 -0.0821
 7203TIP3    H143100   4.957   0.599  12.453 -1.6717 -0.2321  0.9399
 7203TIP3    H243101   4.878   0.675  12.557  1.0815 -0.7009  3.5080
 7204TIP3   OH243102   4.198   4.721  10.646  0.3891 -0.2712 -0.4891
 7204TIP3    H143103   4.136   4.794  10.656  1.4362  0.6030 -0.1179
 7204TIP3    H243104   4.236   4.734  10.559  0.9487 -0.0483 -0.2226
 7205TIP3   OH243105   5.549   5.253  15.436 -0.5659 -0.1138 -0.3327
 7205TIP3    H143106   5.492   5.226  15.508  0.4611 -1.1539  0.1259
 7205TIP3    H243107   5.590   5.334  15.467  1.0422 -1.3565  0.9619
 7206TIP3   OH243108   1.579   3.216   1.669  0.1841 -0.3623 -0.5834
 7206TIP3    H143109   1.605   3.245   1.756  1.2203 -1.2852 -0.5665
 7206TIP3    H243110   1.576   3.120   1.675  0.1086 -0.4320 -1.5219
 7207TIP3   OH243111   3.635   2.412  16.362 -0.0570  0.1250 -0.2503
 7207TIP3    H143112   3.677   2.326  16.374  0.5415  0.3282 -0.8431
 7207TIP3    H243113   3.639   2.428  16.268 -1.1842  0.3026 -0.2702
 7208TIP3   OH243114   2.039   2.459  12.228  0.4462 -0.1391 -0.1093
 7208TIP3    H143115   1.994   2.512  12.295  1.8661 -0.4137  1.1002
 7208TIP3    H243116   2.102   2.406  12.277  1.3854 -0.5095 -1.6511
 7209TIP3   OH243117   5.695   0.448  12.237 -0.4394  0.2502 -0.1251
 7209TIP3    H143118   5.666   0.364  12.273 -0.9565  0.2760 -0.4698
 7209TIP3    H243119   5.778   0.429  12.195 -0.1618  0.0789  0.4833
 7210TIP3   OH243120   6.558   1.290  11.670 -0.1451 -0.1646  0.2290
 7210TIP3    H143121   6.590   1.325  11.587 -0.6044  1.9159  0.8954
 7210TIP3    H243122   6.463   1.295  11.664 -0.2807 -1.9735  0.1072
 7211TIP3   OH243123   2.824   5.053   5.241  0.6231  0.1370 -0.4247
 7211TIP3    H143124   2.870   4.986   5.190  0.4942 -0.2182 -0.0795
 7211TIP3    H243125   2.732   5.043   5.216  0.4432 -0.5901  0.4808
 7212TIP3   OH243126   5.938   5.452  16.676 -0.3116  0.1055  0.3804
 7212TIP3    H143127   5.967   5.480  16.589  0.5892 -2.2030 -0.1348
 7212TIP3    H243128   6.019   5.439  16.726 -0.8054  1.0087  1.4487
 7213TIP3   OH243129   2.853   6.288  11.130  0.4865  0.1046 -0.5160
 7213TIP3    H143130   2.787   6.235  11.086  0.4877 -0.3957  0.0524
 7213TIP3    H243131   2.901   6.225  11.185 -0.7453  0.9625  1.6584
 7214TIP3   OH243132   5.170   2.444  12.198 -0.1063 -0.1087  0.1261
 7214TIP3    H143133   5.241   2.471  12.139 -1.7421  1.5759 -1.2027
 7214TIP3    H243134   5.164   2.514  12.262 -0.9170  0.0353 -0.1016
 7215TIP3   OH243135   0.233   6.642  15.898 -0.4087 -0.2808 -0.4357
 7215TIP3    H143136   0.153   6.694  15.911 -0.6911 -1.0310  1.0204
 7215TIP3    H243137   0.222   6.602  15.811 -0.9501  0.7327 -0.8525
 7216TIP3   OH243138   1.518   2.803   3.096 -0.1205 -0.3471  0.5210
 7216TIP3    H143139   1.607   2.832   3.076 -0.6281  1.3699  0.6408
 7216TIP3    H243140   1.480   2.875   3.146 -1.5762 -1.0769  0.5057
 7217TIP3   OH243141   0.910   2.728   2.482  0.1479  0.2664  0.3053
 7217TIP3    H143142   0.823   2.753   2.512  0.2256  1.1009 -0.1261
 7217TIP3    H243143   0.965   2.733   2.559 -0.4670 -1.8346  0.9514
 7218TIP3   OH243144   3.917   2.857   2.410 -0.2073 -0.4406  0.0972
 7218TIP3    H143145   3.939   2.896   2.495 -0.8245 -0.2764  0.1904
 7218TIP3    H243146   3.995   2.809   2.384  0.4643  0.6288  0.1118
 7219TIP3   OH243147   5.896   2.140   2.552 -0.0681 -0.0752  0.2733
 7219TIP3    H143148   5.852   2.118   2.470  2.0703 -0.4441 -0.8381
 7219TIP3    H243149   5.922   2.056   2.589  0.9173  0.1772  0.1845
 7220TIP3   OH243150   1.482   5.715  15.694  0.0792 -0.0919 -0.1394
 7220TIP3    H143151   1.527   5.667  15.625  1.0922  1.2970 -0.4711
 7220TIP3    H243152   1.548   5.730  15.761 -0.4553  0.0819  0.3602
 7221TIP3   OH243153   6.014   2.620   0.281  0.4189 -0.1921  0.0381
 7221TIP3    H143154   6.019   2.640   0.374  1.2689 -1.8952  0.3916
 7221TIP3    H243155   6.074   2.547   0.268  1.0467  0.6173 -2.0399
 7222TIP3   OH243156   2.359   2.116   3.113  0.0633 -0.1905  0.5571
 7222TIP3    H143157   2.361   2.150   3.024  1.7526 -3.0036 -0.6127
 7222TIP3    H243158   2.275   2.145   3.148 -1.0023  0.3552 -2.2169
 7223TIP3   OH243159   0.826   4.572  10.577 -0.9142  0.2952  0.2234
 7223TIP3    H143160   0.874   4.646  10.541  1.6521 -0.7141  1.3122
 7223TIP3    H243161   0.819   4.591  10.670 -1.6935 -0.0921  0.2520
 7224TIP3   OH243162   2.231   6.111   2.463  0.0211 -0.1413  0.2342
 7224TIP3    H143163   2.160   6.070   2.413 -0.2801  2.1125 -1.3274
 7224TIP3    H243164   2.188   6.179   2.514  0.7665 -0.3871  1.2210
 7225TIP3   OH243165   3.238   4.552   1.696 -0.7033  0.0098  0.0679
 7225TIP3    H143166   3.266   4.584   1.781  0.0769 -1.5402  0.4348
 7225TIP3    H243167   3.226   4.458   1.709 -1.0452 -0.1776 -1.4147
 7226TIP3   OH243168   4.313   0.803   5.108  0.0249 -0.6509 -0.1884
 7226TIP3    H143169   4.341   0.718   5.076 -1.0449 -1.3231  0.5778
 7226TIP3    H243170   4.376   0.865   5.072  1.4963 -1.8958  0.1565
 7227TIP3   OH243171   6.068   3.348  11.769  0.6234  0.3592 -0.1089
 7227TIP3    H143172   5.979   3.320  11.790  0.3999 -0.1146 -1.5618
 7227TIP3    H243173   6.112   3.354  11.854 -0.9013  1.0120  0.6751
 7228TIP3   OH243174   2.993   6.801  16.817  0.5497 -0.7450  0.0663
 7228TIP3    H143175   2.986   6.734  16.749  1.3294 -0.3670 -0.4066
 7228TIP3    H243176   3.048   6.869  16.777 -2.8497  1.7939 -0.7723
 7229TIP3   OH243177   0.910   5.998  12.642  0.1446  0.1308 -0.2153
 7229TIP3    H143178   0.940   6.061  12.577  0.7049  0.3691  0.2619
 7229TIP3    H243179   0.837   5.953  12.600  0.4340  0.3459 -0.9721
 7230TIP3   OH243180   3.601   6.470   5.412  0.4481  0.5464 -0.3986
 7230TIP3    H143181   3.567   6.382   5.423 -0.1019  0.5249 -2.0286
 7230TIP3    H243182   3.663   6.481   5.484 -0.6106 -0.5936  0.7248
 7231TIP3   OH243183   3.170   5.300  10.478  0.8600  0.5537 -0.2500
 7231TIP3    H143184   3.225   5.272  10.404 -0.7874 -1.2529 -0.8685
 7231TIP3    H243185   3.089   5.329  10.437 -0.3090 -1.0533  0.8409
 7232TIP3   OH243186   3.874   2.688   5.497 -0.0696 -0.2690 -0.2732
 7232TIP3    H143187   3.897   2.686   5.590  0.2053  0.0627 -0.3315
 7232TIP3    H243188   3.837   2.775   5.484 -1.3843 -0.7900 -0.1826
 7233TIP3   OH243189   0.787   1.071   3.517  0.2331 -0.1628  0.3973
 7233TIP3    H143190   0.841   1.149   3.507  0.5511 -0.2206  1.6017
 7233TIP3    H243191   0.723   1.078   3.446  2.5315 -0.7387 -1.8920
 7234TIP3   OH243192   4.900   0.321  14.638 -0.8419 -0.4054  0.2313
 7234TIP3    H143193   4.860   0.401  14.604  1.7477  0.8273 -0.1410
 7234TIP3    H243194   4.827   0.261  14.649 -3.0028  2.2099  1.1758
 7235TIP3   OH243195   3.933   3.213   3.377  0.0766  0.1706  0.3313
 7235TIP3    H143196   3.967   3.255   3.456  0.1314  2.1300 -0.6690
 7235TIP3    H243197   3.920   3.286   3.316  1.8532 -1.4463 -2.1593
 7236TIP3   OH243198   5.231   0.007   4.049 -0.6600  0.5873  0.4549
 7236TIP3    H143199   5.201   0.090   4.012 -1.0692  0.1372 -0.2539
 7236TIP3    H243200   5.222   0.018   4.144 -1.0793  1.2090  0.3493
 7237TIP3   OH243201   6.733   5.883   2.399  0.0169 -0.2775 -0.6027
 7237TIP3    H143202   6.784   5.950   2.352  0.3359  0.0453  0.1864
 7237TIP3    H243203   6.798   5.823   2.434 -0.2620 -0.9155 -1.1543
 7238TIP3   OH243204   3.355   0.244   1.136  0.3837 -0.0472 -0.4340
 7238TIP3    H143205   3.292   0.314   1.115 -0.3922 -0.7545 -0.5033
 7238TIP3    H243206   3.410   0.237   1.058  1.1656  1.2079 -0.0238
 7239TIP3   OH243207   1.044   4.928   3.479  0.2584  0.1292 -0.2474
 7239TIP3    H143208   1.036   5.008   3.428  0.5084 -0.2695 -0.9281
 7239TIP3    H243209   1.076   4.863   3.416  0.1516 -0.4773  0.3165
 7240TIP3   OH243210   1.421   6.473  12.211 -0.1344  0.0038 -0.4973
 7240TIP3    H143211   1.375   6.400  12.169 -1.7086 -0.1813  1.3741
 7240TIP3    H243212   1.474   6.431  12.279  1.6707  0.3663 -1.6162
 7241TIP3   OH243213   2.721   1.680  16.605 -0.0615 -0.0690  0.4246
 7241TIP3    H143214   2.734   1.757  16.549  0.2194 -1.1142 -1.0072
 7241TIP3    H243215   2.654   1.708  16.668  1.3715  1.9352  1.1567
 7242TIP3   OH243216   0.288   2.143   3.401  0.4562  0.5393 -0.1804
 7242TIP3    H143217   0.315   2.132   3.310  1.2228  0.5440  0.0362
 7242TIP3    H243218   0.322   2.230   3.425  1.3658  0.0157  0.4781
 7243TIP3   OH243219   0.273   1.287  14.259  0.3239 -0.1316 -0.1368
 7243TIP3    H143220   0.198   1.235  14.228 -0.1076  0.5560 -0.2652
 7243TIP3    H243221   0.309   1.326  14.179 -0.4413  1.1865  0.1317
 7244TIP3   OH243222   4.945   3.674  12.864  0.6762 -0.3052  0.3488
 7244TIP3    H143223   4.902   3.594  12.894  1.7903 -1.7332 -1.6113
 7244TIP3    H243224   5.016   3.643  12.808  0.5305  2.0810 -1.2891
 7245TIP3   OH243225   0.068   3.052   3.788  0.1499  0.6327  0.1282
 7245TIP3    H143226   0.013   3.115   3.833 -1.3621 -0.6471  0.1460
 7245TIP3    H243227   0.140   3.035   3.850  0.5763  2.2560  0.1318
 7246TIP3   OH243228   4.110   1.244  15.200 -0.1889  0.3530 -0.0060
 7246TIP3    H143229   4.084   1.255  15.108  0.6002  0.5294 -0.2164
 7246TIP3    H243230   4.082   1.156  15.222 -0.3661  0.2992 -0.4304
 7247TIP3   OH243231   5.674   4.242  12.745 -0.6039  0.0273  0.5423
 7247TIP3    H143232   5.727   4.308  12.789 -2.8673  0.3188  3.1067
 7247TIP3    H243233   5.712   4.236  12.657  2.3819  1.5453  1.5714
 7248TIP3   OH243234   5.353   4.774   2.326  0.0748 -0.0306  0.0518
 7248TIP3    H143235   5.297   4.701   2.300  2.1029 -1.3260 -1.0360
 7248TIP3    H243236   5.389   4.807   2.243  3.5171 -1.5428  0.7547
 7249TIP3   OH243237   5.259   2.695   4.685  0.0507 -0.0298  0.2377
 7249TIP3    H143238   5.306   2.736   4.758  1.0104 -1.6393  0.5753
 7249TIP3    H243239   5.269   2.757   4.612  1.9588  0.1127  0.5587
 7250TIP3   OH243240   5.503   6.300  11.459 -0.5922 -0.0447 -0.4959
 7250TIP3    H143241   5.531   6.251  11.382  0.2285 -2.9368  1.5081
 7250TIP3    H243242   5.569   6.369  11.469  0.9145 -1.4057 -0.7726
 7251TIP3   OH243243   5.522   2.431   4.197 -1.0659  0.0980 -0.1233
 7251TIP3    H143244   5.483   2.472   4.120 -0.5528 -1.3922 -1.2397
 7251TIP3    H243245   5.452   2.378   4.234 -0.3504 -2.3044 -1.9271
 7252TIP3   OH243246   6.523   3.889   0.544  0.9560 -0.1899 -0.2643
 7252TIP3    H143247   6.510   3.907   0.451  2.1006  1.9311 -0.0563
 7252TIP3    H243248   6.436   3.865   0.576 -0.2793  2.7544 -1.1406
 7253TIP3   OH243249   4.009   5.781  12.819 -0.0462  0.0587 -0.0123
 7253TIP3    H143250   3.977   5.699  12.857  1.7141  0.0384  1.5912
 7253TIP3    H243251   4.060   5.822  12.890 -1.5877  3.0201 -0.4385
 7254TIP3   OH243252   3.772   1.258   4.454  0.4791 -0.4158  0.0339
 7254TIP3    H143253   3.680   1.264   4.427  0.4346  0.1784  0.3099
 7254TIP3    H243254   3.819   1.316   4.394  0.7255 -0.9339 -0.2904
 7255TIP3   OH243255   3.084   6.331   0.511 -0.0340  0.8688 -0.0736
 7255TIP3    H143256   3.092   6.380   0.429 -0.9269 -2.0698 -2.0865
 7255TIP3    H243257   2.990   6.327   0.528  0.1160  1.0396  0.8660
 7256TIP3   OH243258   0.570   4.495   2.435 -0.5477 -0.2415 -0.5747
 7256TIP3    H143259   0.545   4.425   2.375  0.7081 -1.3778  0.1613
 7256TIP3    H243260   0.518   4.571   2.408  0.1703 -0.6138 -3.2649
 7257TIP3   OH243261   4.664   6.679   4.478  0.1308 -0.7324 -0.2069
 7257TIP3    H143262   4.686   6.750   4.417  1.4436  0.0281  1.1025
 7257TIP3    H243263   4.736   6.617   4.471  1.5897  0.5401  2.2625
 7258TIP3   OH243264   0.711   0.659  14.660 -0.0637  0.2168  0.1084
 7258TIP3    H143265   0.781   0.723  14.642  0.4369 -0.5214 -0.6482
 7258TIP3    H243266   0.743   0.577  14.622 -1.7103  0.0437 -0.9919
 7259TIP3   OH243267   2.489   0.863  14.441  0.0213 -0.5248  0.4321
 7259TIP3    H143268   2.422   0.929  14.457  2.5561  2.1640  0.8264
 7259TIP3    H243269   2.478   0.799  14.511 -1.7539  0.1012  0.7623
 7260TIP3   OH243270   2.710   4.406  11.721 -0.1580  0.0634 -0.2365
 7260TIP3    H143271   2.638   4.369  11.670  1.1327 -1.5030 -1.0345
 7260TIP3    H243272   2.677   4.490  11.752 -2.3565 -0.6537 -0.4559
 7261TIP3   OH243273   2.397   5.027  11.517 -0.0237 -0.3762  0.3223
 7261TIP3    H143274   2.367   5.080  11.591 -0.0478  0.7193 -0.4420
 7261TIP3    H243275   2.340   4.950  11.517 -0.2818 -0.1876  1.1993
 7262TIP3   OH243276   3.667   2.528   1.511  0.3427  0.0120  0.0318
 7262TIP3    H143277   3.728   2.456   1.524 -1.9818 -2.2225 -0.6030
 7262TIP3    H243278   3.624   2.540   1.596 -1.3441 -1.4575 -0.5567
 7263TIP3   OH243279   6.696   6.474   5.616  0.2140 -0.0095 -0.1876
 7263TIP3    H143280   6.717   6.436   5.701 -1.0518  0.1554  0.2232
 7263TIP3    H243281   6.674   6.399   5.561  0.7646 -0.0957 -0.2929
 7264TIP3   OH243282   4.319   1.559  16.896 -0.1419 -0.0850 -0.0713
 7264TIP3    H143283   4.256   1.523  16.835 -0.5978  1.9654 -0.8692
 7264TIP3    H243284   4.270   1.621  16.949  1.0160  0.9857 -0.1927
 7265TIP3   OH243285   0.248   1.146   0.731 -0.1093 -0.4899  0.7243
 7265TIP3    H143286   0.317   1.213   0.729 -1.4991  1.0320  1.2249
 7265TIP3    H243287   0.243   1.120   0.823 -1.3201  0.6909  1.0304
 7266TIP3   OH243288   6.531   4.539   5.026 -0.5638 -0.1341 -0.2852
 7266TIP3    H143289   6.526   4.459   4.973  0.3397  0.5540 -1.4479
 7266TIP3    H243290   6.504   4.609   4.967 -0.3693  0.5567  0.4238
 7267TIP3   OH243291   0.424   3.370  15.263  0.0892 -0.0134 -0.0243
 7267TIP3    H143292   0.365   3.361  15.338 -1.2665 -0.5462 -1.0978
 7267TIP3    H243293   0.491   3.303  15.277 -0.3761 -0.3759  0.5190
 7268TIP3   OH243294   3.733   3.287   5.069  0.5954 -0.4853  0.2052
 7268TIP3    H143295   3.683   3.210   5.041  0.2922 -0.3502  0.3821
 7268TIP3    H243296   3.718   3.352   5.000 -0.4469 -0.0238  0.8464
 7269TIP3   OH243297   4.699   6.051  11.786  0.3075  0.2049  0.2642
 7269TIP3    H143298   4.649   6.041  11.867  0.6821 -0.1175  0.4614
 7269TIP3    H243299   4.772   6.108  11.809  0.2841  0.3027  0.0971
 7270TIP3   OH243300   5.950   2.165   4.253  0.0041  0.6235 -0.5859
 7270TIP3    H143301   6.030   2.116   4.233  0.0851  0.1418  0.8309
 7270TIP3    H243302   5.928   2.210   4.171  0.7177 -0.6625 -1.5053
 7271TIP3   OH243303   6.403   1.314  16.006  0.2506  0.1999  0.1019
 7271TIP3    H143304   6.422   1.325  16.099 -1.6230 -1.6609  0.7831
 7271TIP3    H243305   6.326   1.258  16.003 -0.4267  1.0833 -2.5773
 7272TIP3   OH243306   4.482   4.571   4.259 -0.0862 -0.1015  0.1999
 7272TIP3    H143307   4.527   4.655   4.256  0.4914 -0.4182 -0.1016
 7272TIP3    H243308   4.480   4.541   4.169  2.1718 -1.6805  0.5988
 7273TIP3   OH243309   3.483   1.369  11.950  0.0575 -0.1651  0.7166
 7273TIP3    H143310   3.387   1.371  11.950  0.0055 -1.0411  2.2401
 7273TIP3    H243311   3.508   1.403  12.036  1.0103 -2.1039  1.2666
 7274TIP3   OH243312   5.050   2.541   2.340 -0.0550 -0.1203  0.6358
 7274TIP3    H143313   5.086   2.537   2.252 -1.0492  1.7637  0.0683
 7274TIP3    H243314   5.062   2.453   2.376  1.3154 -0.6428 -0.9774
 7275TIP3   OH243315   1.536   2.926   0.354 -0.1879  0.6962 -0.2622
 7275TIP3    H143316   1.488   2.907   0.274  1.4184 -1.3248 -0.8324
 7275TIP3    H243317   1.625   2.893   0.338  0.0040 -0.4624  2.5639
 7276TIP3   OH243318   2.126   5.705  13.785  0.5371  0.7029 -0.2273
 7276TIP3    H143319   2.085   5.638  13.840 -2.5564  2.3918 -0.2440
 7276TIP3    H243320   2.083   5.696  13.700  1.2731  1.6483 -0.7169
 7277TIP3   OH243321   2.608   1.497   1.688 -0.0962  0.4435 -0.2597
 7277TIP3    H143322   2.559   1.573   1.720 -0.9303 -0.1865 -0.0005
 7277TIP3    H243323   2.663   1.471   1.762 -1.1899 -0.3238  0.3091
 7278TIP3   OH243324   4.118   4.622   3.898  0.8122 -0.0607  0.1338
 7278TIP3    H143325   4.102   4.664   3.813  0.1415 -1.0012 -0.2171
 7278TIP3    H243326   4.056   4.665   3.957  0.9958  0.3076  0.0643
 7279TIP3   OH243327   5.780   2.434  15.121 -0.6924 -0.1230  0.0980
 7279TIP3    H143328   5.727   2.359  15.146 -0.5098 -0.9211 -1.7626
 7279TIP3    H243329   5.717   2.502  15.098 -0.9579 -1.0086 -1.9376
 7280TIP3   OH243330   6.268   6.527  14.570 -0.0379  0.2134  0.2444
 7280TIP3    H143331   6.340   6.464  14.578 -0.6473 -0.3732  1.3291
 7280TIP3    H243332   6.225   6.502  14.488  0.2366 -0.2414  0.2334
 7281TIP3   OH243333   4.875   2.055   3.918  0.3463 -0.4455  0.3279
 7281TIP3    H143334   4.927   2.000   3.860  2.0470  1.6428 -0.2389
 7281TIP3    H243335   4.887   2.015   4.005  1.0136 -1.3419 -0.1573
 7282TIP3   OH243336   2.837   3.879   3.286 -0.4826 -0.6572 -0.0367
 7282TIP3    H143337   2.880   3.848   3.206 -0.1935 -1.5213  0.4481
 7282TIP3    H243338   2.771   3.941   3.255 -0.7187 -1.3591 -0.9881
 7283TIP3   OH243339   5.189   1.873   2.580  0.4897 -0.0389  0.4384
 7283TIP3    H143340   5.104   1.879   2.535  0.3118  1.2899  0.8913
 7283TIP3    H243341   5.170   1.903   2.669  1.1857 -0.9929  0.9244
 7284TIP3   OH243342   0.281   6.124   0.828 -0.4495 -0.7452  0.0016
 7284TIP3    H143343   0.342   6.179   0.778 -0.9758 -0.5139 -0.3915
 7284TIP3    H243344   0.336   6.083   0.896  0.2489 -0.9681 -0.6825
 7285TIP3   OH243345   0.911   4.018   3.161 -0.3065  0.0156 -0.3908
 7285TIP3    H143346   0.916   4.100   3.112 -1.7234 -0.2289 -0.9892
 7285TIP3    H243347   0.969   4.032   3.236  1.9067  0.4141 -2.0704
 7286TIP3   OH243348   6.426   0.842  11.638 -0.4639 -0.0031  0.1187
 7286TIP3    H143349   6.464   0.770  11.587  0.9324  1.9740 -1.8152
 7286TIP3    H243350   6.383   0.799  11.712 -1.5241 -2.9711 -2.0454
 7287TIP3   OH243351   1.595   0.953  13.412 -0.2144  0.2644 -0.0750
 7287TIP3    H143352   1.676   0.939  13.461  0.3279  2.0925 -0.3815
 7287TIP3    H243353   1.580   0.870  13.366  1.1207 -0.3228  0.4928
 7288TIP3   OH243354   1.794   6.824   0.165  0.2901  0.4488 -0.0603
 7288TIP3    H143355   1.777   6.909   0.124 -0.1116 -0.2795 -1.4705
 7288TIP3    H243356   1.876   6.836   0.212  1.5409  0.9976 -2.2065
 7289TIP3   OH243357   3.140   5.043   5.240  0.1907 -0.1414  0.2513
 7289TIP3    H143358   3.166   4.952   5.224 -1.4834 -0.4598 -0.8871
 7289TIP3    H243359   3.090   5.068   5.162 -0.6670  1.2645  1.2032
 7290TIP3   OH243360   5.571   5.645  16.650 -0.4767 -0.6729 -0.2790
 7290TIP3    H143361   5.523   5.708  16.597 -0.0235  0.2315  0.3518
 7290TIP3    H243362   5.591   5.692  16.731 -1.3786 -2.0840  0.8185
 7291TIP3   OH243363   0.256   5.398   2.626 -0.4220 -0.5866  0.4469
 7291TIP3    H143364   0.348   5.378   2.646  0.1321  0.2067 -1.1282
 7291TIP3    H243365   0.243   5.487   2.658 -0.5892 -0.6389  0.5254
 7292TIP3   OH243366   3.253   0.279  15.452 -0.7728  0.2948  0.1587
 7292TIP3    H143367   3.257   0.339  15.527 -0.6245 -0.6184  0.9023
 7292TIP3    H243368   3.326   0.218  15.466  0.2021  1.0036 -1.5257
 7293TIP3   OH243369   0.010   2.333   3.040  0.1317 -0.0181 -0.2735
 7293TIP3    H143370   0.087   2.280   3.020  0.4080 -0.3512  1.4701
 7293TIP3    H243371   0.045   2.412   3.081 -0.3952  0.5063 -0.8183
 7294TIP3   OH243372   4.574   4.190  16.821 -0.0106  0.6141 -0.2071
 7294TIP3    H143373   4.611   4.277  16.805  0.8049  0.0881 -1.2719
 7294TIP3    H243374   4.500   4.206  16.880  1.4981  1.7694  1.4856
 7295TIP3   OH243375   0.838   0.155   2.017 -1.0063 -0.3093 -0.6564
 7295TIP3    H143376   0.770   0.211   1.981 -1.9451 -0.0366  1.4459
 7295TIP3    H243377   0.792   0.075   2.044 -0.6945  0.2236  1.5867
 7296TIP3   OH243378   0.722   0.845   3.663  0.3677  0.0534 -0.0388
 7296TIP3    H143379   0.741   0.910   3.596  0.3899  0.1744  0.0842
 7296TIP3    H243380   0.762   0.764   3.631  1.0619  0.2982  0.2033
 7297TIP3   OH243381   4.836   6.326   3.597 -0.6779  0.1366 -0.3851
 7297TIP3    H143382   4.905   6.373   3.642 -1.4011  0.7341  0.1276
 7297TIP3    H243383   4.790   6.393   3.546 -1.5478 -0.0465  0.1382
 7298TIP3   OH243384   4.389   0.399   4.279 -0.1694  0.7538  0.6186
 7298TIP3    H143385   4.381   0.429   4.370 -1.5511  2.5077 -0.0329
 7298TIP3    H243386   4.402   0.479   4.228 -1.2953  0.0125 -0.9151
 7299TIP3   OH243387   5.387   0.453  16.133  0.0983  0.2334 -0.0279
 7299TIP3    H143388   5.447   0.454  16.058 -0.9862 -1.0776 -0.9609
 7299TIP3    H243389   5.432   0.399  16.199  0.9539  1.2054  0.2050
 7300TIP3   OH243390   1.757   6.113  11.872 -0.5249 -0.2751 -0.2947
 7300TIP3    H143391   1.744   6.116  11.966  0.1563 -1.0392 -0.1619
 7300TIP3    H243392   1.767   6.204  11.845 -0.3628 -0.0779  0.4295
 7301TIP3   OH243393   5.641   0.571   4.062 -0.0463  0.1636 -0.5550
 7301TIP3    H143394   5.585   0.639   4.098  0.1997  0.3922 -0.6056
 7301TIP3    H243395   5.728   0.610   4.059  0.0127  0.0080 -1.0089
 7302TIP3   OH243396   3.474   1.362  13.799  0.5770 -0.0213 -0.9604
 7302TIP3    H143397   3.514   1.296  13.856 -2.7064 -1.9922 -0.7022
 7302TIP3    H243398   3.438   1.427  13.859  0.8405  0.1931 -1.0329
 7303TIP3   OH243399   0.758   0.428   3.231  0.2448  0.2771  0.4592
 7303TIP3    H143400   0.789   0.373   3.303  1.1168 -0.5771 -0.5409
 7303TIP3    H243401   0.827   0.492   3.218 -0.1850  0.8128  0.7657
 7304TIP3   OH243402   6.573   2.407  13.948 -0.0958 -0.5721  0.0287
 7304TIP3    H143403   6.661   2.431  13.975 -0.4617  1.3171 -0.3681
 7304TIP3    H243404   6.556   2.459  13.869 -1.8263 -0.3350  0.5099
 7305TIP3   OH243405   2.194   2.056   0.491 -0.0131  0.4045 -0.2504
 7305TIP3    H143406   2.214   2.011   0.574 -0.6597  1.4584  0.5073
 7305TIP3    H243407   2.100   2.044   0.479 -0.0184  0.7257 -0.5320
 7306TIP3   OH243408   5.537   3.807  12.339  0.2371  0.8796  0.0793
 7306TIP3    H143409   5.527   3.722  12.382 -1.3945  2.3720  2.9500
 7306TIP3    H243410   5.503   3.794  12.251 -2.2467 -0.9451  1.1849
 7307TIP3   OH243411   2.928   4.284  13.257 -0.1353  0.3001  0.6313
 7307TIP3    H143412   2.866   4.263  13.188 -1.5620  2.6236  1.0970
 7307TIP3    H243413   2.898   4.234  13.333 -0.8185  0.6202  0.5725
 7308TIP3   OH243414   3.481   6.193   0.883  0.0786 -0.0799  0.1512
 7308TIP3    H143415   3.401   6.227   0.842 -0.1465  0.0961  0.7362
 7308TIP3    H243416   3.479   6.098   0.865  0.1352  0.0352 -0.4986
 7309TIP3   OH243417   2.938   3.222  10.930  0.7472 -0.2976  0.2728
 7309TIP3    H143418   2.861   3.247  10.981 -0.5673 -0.1255 -1.6637
 7309TIP3    H243419   2.917   3.250  10.841  2.5238 -1.4102 -0.5456
 7310TIP3   OH243420   3.633   6.727  11.756  0.7897  0.4568  0.4601
 7310TIP3    H143421   3.614   6.797  11.818  1.9105  1.2876 -0.0947
 7310TIP3    H243422   3.548   6.703  11.719  0.4799  2.2162 -0.0609
 7311TIP3   OH243423   6.255   2.013   2.910  0.2448  0.4167  0.3348
 7311TIP3    H143424   6.291   1.960   2.839  0.1768 -2.0333  2.0057
 7311TIP3    H243425   6.331   2.045   2.959  0.4082  3.7309 -1.7369
 7312TIP3   OH243426   3.766   1.452  12.284  0.1164  0.4296  0.0022
 7312TIP3    H143427   3.809   1.522  12.234  0.1510 -0.2642 -0.9644
 7312TIP3    H243428   3.673   1.476  12.285  0.0454  0.2003 -0.8210
 7313TIP3   OH243429   3.693   4.083  16.117  0.0417  0.4643  0.3951
 7313TIP3    H143430   3.725   4.160  16.069  1.0890  0.9028  1.7368
 7313TIP3    H243431   3.618   4.116  16.166 -0.4244  0.2541 -0.1655
 7314TIP3   OH243432   5.706   2.262   3.433  0.3007 -0.3019 -0.3722
 7314TIP3    H143433   5.617   2.281   3.401  0.5110  0.8319 -0.3528
 7314TIP3    H243434   5.726   2.176   3.398 -0.8950 -0.6724 -0.1971
 7315TIP3   OH243435   1.708   5.429  15.381  0.5318  0.2518 -0.0662
 7315TIP3    H143436   1.633   5.468  15.336  0.5887 -0.9136 -1.2022
 7315TIP3    H243437   1.671   5.391  15.461 -0.2565 -1.0811 -1.0420
 7316TIP3   OH243438   6.220   5.332   4.712 -0.2518 -0.0204 -0.2027
 7316TIP3    H143439   6.276   5.335   4.634 -1.2476  0.2866 -0.9291
 7316TIP3    H243440   6.253   5.402   4.768 -0.7102  1.0115 -1.1933
 7317TIP3   OH243441   4.021   5.497   5.976 -0.3010 -0.0224  0.0978
 7317TIP3    H143442   3.981   5.573   5.933  3.2579  1.3995 -1.0898
 7317TIP3    H243443   4.038   5.527   6.066  1.0634  0.6534 -0.3582
 7318TIP3   OH243444   2.502   3.955   2.301 -0.4898 -0.7657 -0.4853
 7318TIP3    H143445   2.413   3.969   2.334 -0.0934 -0.9960  0.7682
 7318TIP3    H243446   2.492   3.945   2.207 -2.0132 -2.4139 -0.2126
 7319TIP3   OH243447   5.621   6.067  15.317  0.3251 -0.0160 -0.1068
 7319TIP3    H143448   5.704   6.022  15.330 -0.5897 -1.9682 -0.5126
 7319TIP3    H243449   5.573   6.054  15.399 -1.1626 -2.6605 -1.2768
 7320TIP3   OH243450   2.582   5.880   4.971  0.1871 -0.6708  0.2497
 7320TIP3    H143451   2.568   5.786   4.961  0.2038 -0.5715 -0.8858
 7320TIP3    H243452   2.524   5.906   5.042  1.2031 -1.7662  1.5321
 7321TIP3   OH243453   2.110   3.697   0.652 -0.5410 -0.6190 -0.5546
 7321TIP3    H143454   2.132   3.776   0.603 -0.8988 -0.8610 -1.1092
 7321TIP3    H243455   2.146   3.713   0.740 -1.3452  0.5265 -0.4088
 7322TIP3   OH243456   2.293   4.006  13.090 -0.6940 -0.1165  0.2743
 7322TIP3    H143457   2.375   4.055  13.100 -0.4999 -0.1609 -1.0215
 7322TIP3    H243458   2.320   3.918  13.065 -1.0505 -0.9147  2.4609
 7323TIP3   OH243459   6.210   0.083  12.715 -0.0664 -0.3654  0.5751
 7323TIP3    H143460   6.262   0.143  12.662  2.1806 -1.6044  1.2135
 7323TIP3    H243461   6.184   0.014  12.654  0.7509 -0.7300  0.6207
 7324TIP3   OH243462   4.376   5.538  13.113 -0.7964 -0.1162 -0.8183
 7324TIP3    H143463   4.449   5.482  13.138 -0.2310  0.9100 -0.0944
 7324TIP3    H243464   4.307   5.477  13.087 -0.6134 -1.1878  1.0372
 7325TIP3   OH243465   0.011   0.887   6.396 -0.2645  0.6117  0.5054
 7325TIP3    H143466   0.047   0.829   6.464 -2.6000 -1.3739  0.2147
 7325TIP3    H243467  -0.055   0.939   6.442  0.1162  1.2764  0.2953
 7326TIP3   OH243468   1.464   5.478  13.753  0.2637 -0.1722 -0.0718
 7326TIP3    H143469   1.398   5.529  13.706 -0.2127 -1.6391 -1.0600
 7326TIP3    H243470   1.457   5.390  13.717  1.8019 -0.7032  0.8175
 7327TIP3   OH243471   1.065   6.280  15.260 -0.3806  0.1621 -0.0818
 7327TIP3    H143472   1.098   6.369  15.250  0.8259 -0.0892  1.3314
 7327TIP3    H243473   1.120   6.228  15.201 -0.1666  0.1594  0.1199
 7328TIP3   OH243474   6.386   1.451  16.284 -0.3943 -0.5708  0.5553
 7328TIP3    H143475   6.334   1.530  16.277  1.1188  0.5218  1.1247
 7328TIP3    H243476   6.430   1.459  16.369  1.6519 -0.8263 -0.4289
 7329TIP3   OH243477   1.852   6.346  16.087 -0.8304  0.9858  0.2216
 7329TIP3    H143478   1.791   6.414  16.117 -2.3877  0.1910 -1.0256
 7329TIP3    H243479   1.809   6.264  16.109  0.6759  0.3724  0.9870
 7330TIP3   OH243480   0.094   2.519  15.387 -0.0513  0.2025 -0.2995
 7330TIP3    H143481   0.133   2.433  15.368  1.9947  1.1865 -0.8722
 7330TIP3    H243482   0.083   2.560  15.301 -0.2431  0.8254  0.0146
 7331TIP3   OH243483   1.580   2.205   3.344 -0.3361  0.1804 -0.7019
 7331TIP3    H143484   1.573   2.282   3.287 -1.2010 -1.1119 -2.4194
 7331TIP3    H243485   1.674   2.190   3.353 -0.1781  0.8013 -1.2323
 7332TIP3   OH243486   5.345   3.919  14.509 -0.0385  0.4947 -0.1544
 7332TIP3    H143487   5.430   3.913  14.553 -0.5268  2.1684  1.1679
 7332TIP3    H243488   5.284   3.939  14.580 -0.8897  3.2512 -1.5334
 7333TIP3   OH243489   1.803   6.561   0.569 -0.8619  0.2927 -0.6072
 7333TIP3    H143490   1.790   6.525   0.481 -0.3726 -2.6437  0.4177
 7333TIP3    H243491   1.881   6.517   0.602 -3.0838 -1.6736  2.6316
 7334TIP3   OH243492   5.831   3.143   4.479  0.0484  0.3298  0.2828
 7334TIP3    H143493   5.851   3.236   4.493 -2.6834  1.6203 -2.9138
 7334TIP3    H243494   5.856   3.127   4.388 -3.8925 -0.5249 -0.8547
 7335TIP3   OH243495   2.055   1.147  15.213  0.5182 -0.5954 -0.6705
 7335TIP3    H143496   2.111   1.132  15.289  0.4037  0.3125 -0.3918
 7335TIP3    H243497   2.107   1.118  15.139  0.7619 -1.1805 -0.2764
 7336TIP3   OH243498   2.160   5.277  11.563 -0.2241  0.3205  0.0557
 7336TIP3    H143499   2.137   5.363  11.526  0.1768  0.0519 -0.8461
 7336TIP3    H243500   2.242   5.292  11.610  1.2799 -0.0570 -2.2782
 7337TIP3   OH243501   1.398   3.733  15.889 -0.2954  0.0108 -0.1374
 7337TIP3    H143502   1.338   3.786  15.836 -1.0765 -0.1104  0.6051
 7337TIP3    H243503   1.409   3.652  15.839  0.5204  0.6488 -1.0463
 7338TIP3   OH243504   1.692   6.567  16.130 -0.1245  0.1299 -0.0898
 7338TIP3    H143505   1.736   6.575  16.214 -0.3401  0.7226 -0.0272
 7338TIP3    H243506   1.657   6.654  16.112 -0.1655 -0.0104 -0.7480
 7339TIP3   OH243507   4.518   2.261   1.202 -0.8258 -0.4046  0.6356
 7339TIP3    H143508   4.476   2.295   1.123 -0.2512 -2.4863 -0.6214
 7339TIP3    H243509   4.505   2.167   1.198  0.6304 -0.7159  2.1892
 7340TIP3   OH243510   0.130   1.776  13.998  0.2816  0.1497 -0.0579
 7340TIP3    H143511   0.069   1.784  13.925 -0.2613  2.0996  0.5551
 7340TIP3    H243512   0.216   1.792  13.958  0.1303 -0.0253 -0.4683
 7341TIP3   OH243513   4.649   2.604   0.904  0.2434 -0.3508  0.1458
 7341TIP3    H143514   4.561   2.588   0.870 -0.6697  1.7624  1.3248
 7341TIP3    H243515   4.639   2.602   0.999  1.5056 -0.2731  0.2971
 7342TIP3   OH243516   1.491   4.627   2.646  0.1332  0.0323 -0.1148
 7342TIP3    H143517   1.464   4.695   2.584 -0.5946  1.1823  1.3674
 7342TIP3    H243518   1.587   4.627   2.642  0.1691  1.4525  0.1093
 7343TIP3   OH243519   5.947   2.165  11.609 -0.1088 -0.4473 -0.2154
 7343TIP3    H143520   5.863   2.147  11.568 -0.0793 -1.1199  0.0039
 7343TIP3    H243521   5.927   2.224  11.681 -0.1568  0.7872 -1.1975
 7344TIP3   OH243522   3.302   6.494  15.036 -0.9309  0.6671  0.2352
 7344TIP3    H143523   3.302   6.565  14.972 -0.9107 -0.2124 -0.7578
 7344TIP3    H243524   3.395   6.471  15.047 -0.9953  0.2672 -0.0442
 7345TIP3   OH243525   5.268   6.123  15.900  0.1755 -0.1362 -0.2917
 7345TIP3    H143526   5.290   6.046  15.848  0.1778 -0.0744 -0.3835
 7345TIP3    H243527   5.178   6.108  15.929 -0.3392  0.4702 -1.4973
 7346TIP3   OH243528   0.888   3.256  14.001 -0.3630  0.1700  0.8140
 7346TIP3    H143529   0.795   3.243  13.982 -0.2903 -0.7252  0.9891
 7346TIP3    H243530   0.895   3.348  14.025 -0.9584  0.5817 -0.5240
 7347TIP3   OH243531   1.118   3.479   1.366 -0.8383 -0.2876  0.0860
 7347TIP3    H143532   1.169   3.493   1.446 -1.5337  1.4451  0.2613
 7347TIP3    H243533   1.145   3.392   1.336  0.6350 -0.3016  1.3126
 7348TIP3   OH243534   5.523   3.583  14.658 -0.2933 -0.2262  0.3625
 7348TIP3    H143535   5.607   3.538  14.663  0.7353  1.6195  0.6689
 7348TIP3    H243536   5.541   3.663  14.609 -2.0175 -0.0532 -0.0677
 7349TIP3   OH243537   1.459   4.539   1.601  0.1512  0.1926  0.3225
 7349TIP3    H143538   1.554   4.527   1.590  0.2798  1.0114  0.4907
 7349TIP3    H243539   1.451   4.607   1.668 -0.5269  1.2052 -0.7362
 7350TIP3   OH243540   6.260   3.297   2.970  0.2344 -0.0464 -0.0181
 7350TIP3    H143541   6.313   3.280   2.892  1.8156 -2.0347  1.3702
 7350TIP3    H243542   6.201   3.367   2.944  1.3314  0.0157 -2.6932
 7351TIP3   OH243543   4.048   1.140  14.380 -0.0975 -0.8338  0.5269
 7351TIP3    H143544   4.072   1.223  14.341  2.7994 -2.2496 -0.9887
 7351TIP3    H243545   3.996   1.096  14.312 -2.2080 -0.1115  1.5755
 7352TIP3   OH243546   6.696   5.993   4.494 -0.1045 -0.6757 -0.2952
 7352TIP3    H143547   6.754   5.986   4.418  1.5588  0.9972  0.7363
 7352TIP3    H243548   6.729   5.927   4.555  1.2339  0.7378  0.5681
 7353TIP3   OH243549   3.680   3.160  11.123  0.0963  0.4258  0.1567
 7353TIP3    H143550   3.644   3.109  11.196 -0.5369  0.9253  0.1922
 7353TIP3    H243551   3.712   3.094  11.061  0.8495 -0.0073  0.9792
 7354TIP3   OH243552   4.600   4.978   5.809  0.4770 -0.0646 -0.3843
 7354TIP3    H143553   4.536   4.993   5.740  0.4915  0.9393 -0.2051
 7354TIP3    H243554   4.662   4.916   5.772  0.0795 -0.0947 -1.0101
 7355TIP3   OH243555   6.599   2.866  14.353  0.6040 -0.2649 -0.1554
 7355TIP3    H143556   6.623   2.781  14.389 -0.0028  0.1015  1.1690
 7355TIP3    H243557   6.503   2.866  14.352  0.5871  0.5646  0.2904
 7356TIP3   OH243558   0.084   6.050  12.106  0.3543  0.8443 -0.2814
 7356TIP3    H143559   0.085   6.145  12.091 -1.1003  0.7804 -0.9918
 7356TIP3    H243560   0.047   6.013  12.026 -2.0714 -0.0249  1.1380
 7357TIP3   OH243561   2.837   6.367   0.295 -0.1428 -0.2146 -0.0574
 7357TIP3    H143562   2.765   6.430   0.287 -0.3113 -0.4979 -0.8435
 7357TIP3    H243563   2.916   6.421   0.295 -0.3460  0.1017  0.8811
 7358TIP3   OH243564   1.631   1.153  16.043 -0.7181  0.2145 -0.0945
 7358TIP3    H143565   1.562   1.131  15.980  0.5952 -0.4035 -1.4056
 7358TIP3    H243566   1.639   1.248  16.038 -0.8036  0.1965 -0.6886
 7359TIP3   OH243567   5.012   2.107  13.777 -0.1350 -0.4768 -0.2801
 7359TIP3    H143568   4.992   2.154  13.696 -1.3055  0.1646  0.3580
 7359TIP3    H243569   5.091   2.057  13.756 -0.8007 -0.8792 -2.0281
 7360TIP3   OH243570   2.617   5.882  14.663 -0.4195 -0.1853  0.5374
 7360TIP3    H143571   2.628   5.935  14.584 -0.2827 -0.6463  0.2425
 7360TIP3    H243572   2.684   5.814  14.657  0.3021  0.3989  1.5923
 7361TIP3   OH243573   5.083   0.594  13.088 -0.0058 -0.2930  0.1974
 7361TIP3    H143574   5.016   0.634  13.143  1.9264  1.1642  1.6529
 7361TIP3    H243575   5.155   0.575  13.148  0.4502 -3.0627 -1.0524
 7362TIP3   OH243576   3.955   0.762  10.314  0.7803 -0.2633 -0.2168
 7362TIP3    H143577   3.929   0.822  10.245  0.6716  0.1950  0.2141
 7362TIP3    H243578   3.873   0.726  10.347  0.3804  2.5802  2.4110
 7363TIP3   OH243579   0.710   6.349   6.091  0.0764 -0.1052  0.3693
 7363TIP3    H143580   0.765   6.384   6.161  1.1362  0.2881 -0.6346
 7363TIP3    H243581   0.688   6.261   6.120  0.7855 -0.0744  1.0409
 7364TIP3   OH243582   0.822   3.515   3.157  0.0734 -0.0761  0.4315
 7364TIP3    H143583   0.871   3.596   3.174 -0.5260  0.3220  0.3042
 7364TIP3    H243584   0.739   3.545   3.119 -0.2576 -0.7399  0.6153
 7365TIP3   OH243585   6.771   4.974   3.312  0.1865 -0.4879 -0.1674
 7365TIP3    H143586   6.696   4.959   3.255 -0.4939  3.5381 -0.5947
 7365TIP3    H243587   6.746   4.936   3.396 -1.7095 -0.5247 -0.7153
 7366TIP3   OH243588   3.172   1.861   3.515 -0.1562  0.6584  0.3839
 7366TIP3    H143589   3.190   1.917   3.590  0.9128 -1.2992  1.6874
 7366TIP3    H243590   3.125   1.786   3.552 -2.6415  1.1625 -1.4741
 7367TIP3   OH243591   5.418   4.595  12.889  0.0692 -0.2706  0.0357
 7367TIP3    H143592   5.414   4.675  12.835 -0.4460  0.2764  0.8662
 7367TIP3    H243593   5.332   4.554  12.876 -0.7208  0.7472  1.7353
 7368TIP3   OH243594   2.263   6.194  14.077 -0.5104 -0.0982 -0.2065
 7368TIP3    H143595   2.262   6.289  14.073 -0.3909 -0.0460  0.7657
 7368TIP3    H243596   2.197   6.172  14.143 -0.9375 -0.7222 -0.8205
 7369TIP3   OH243597   5.741   6.160  10.744  0.0334 -0.4645 -0.5787
 7369TIP3    H143598   5.766   6.107  10.668 -0.3944 -0.2677 -0.8587
 7369TIP3    H243599   5.691   6.101  10.800  0.8747 -0.7853 -0.1437
 7370TIP3   OH243600   1.346   5.068   3.937 -0.0188  0.2860  0.5000
 7370TIP3    H143601   1.320   5.000   3.999 -1.2087  0.9824  0.7857
 7370TIP3    H243602   1.397   5.130   3.989 -0.4157  0.5052  0.6307
 7371TIP3   OH243603   0.795   0.797  12.990  0.3512  0.2867 -0.1645
 7371TIP3    H143604   0.819   0.716  13.036  0.8623  0.9686  0.8069
 7371TIP3    H243605   0.738   0.768  12.918  1.3018 -1.0277 -0.4198
 7372TIP3   OH243606   0.084   6.320  12.084 -0.1594  0.2216 -0.3357
 7372TIP3    H143607   0.144   6.393  12.099  1.4460 -0.9637 -0.7134
 7372TIP3    H243608   0.002   6.348  12.125  0.8365  1.6001  0.8385
 7373TIP3   OH243609   0.233   2.236  14.029  0.5076 -0.1063  0.2200
 7373TIP3    H143610   0.286   2.313  14.008  0.4328  0.0973  0.7669
 7373TIP3    H243611   0.286   2.161  14.002 -0.7031  0.1362 -3.4469
 7374TIP3   OH243612   4.074   0.419   5.966  0.0107  0.3293 -0.0348
 7374TIP3    H143613   4.155   0.419   5.915 -0.0257  1.1798 -0.1057
 7374TIP3    H243614   4.019   0.354   5.923  0.7056 -0.3632  0.1025
 7375TIP3   OH243615   1.995   3.443  14.675  0.3755 -0.5746 -0.1730
 7375TIP3    H143616   1.971   3.427  14.766  0.4217 -0.2583 -0.1041
 7375TIP3    H243617   1.914   3.472  14.633  0.7439  1.0692  0.1961
 7376TIP3   OH243618   3.378   5.897   4.601  0.3850 -0.0390  0.0316
 7376TIP3    H143619   3.467   5.865   4.584  0.8452  1.2126 -0.0057
 7376TIP3    H243620   3.385   5.944   4.684 -0.2800 -0.0233  0.0873
 7377TIP3   OH243621   2.006   2.762  13.472 -0.3652 -0.1539  0.2903
 7377TIP3    H143622   1.942   2.795  13.408  0.1115  4.2622  1.7689
 7377TIP3    H243623   1.955   2.704  13.529 -1.7346 -0.8821 -1.5507
 7378TIP3   OH243624   0.999   0.147   1.259 -0.1232  0.4040 -0.0373
 7378TIP3    H143625   0.979   0.178   1.347  0.7105  1.0572 -0.0598
 7378TIP3    H243626   0.993   0.226   1.204  0.3084  0.1958 -0.3941
 7379TIP3   OH243627   3.560   1.612  14.338 -0.3311  0.1218  0.4504
 7379TIP3    H143628   3.638   1.603  14.284 -0.5846 -0.0841  0.1109
 7379TIP3    H243629   3.585   1.674  14.407  0.1445  0.0165  0.3760
 7380TIP3   OH243630   6.109   3.333   6.671 -0.1388  0.4273  0.3013
 7380TIP3    H143631   6.099   3.428   6.669  0.8574  0.5400  0.2416
 7380TIP3    H243632   6.179   3.318   6.735 -0.5061 -0.2891  0.5481
 7381TIP3   OH243633   4.233   4.350  15.863 -0.2075  0.0435 -0.7934
 7381TIP3    H143634   4.319   4.317  15.836  0.4360  1.1453 -0.1640
 7381TIP3    H243635   4.196   4.279  15.915 -0.5174 -1.2097 -2.6260
 7382TIP3   OH243636   1.648   1.299   4.318  0.2057  0.3185  0.1395
 7382TIP3    H143637   1.616   1.323   4.405  0.4603  0.5850  0.1623
 7382TIP3    H243638   1.701   1.374   4.291  1.7739 -0.5840  0.5962
 7383TIP3   OH243639   1.751   1.578  12.954  0.0207 -0.8167 -0.3097
 7383TIP3    H143640   1.792   1.661  12.931 -0.1501 -1.2266 -2.2630
 7383TIP3    H243641   1.781   1.517  12.887 -0.3021 -2.2210  0.7578
 7384TIP3   OH243642   3.325   3.588  11.426  0.1024 -0.0603  0.5668
 7384TIP3    H143643   3.343   3.585  11.332 -0.1309  1.0203  0.4795
 7384TIP3    H243644   3.406   3.619  11.466  0.0691 -0.1162  0.6788
 7385TIP3   OH243645   0.830   1.813   6.392  0.2899  0.1148 -0.6931
 7385TIP3    H143646   0.859   1.899   6.423  1.0853 -0.1886 -0.5858
 7385TIP3    H243647   0.881   1.750   6.443  1.0630 -0.3981 -2.0424
 7386TIP3   OH243648   6.539   6.154  12.648  0.4434  0.6203  0.2330
 7386TIP3    H143649   6.559   6.222  12.713  0.3620 -0.6340  1.6174
 7386TIP3    H243650   6.447   6.133  12.663 -0.0786  1.4979 -1.4680
 7387TIP3   OH243651   1.697   1.948  12.590 -0.7536  0.2329  0.0851
 7387TIP3    H143652   1.643   1.897  12.530  0.9847 -1.0099 -0.5174
 7387TIP3    H243653   1.786   1.917  12.574  0.2846  2.7913  0.4272
 7388TIP3   OH243654   3.445   6.733  15.889  0.7339 -0.5608 -0.0097
 7388TIP3    H143655   3.476   6.713  15.978  1.0885  1.7684  0.4503
 7388TIP3    H243656   3.457   6.651  15.841  1.4482 -1.6088  1.8303
 7389TIP3   OH243657   3.860   3.714  16.047 -0.1652 -0.2482  0.6732
 7389TIP3    H143658   3.936   3.714  15.989 -0.7235  0.8950 -0.0928
 7389TIP3    H243659   3.805   3.643  16.014 -0.3833  0.2634 -0.0802
 7390TIP3   OH243660   2.810   0.650  15.087  0.5833  0.1935 -0.0304
 7390TIP3    H143661   2.805   0.701  15.168 -0.0739  0.6235 -0.3355
 7390TIP3    H243662   2.785   0.711  15.018 -1.8411 -0.9128 -0.2217
 7391TIP3   OH243663   2.601   4.806   1.882  0.2210  0.2316 -0.5227
 7391TIP3    H143664   2.629   4.742   1.947  1.3876 -0.3815 -1.6013
 7391TIP3    H243665   2.520   4.843   1.919  1.3772  0.6635  1.7512
 7392TIP3   OH243666   5.598   6.537  11.262  0.6556 -1.0253 -0.1999
 7392TIP3    H143667   5.614   6.463  11.204  0.9774 -1.6844  0.7144
 7392TIP3    H243668   5.504   6.535  11.279  0.6528 -1.1753 -0.2347
 7393TIP3   OH243669   3.696   3.042   1.826 -0.3733 -0.3777 -0.3977
 7393TIP3    H143670   3.755   3.094   1.772  0.7298 -0.9728  0.2123
 7393TIP3    H243671   3.713   2.951   1.800 -1.1884 -0.5490 -0.3755
 7394TIP3   OH243672   1.853   1.275   2.325  0.0386 -0.4338 -0.5146
 7394TIP3    H143673   1.769   1.292   2.282  0.9513  2.7930 -1.2469
 7394TIP3    H243674   1.894   1.361   2.335  2.9040 -1.7785  0.6506
 7395TIP3   OH243675   6.247   5.716   1.778  0.1065 -0.4381  0.1634
 7395TIP3    H143676   6.194   5.641   1.807 -1.7960  0.4056 -0.9279
 7395TIP3    H243677   6.268   5.763   1.858  0.3731 -1.5243  0.7518
 7396TIP3   OH243678   0.400   4.664  16.509 -0.0894 -0.0125 -0.0325
 7396TIP3    H143679   0.417   4.633  16.420  2.1518 -0.4598  0.4925
 7396TIP3    H243680   0.335   4.733  16.498  1.8883  1.6669 -2.3506
 7397TIP3   OH243681   4.309   5.097   2.369  0.1332 -0.1437  0.6137
 7397TIP3    H143682   4.298   5.102   2.274 -1.9036 -2.8479  0.5984
 7397TIP3    H243683   4.301   5.188   2.398  1.9613  0.9309 -1.8263
 7398TIP3   OH243684   3.191   0.080  12.748  0.2813  0.2679  0.7378
 7398TIP3    H143685   3.140   0.068  12.828  0.7603  0.8577  1.1349
 7398TIP3    H243686   3.281   0.061  12.774  0.1550 -1.9437 -0.2254
 7399TIP3   OH243687   3.084   2.547   3.646 -0.2060 -0.3712  0.5205
 7399TIP3    H143688   3.149   2.609   3.614 -1.1632  1.1851  1.4856
 7399TIP3    H243689   3.120   2.461   3.622  0.9766  0.5258 -1.1768
 7400TIP3   OH243690   2.786   6.420   4.886 -0.1311  0.0166  0.1833
 7400TIP3    H143691   2.763   6.495   4.940 -1.0910  0.4774 -0.8376
 7400TIP3    H243692   2.734   6.348   4.921  0.0998  0.0421  0.5832
 7401TIP3   OH243693   4.614   5.320   3.148  0.0401 -0.6837  0.7307
 7401TIP3    H143694   4.550   5.306   3.079  0.9556 -1.3230 -0.0150
 7401TIP3    H243695   4.586   5.262   3.219 -0.3762 -0.7264  0.5295
 7402TIP3   OH243696   3.158   0.852  12.823  0.4237  0.3650 -0.0121
 7402TIP3    H143697   3.124   0.934  12.789  0.0952  0.3618  0.3083
 7402TIP3    H243698   3.084   0.791  12.820 -0.2532  0.9281  2.6825
 7403TIP3   OH243699   3.961   5.363   0.439 -0.5837 -0.7901  0.0318
 7403TIP3    H143700   3.875   5.387   0.474 -0.7441  1.1454 -1.5257
 7403TIP3    H243701   3.995   5.445   0.402  0.7359 -2.1056 -1.8215
 7404TIP3   OH243702   5.340   3.865   4.501  0.7243  0.4661 -0.2521
 7404TIP3    H143703   5.287   3.835   4.428  2.3688 -0.6033 -1.0875
 7404TIP3    H243704   5.369   3.784   4.544 -0.4554  1.0797  1.7966
 7405TIP3   OH243705   1.234   3.289  12.707  0.2613 -0.3233  0.7963
 7405TIP3    H143706   1.248   3.382  12.722 -0.2477 -0.0175 -0.4843
 7405TIP3    H243707   1.321   3.256  12.682  0.4749 -0.2391  1.3986
 7406TIP3   OH243708   2.834   5.338   5.246 -0.5103 -0.8399 -0.0133
 7406TIP3    H143709   2.828   5.340   5.341  1.0474 -0.5396  0.1097
 7406TIP3    H243710   2.854   5.246   5.225  1.5823 -0.4819  0.1807
 7407TIP3   OH243711   4.705   1.907   3.508  0.6013  0.3640 -0.1942
 7407TIP3    H143712   4.627   1.860   3.538  1.4985 -1.0164  0.0375
 7407TIP3    H243713   4.673   1.960   3.435 -1.0742  1.8100  1.4666
 7408TIP3   OH243714   6.286   2.464  14.587 -0.7018  0.3942 -1.2120
 7408TIP3    H143715   6.218   2.531  14.576 -0.2848  1.1423  0.4221
 7408TIP3    H243716   6.305   2.434  14.498 -1.7611  1.5903 -1.8756
 7409TIP3   OH243717   6.494   3.649   0.329 -0.3417 -0.1084 -0.7098
 7409TIP3    H143718   6.445   3.726   0.360  0.1429 -0.1455  0.1962
 7409TIP3    H243719   6.572   3.685   0.287  1.3396 -0.0651  2.1626
 7410TIP3   OH243720   4.857   1.817  14.857 -0.5543  0.6240 -0.3968
 7410TIP3    H143721   4.841   1.754  14.786 -0.7036  0.7041 -0.4324
 7410TIP3    H243722   4.800   1.789  14.928 -0.7278  0.8089 -0.4643
 7411TIP3   OH243723   5.629   0.271  16.044  0.8359  0.2397  0.0186
 7411TIP3    H143724   5.679   0.253  15.964  0.1024  0.3052 -0.4610
 7411TIP3    H243725   5.694   0.305  16.105  1.6602 -1.0734 -0.0933
 7412TIP3   OH243726   2.834   6.253   5.906  0.0032  0.5197  0.5209
 7412TIP3    H143727   2.887   6.195   5.852 -0.3846 -0.0355  0.7248
 7412TIP3    H243728   2.799   6.196   5.974 -0.7737  0.8901  0.4423
 7413TIP3   OH243729   1.996   3.823  13.319 -0.4800  0.0894 -0.1168
 7413TIP3    H143730   1.921   3.863  13.364 -0.2337  1.2223 -0.6811
 7413TIP3    H243731   1.989   3.854  13.229  1.0714  0.8149 -0.0136
 7414TIP3   OH243732   3.610   2.631   0.366  0.3808 -0.4625  0.5762
 7414TIP3    H143733   3.530   2.657   0.320  0.7004 -2.3159 -1.1470
 7414TIP3    H243734   3.599   2.666   0.454 -1.9902 -0.0281  0.1739
 7415TIP3   OH243735   3.914   5.957   5.671 -0.2286  0.0646  0.2069
 7415TIP3    H143736   3.871   6.037   5.699  0.1004 -0.4250  2.2839
 7415TIP3    H243737   3.864   5.928   5.595 -0.4604  2.1121 -0.4826
 7416TIP3   OH243738   5.845   2.393   1.039 -0.5282  0.3274 -0.4304
 7416TIP3    H143739   5.813   2.303   1.035  0.2029  0.0251  0.2439
 7416TIP3    H243740   5.874   2.413   0.950 -0.2909 -0.2516 -0.4842
 7417TIP3   OH243741   3.552   0.918  14.864 -0.0698 -0.0009 -0.0497
 7417TIP3    H143742   3.500   0.848  14.904  0.9876 -0.9548 -0.2975
 7417TIP3    H243743   3.606   0.953  14.935  2.0570 -1.9223 -0.6024
 7418TIP3   OH243744   4.113   2.831  13.312 -0.0470 -0.0322  0.2504
 7418TIP3    H143745   4.068   2.804  13.391 -0.4099  1.0998  0.4457
 7418TIP3    H243746   4.196   2.783  13.314  0.2038  0.4388  1.6152
 7419TIP3   OH243747   2.586   1.959  13.392 -0.3321 -0.2740  0.0254
 7419TIP3    H143748   2.621   2.046  13.412 -1.3605  0.2179 -0.2409
 7419TIP3    H243749   2.652   1.918  13.337  0.5232  0.0324  0.7997
 7420TIP3   OH243750   2.099   0.847   4.191  0.3441 -0.4280 -0.1951
 7420TIP3    H143751   2.096   0.801   4.275 -2.0864  0.3940  0.2350
 7420TIP3    H243752   2.168   0.802   4.142 -0.1281 -2.8080  1.1619
 7421TIP3   OH243753   1.213   0.977   1.563  0.9177 -0.1886  0.0832
 7421TIP3    H143754   1.270   0.945   1.494 -0.3571  0.0977 -1.1593
 7421TIP3    H243755   1.200   0.902   1.620 -0.4728 -1.4117 -1.7197
 7422TIP3   OH243756   0.352   3.240   2.619  0.1863 -0.0391 -0.5432
 7422TIP3    H143757   0.425   3.200   2.572  0.2587 -0.6199  0.0532
 7422TIP3    H243758   0.369   3.221   2.711 -0.6962 -0.1578 -0.3944
 7423TIP3   OH243759   5.656   1.747   1.648 -0.5384 -0.0045  0.2431
 7423TIP3    H143760   5.702   1.821   1.608  0.5483 -0.0921  1.2612
 7423TIP3    H243761   5.678   1.672   1.592 -1.2837  0.3553 -0.5408
 7424TIP3   OH243762   4.362   6.508  16.042 -0.1060 -0.0073  0.2327
 7424TIP3    H143763   4.299   6.445  16.006 -0.1637  0.1376  0.0836
 7424TIP3    H243764   4.313   6.589  16.051 -0.2694 -0.1954  1.2211
 7425TIP3   OH243765   6.576   2.174   0.423 -0.2754 -0.7374 -0.2692
 7425TIP3    H143766   6.622   2.251   0.456 -0.6388 -1.1185  1.1871
 7425TIP3    H243767   6.536   2.204   0.342  0.7769  0.1967 -0.4817
 7426TIP3   OH243768   1.836   5.792   5.038 -0.3817  0.3858 -0.2396
 7426TIP3    H143769   1.787   5.803   4.957 -0.8991  0.1036  0.0308
 7426TIP3    H243770   1.924   5.824   5.018 -1.3549  3.6051  0.0267
 7427TIP3   OH243771   2.976   2.017   0.417  0.2429 -0.1816  0.5689
 7427TIP3    H143772   3.018   1.951   0.362 -0.2154  0.0119 -0.0245
 7427TIP3    H243773   2.986   1.984   0.506 -0.7454 -1.5016  0.2209
 7428TIP3   OH243774   4.869   1.444  15.165  0.0902 -0.0631 -0.2526
 7428TIP3    H143775   4.799   1.510  15.172 -1.5995 -1.7588 -0.2412
 7428TIP3    H243776   4.934   1.484  15.107 -0.6071  1.8138  0.1971
 7429TIP3   OH243777   3.006   3.900  12.092  0.0109  0.1517 -0.3059
 7429TIP3    H143778   2.961   3.950  12.160 -0.6576 -0.6561 -0.1535
 7429TIP3    H243779   3.082   3.863  12.135 -0.0727  0.1587 -0.1531
 7430TIP3   OH243780   3.039   6.526   4.301  0.0399  0.2282  0.2565
 7430TIP3    H143781   3.025   6.615   4.268  1.5269  0.5186  0.3148
 7430TIP3    H243782   3.037   6.535   4.396  0.6946  0.3102  0.2697
 7431TIP3   OH243783   1.365   2.833  11.536 -0.0525  0.6719  0.3100
 7431TIP3    H143784   1.436   2.801  11.480 -0.9432 -0.3935 -0.2497
 7431TIP3    H243785   1.409   2.883  11.605  1.2755 -0.4228  0.2819
 7432TIP3   OH243786   1.005   1.826  12.553  0.0841  0.3868  0.0522
 7432TIP3    H143787   0.994   1.850  12.461  1.4493 -0.0539 -0.2520
 7432TIP3    H243788   0.995   1.908  12.601  1.8358  1.1176 -0.7254
 7433TIP3   OH243789   5.900   2.489   2.188 -0.3664  0.0692 -0.3439
 7433TIP3    H143790   5.839   2.539   2.241 -0.4751 -0.3200 -0.0948
 7433TIP3    H243791   5.981   2.487   2.240 -0.3050  0.1383 -0.4355
 7434TIP3   OH243792   6.529   2.916  13.242 -0.1931 -0.1534 -0.9270
 7434TIP3    H143793   6.619   2.893  13.266 -0.1393 -0.5939 -1.5205
 7434TIP3    H243794   6.487   2.832  13.222 -0.4241  0.1392 -1.6978
 7435TIP3   OH243795   1.003   2.769   4.504  0.4207 -0.5187  0.1355
 7435TIP3    H143796   0.974   2.853   4.468 -0.8069 -0.6200  0.8283
 7435TIP3    H243797   1.089   2.787   4.540  0.3226  0.3563 -0.0416
 7436TIP3   OH243798   2.904   2.349  13.858 -0.0545 -0.3503 -0.6685
 7436TIP3    H143799   2.943   2.307  13.935 -1.4341 -0.6793 -0.1240
 7436TIP3    H243800   2.961   2.323  13.786  0.3475 -1.3798 -0.0055
 7437TIP3   OH243801   5.252   2.704   1.881  0.6902  0.0094 -0.0913
 7437TIP3    H143802   5.308   2.702   1.959  0.0678  1.1213  0.4125
 7437TIP3    H243803   5.313   2.717   1.809  1.1569  0.4959  0.3796
 7438TIP3   OH243804   3.918   2.216   1.881 -0.0352  0.7367  0.0056
 7438TIP3    H143805   3.934   2.122   1.867 -0.1304  0.7169  0.0305
 7438TIP3    H243806   3.991   2.245   1.936  1.9459  1.3985 -2.7074
 7439TIP3   OH243807   6.059   5.593  14.763 -0.3834  0.2555  0.0411
 7439TIP3    H143808   6.006   5.670  14.742  0.0831  0.1509 -1.6611
 7439TIP3    H243809   6.143   5.608  14.720  0.1695 -0.6096  0.7868
 7440TIP3   OH243810   3.071   4.947  13.630 -0.1875 -0.1253  0.8462
 7440TIP3    H143811   3.159   4.953  13.595 -0.9014 -0.7551 -1.1467
 7440TIP3    H243812   3.046   5.038  13.648  0.4396  0.1449  0.3471
 7441TIP3   OH243813   2.737   6.020   3.183  0.0714  0.0309  0.5771
 7441TIP3    H143814   2.750   6.056   3.095  0.5694 -3.0045 -0.7001
 7441TIP3    H243815   2.822   6.030   3.226 -0.0384  1.0805  0.5950
 7442TIP3   OH243816   4.891   0.410  12.002  0.3418  0.4156 -0.2709
 7442TIP3    H143817   4.835   0.458  12.063 -2.1644  0.0661 -2.1761
 7442TIP3    H243818   4.951   0.477  11.968  0.5355  0.9978  1.1238
 7443TIP3   OH243819   0.691   1.336   2.387 -0.3203 -0.6926  0.0154
 7443TIP3    H143820   0.631   1.264   2.406  1.5018 -1.8099  1.9301
 7443TIP3    H243821   0.664   1.406   2.446 -1.8415  0.1386 -1.5697
 7444TIP3   OH243822   0.942   0.941  17.006 -0.0908  0.4138 -0.7689
 7444TIP3    H143823   0.991   0.883  16.949  0.1708 -0.6001  0.4285
 7444TIP3    H243824   0.850   0.918  16.991  0.0435 -0.9309  0.2775
 7445TIP3   OH243825   2.216   5.682  15.347 -0.3439 -0.0631  0.0542
 7445TIP3    H143826   2.132   5.639  15.334 -0.8594  0.7453  0.6277
 7445TIP3    H243827   2.210   5.764  15.297 -0.4469  0.6609  1.2036
 7446TIP3   OH243828   6.404   2.401  14.345 -0.5655  0.3391  0.4024
 7446TIP3    H143829   6.486   2.450  14.331 -0.7807  0.9711  1.2660
 7446TIP3    H243830   6.433   2.316  14.376 -0.2247  0.8062  1.4323
 7447TIP3   OH243831   4.610   2.959   2.363 -0.2245 -0.0231  0.5073
 7447TIP3    H143832   4.561   3.017   2.305  0.7751 -0.4168 -0.7749
 7447TIP3    H243833   4.680   3.014   2.398 -1.0338  0.3121  1.6780
 7448TIP3   OH243834   6.280   5.118  14.761 -0.1596  0.0682  0.0427
 7448TIP3    H143835   6.311   5.116  14.852 -1.2440 -0.8963  0.4338
 7448TIP3    H243836   6.193   5.158  14.767 -0.7216 -1.0338 -0.3716
 7449TIP3   OH243837   2.219   1.120  14.981 -0.3744  0.4342  0.0508
 7449TIP3    H143838   2.207   1.102  14.887 -1.7258  2.3163 -0.1839
 7449TIP3    H243839   2.314   1.123  14.993 -0.1671  1.3812 -1.5250
 7450TIP3   OH243840   3.290   1.656  15.649  0.5844  0.9822 -0.2883
 7450TIP3    H143841   3.202   1.660  15.687  0.7579  0.8153  0.1446
 7450TIP3    H243842   3.275   1.642  15.556  0.1535 -1.1697  0.0448
 7451TIP3   OH243843   0.018   2.308   0.608  0.1012  0.1063  0.3444
 7451TIP3    H143844   0.081   2.285   0.540 -0.5217  1.9482 -0.9276
 7451TIP3    H243845   0.065   2.367   0.666 -0.2341  0.9601 -0.2361
 7452TIP3   OH243846   4.165   0.982  10.733 -0.6981 -0.3061  0.1355
 7452TIP3    H143847   4.092   0.922  10.725 -1.9253  1.1390  0.0333
 7452TIP3    H243848   4.125   1.069  10.738  1.0201  0.5756 -0.3892
 7453TIP3   OH243849   6.469   4.872   3.394  0.5680 -0.7592  0.5371
 7453TIP3    H143850   6.407   4.940   3.418  2.3801  1.5344 -0.7928
 7453TIP3    H243851   6.527   4.864   3.470  0.5382 -0.6006  0.5752
 7454TIP3   OH243852   2.917   2.233   1.471 -0.2650  0.2381 -0.0913
 7454TIP3    H143853   2.893   2.238   1.563  0.5016  0.1583  0.1211
 7454TIP3    H243854   3.000   2.279   1.465  0.3508 -0.8677 -0.4894
 7455TIP3   OH243855   4.778   2.542  15.362 -0.6531 -0.3689  0.1035
 7455TIP3    H143856   4.818   2.535  15.449  0.7962 -1.2152 -0.5958
 7455TIP3    H243857   4.783   2.636  15.342 -0.3993 -0.2549  0.6545
 7456TIP3   OH243858   1.613   2.497   2.671 -0.0707 -0.2586 -0.2682
 7456TIP3    H143859   1.559   2.572   2.645 -0.9462 -0.6951  0.2682
 7456TIP3    H243860   1.555   2.422   2.664  0.8808 -0.9280 -1.0427
 7457TIP3   OH243861   0.530   0.063  13.895  0.0197 -0.0530  0.1397
 7457TIP3    H143862   0.470   0.109  13.836  0.3148  0.0272 -0.0986
 7457TIP3    H243863   0.533  -0.026  13.860  0.7724  0.1794 -0.4174
 7458TIP3   OH243864   5.580   3.580  12.769 -0.2466 -0.0707 -0.4068
 7458TIP3    H143865   5.493   3.544  12.750 -0.1959 -0.8418  0.7567
 7458TIP3    H243866   5.601   3.548  12.857  1.4626 -0.3788 -0.8874
 7459TIP3   OH243867   4.697   5.397   5.267 -0.3215 -0.5496 -0.6971
 7459TIP3    H143868   4.718   5.419   5.176  1.1551 -0.8006 -0.4387
 7459TIP3    H243869   4.748   5.458   5.319 -0.7411 -0.7574 -0.0279
 7460TIP3   OH243870   3.542   6.193   5.502 -0.0478 -0.1908  0.5630
 7460TIP3    H143871   3.558   6.143   5.422  0.3755  0.7772  0.0134
 7460TIP3    H243872   3.449   6.183   5.519 -0.4238  0.6792 -0.8273
 7461TIP3   OH243873   5.526   3.654  16.857 -0.3996 -0.4940 -0.0121
 7461TIP3    H143874   5.562   3.607  16.932 -2.6364 -1.3058  0.6387
 7461TIP3    H243875   5.436   3.621  16.849 -1.0661  1.4815 -1.4383
 7462TIP3   OH243876   2.680   2.903  14.374 -0.0634 -0.1629 -0.4856
 7462TIP3    H143877   2.724   2.818  14.381  0.4829 -0.0710 -2.4292
 7462TIP3    H243878   2.601   2.893  14.427  2.5536 -0.0334  3.9330
 7463TIP3   OH243879   6.125   2.461   6.264  0.2070  0.3993 -0.0232
 7463TIP3    H143880   6.168   2.546   6.274  0.1294  0.2633  1.8680
 7463TIP3    H243881   6.193   2.403   6.230 -0.0703  1.4458 -2.5730
 7464TIP3   OH243882   2.972   0.946   3.124 -0.1106 -0.7642  0.3300
 7464TIP3    H143883   2.991   1.039   3.124 -2.1962 -0.2825  0.5476
 7464TIP3    H243884   2.916   0.932   3.048 -0.5963 -1.6440  0.8243
 7465TIP3   OH243885   2.650   3.504  17.018 -0.3702 -0.0916  0.2450
 7465TIP3    H143886   2.736   3.470  16.995  0.5771  2.2089  0.0951
 7465TIP3    H243887   2.634   3.472  17.107  0.1803 -1.3330 -0.0857
 7466TIP3   OH243888   1.019   6.246  13.566  0.2906 -0.4782  0.7143
 7466TIP3    H143889   1.050   6.161  13.535  1.9327 -1.7136  4.9878
 7466TIP3    H243890   1.099   6.300  13.570  0.0858 -0.2516  2.1848
 7467TIP3   OH243891   6.272   5.417   4.436 -0.2406  0.0284 -0.5576
 7467TIP3    H143892   6.329   5.360   4.385  0.1028 -0.5615  0.4569
 7467TIP3    H243893   6.190   5.419   4.387  0.7557  1.2324 -2.2632
 7468TIP3   OH243894   6.289   0.497   3.825 -0.0473  0.0232 -0.1190
 7468TIP3    H143895   6.314   0.437   3.755 -2.7693  0.4734 -1.5964
 7468TIP3    H243896   6.289   0.583   3.783  0.2723  0.5933  1.0129
 7469TIP3   OH243897   0.151   6.084  17.105  0.5881 -0.4313 -0.3078
 7469TIP3    H143898   0.188   5.996  17.105 -0.1329 -0.7649 -1.4783
 7469TIP3    H243899   0.206   6.134  17.166  0.7614 -1.7748  0.6722
 7470TIP3   OH243900   4.469   1.233   3.802  0.8501  0.1889  0.0248
 7470TIP3    H143901   4.509   1.180   3.871 -0.8897  0.4181  1.2798
 7470TIP3    H243902   4.452   1.171   3.731  1.6481 -0.2791  0.2310
 7471TIP3   OH243903   1.314   3.811   2.876 -0.0643  0.5510 -0.8487
 7471TIP3    H143904   1.336   3.720   2.856  1.4211 -0.0537  2.7726
 7471TIP3    H243905   1.398   3.855   2.888 -0.7474  1.6558  0.2143
 7472TIP3   OH243906   3.021   6.786  14.452  0.5408 -0.2948 -0.4388
 7472TIP3    H143907   2.945   6.789  14.394  1.1697 -0.4790 -1.2901
 7472TIP3    H243908   3.096   6.780  14.393  1.1773 -0.8350  0.4073
 7473TIP3   OH243909   5.391   5.160   1.401 -0.3686  0.0039 -0.4594
 7473TIP3    H143910   5.384   5.087   1.462  0.6345  1.0203  0.9468
 7473TIP3    H243911   5.313   5.213   1.417 -0.1644  0.2076 -0.1184
 7474TIP3   OH243912   5.930   3.309  15.303 -0.6197  0.1521  0.0665
 7474TIP3    H143913   5.909   3.311  15.209  1.4678 -1.6545 -0.5144
 7474TIP3    H243914   5.907   3.220  15.330  3.2054 -0.9763  0.0566
 7475TIP3   OH243915   0.433   4.065  15.799  0.2820  0.6642  0.5932
 7475TIP3    H143916   0.390   4.143  15.767  1.1466  0.9575  0.1054
 7475TIP3    H243917   0.387   4.042  15.880 -0.5669  1.1326  0.2414
 7476TIP3   OH243918   0.040   2.421   0.297 -0.2156  0.2680  0.0657
 7476TIP3    H143919   0.055   2.506   0.256  2.1761  1.0858  2.3420
 7476TIP3    H243920   0.029   2.442   0.390 -0.7325 -1.8404  0.5247
 7477TIP3   OH243921   4.235   6.128  12.856  0.3500  0.0780  0.2946
 7477TIP3    H143922   4.264   6.138  12.765  0.2224 -1.3987  0.0814
 7477TIP3    H243923   4.313   6.098  12.903 -0.3373 -2.2010  0.0555
 7478TIP3   OH243924   0.255   6.720   6.714 -0.5974 -0.2310  0.1411
 7478TIP3    H143925   0.198   6.730   6.638  1.1640  1.6213 -1.0416
 7478TIP3    H243926   0.328   6.781   6.698 -0.0494  0.1026  3.2171
 7479TIP3   OH243927   3.151   4.765   4.614  0.3353 -0.0587  0.0683
 7479TIP3    H143928   3.134   4.831   4.547  1.4670 -0.6743 -0.8684
 7479TIP3    H243929   3.169   4.685   4.565  2.7267 -0.1755  1.0222
 7480TIP3   OH243930   3.436   3.909  16.655 -0.4451  0.2879  0.7145
 7480TIP3    H143931   3.481   3.954  16.727 -0.7202 -0.0071  1.0751
 7480TIP3    H243932   3.431   3.817  16.683  1.8742 -0.4141 -0.8616
 7481TIP3   OH243933   0.494   4.546   1.291 -0.1287  0.2510 -0.2777
 7481TIP3    H143934   0.452   4.582   1.212 -2.5848  0.7399  1.1232
 7481TIP3    H243935   0.515   4.456   1.268 -1.7047  0.0831 -1.2387
 7482TIP3   OH243936   0.142   2.433  11.268  0.1149  0.1076 -0.3450
 7482TIP3    H143937   0.156   2.446  11.174  0.6837 -0.3898 -0.3321
 7482TIP3    H243938   0.127   2.521  11.302  0.0504  0.3088 -0.8730
 7483TIP3   OH243939   1.620   5.159   4.412  0.1341 -0.4946  0.2032
 7483TIP3    H143940   1.630   5.064   4.421  1.3730 -0.2698  1.8154
 7483TIP3    H243941   1.699   5.194   4.453 -0.7936  1.2541  0.5669
 7484TIP3   OH243942   3.341   4.133   4.072 -0.3831 -0.2870 -0.0054
 7484TIP3    H143943   3.369   4.158   4.159 -1.4382  1.4276 -0.1039
 7484TIP3    H243944   3.398   4.181   4.013  0.5655 -1.7195 -0.2996
 7485TIP3   OH243945   4.049   1.531   2.497  0.4023  0.2870  0.2571
 7485TIP3    H143946   4.063   1.448   2.542  0.1307  0.6279  0.9812
 7485TIP3    H243947   4.003   1.507   2.417 -2.4496 -0.0086  1.8692
 7486TIP3   OH243948   5.944   3.909  12.377  0.4563 -0.5436  0.1047
 7486TIP3    H143949   6.011   3.888  12.442  0.4694 -0.9177 -0.0253
 7486TIP3    H243950   5.949   3.836  12.314  0.6449 -0.0422 -0.4677
 7487TIP3   OH243951   1.362   6.757  15.062  0.6977 -0.5296  0.4522
 7487TIP3    H143952   1.295   6.787  15.123  0.5273 -2.6793  1.4026
 7487TIP3    H243953   1.387   6.835  15.013 -1.1326  0.6989  1.3829
 7488TIP3   OH243954   5.416   0.607   0.255 -0.0168 -0.9031  0.1250
 7488TIP3    H143955   5.443   0.629   0.344 -2.1397 -0.4725  0.7317
 7488TIP3    H243956   5.461   0.525   0.235  1.9413 -0.0634  0.8403
 7489TIP3   OH243957   0.411   0.340  14.709 -0.2798  0.2929  0.1298
 7489TIP3    H143958   0.482   0.275  14.707 -0.0950  0.5122 -0.7172
 7489TIP3    H243959   0.339   0.298  14.662 -0.5396  0.2831  0.5269
 7490TIP3   OH243960   6.640   1.327   1.398 -0.1479  0.4658 -0.0887
 7490TIP3    H143961   6.630   1.314   1.304  2.0818 -1.8492 -0.0786
 7490TIP3    H243962   6.573   1.271   1.437  0.9921 -1.0681 -0.2813
 7491TIP3   OH243963   0.525   1.318   3.766 -0.1188  0.8334 -0.6536
 7491TIP3    H143964   0.477   1.245   3.804  0.8425  1.5390  2.1888
 7491TIP3    H243965   0.462   1.362   3.709 -2.0748  0.2438  0.9255
 7492TIP3   OH243966   0.258   0.687   2.092  0.2917  0.1813  0.1178
 7492TIP3    H143967   0.184   0.738   2.125 -0.2315 -0.5905  0.1740
 7492TIP3    H243968   0.235   0.666   2.001  0.2041 -0.4718  0.2829
 7493TIP3   OH243969   0.398   5.343   4.026  0.5632 -0.2376  0.2919
 7493TIP3    H143970   0.448   5.262   4.032  1.1640  0.0457 -0.7143
 7493TIP3    H243971   0.463   5.410   4.007 -0.1251  0.2095 -0.5801
 7494TIP3   OH243972   3.826   0.352   2.752 -0.3577 -0.0854 -0.4427
 7494TIP3    H143973   3.858   0.263   2.741  1.2050  0.3453  0.2602
 7494TIP3    H243974   3.906   0.406   2.753 -1.3380  1.4784 -2.1627
 7495TIP3   OH243975   5.293   3.697  11.361 -0.1230  0.0178  0.3450
 7495TIP3    H143976   5.358   3.729  11.298 -0.4595 -0.6367 -0.3542
 7495TIP3    H243977   5.244   3.774  11.386  0.2636  0.3523  0.0904
 7496TIP3   OH243978   1.092   2.881   5.958  0.1548  0.0138  0.3591
 7496TIP3    H143979   1.030   2.951   5.974  1.5086  1.6289 -1.0271
 7496TIP3    H243980   1.051   2.828   5.890  0.2332  1.0533 -0.5344
 7497TIP3   OH243981   4.018   2.821  16.807  0.1196  0.1652  0.2323
 7497TIP3    H143982   4.091   2.760  16.803 -0.2263 -0.3106  0.9463
 7497TIP3    H243983   4.058   2.907  16.808  0.7292 -0.1153  1.7106
 7498TIP3   OH243984   1.016   5.341   2.237  0.1103  0.4752  0.0655
 7498TIP3    H143985   0.998   5.399   2.163 -0.7800  1.6963  1.2036
 7498TIP3    H243986   1.084   5.385   2.287  0.1809  0.0266  0.3713
 7499TIP3   OH243987   6.850   5.652   2.516  0.3370 -0.3230 -0.2347
 7499TIP3    H143988   6.827   5.560   2.506  0.7103 -0.3484 -0.9315
 7499TIP3    H243989   6.940   5.658   2.484  0.1246  0.3835 -0.7227
 7500TIP3   OH243990   2.365   5.400   3.969 -0.0035  0.0579 -0.1340
 7500TIP3    H143991   2.430   5.330   3.972  0.1859  0.2501  1.1313
 7500TIP3    H243992   2.347   5.414   3.876  2.2963  0.4812 -0.5652
 7501TIP3   OH243993   2.217   0.805   0.912  0.6125 -0.2349 -0.6537
 7501TIP3    H143994   2.194   0.806   0.820 -0.6309 -0.0901 -0.3566
 7501TIP3    H243995   2.182   0.888   0.947 -0.9034 -1.2510  0.3768
 7502TIP3   OH243996   3.939   3.125  12.695  0.2248  0.3319  0.1284
 7502TIP3    H143997   3.844   3.110  12.698  0.1792  0.6449  0.2887
 7502TIP3    H243998   3.955   3.186  12.767  0.4008  1.0875 -0.5393
 7503TIP3   OH243999   5.712   2.401  16.776  0.0482 -0.1077  0.6251
 7503TIP3    H144000   5.727   2.321  16.726 -0.4783 -0.4302  0.9726
 7503TIP3    H244001   5.642   2.379  16.837 -0.7856  0.9006  0.0737
 7504TIP3   OH244002   0.587   1.058   0.685 -0.2853 -0.1018  0.3016
 7504TIP3    H144003   0.549   1.144   0.699  1.1759  1.0490 -2.1071
 7504TIP3    H244004   0.649   1.047   0.757 -0.0904  1.1081  0.3363
 7505TIP3   OH244005   0.963   2.983  14.374  0.2862  0.1533  0.0943
 7505TIP3    H144006   0.999   3.072  14.380 -1.7562  1.0248  0.1114
 7505TIP3    H244007   0.877   2.995  14.334  0.3535 -1.9507 -0.7725
 7506TIP3   OH244008   3.611   1.558  11.500 -0.2625 -0.4043 -0.2166
 7506TIP3    H144009   3.649   1.635  11.459  1.0052 -0.9674 -0.1254
 7506TIP3    H244010   3.551   1.523  11.433  0.2739 -0.1788 -0.8222
 7507TIP3   OH244011   2.755   3.642  13.521  0.1161  0.4012  0.0144
 7507TIP3    H144012   2.842   3.680  13.512  0.0532  0.0940 -2.3646
 7507TIP3    H244013   2.734   3.607  13.435 -2.4544  0.6003  0.4645
 7508TIP3   OH244014   2.342   0.896   5.694 -0.0468 -0.0553 -0.3309
 7508TIP3    H144015   2.409   0.935   5.751 -0.6186  0.2504  0.1432
 7508TIP3    H244016   2.259   0.921   5.735 -0.4453 -0.7124 -0.7286
 7509TIP3   OH244017   4.380   6.034   5.006  0.1711 -0.5120  0.3789
 7509TIP3    H144018   4.297   5.999   5.039  0.1886 -1.0855 -0.1643
 7509TIP3    H244019   4.422   6.073   5.082 -1.2464  1.0985  0.3971
 7510TIP3   OH244020   5.462   6.616   5.814  0.4610 -0.1651 -0.6085
 7510TIP3    H144021   5.425   6.528   5.808 -1.5608  0.4434  1.5306
 7510TIP3    H244022   5.450   6.654   5.727 -2.0858 -0.7833 -0.5857
 7511TIP3   OH244023   0.287   2.759   5.842 -0.4176  0.3989 -0.5249
 7511TIP3    H144024   0.268   2.774   5.749 -0.3084  0.1970 -0.5812
 7511TIP3    H244025   0.226   2.816   5.889 -0.6536  0.3035 -0.7162
 7512TIP3   OH244026   0.522   5.112  14.260  0.2883 -0.3825 -0.2899
 7512TIP3    H144027   0.586   5.090  14.192  1.6470  0.3458  0.7009
 7512TIP3    H244028   0.569   5.173  14.318 -1.0857 -0.3671  0.8527
 7513TIP3   OH244029   4.028   6.007   4.663 -0.5559 -0.4438 -0.0201
 7513TIP3    H144030   3.943   5.999   4.619  0.2560  0.9982 -1.9530
 7513TIP3    H244031   4.020   6.088   4.715 -0.2463 -0.1033 -0.4998
 7514TIP3   OH244032   3.769   6.688   5.316 -0.6664  0.2481 -0.3686
 7514TIP3    H144033   3.706   6.625   5.348  0.0185 -0.7689 -0.9625
 7514TIP3    H244034   3.731   6.774   5.337 -2.9387 -0.2615 -1.9912
 7515TIP3   OH244035   5.288   6.602  15.050  0.2983 -0.5761 -0.5470
 7515TIP3    H144036   5.226   6.577  15.118  0.4890  0.0759 -0.1265
 7515TIP3    H244037   5.358   6.536  15.056  0.9537  0.1998  0.7589
 7516TIP3   OH244038   5.229   0.033   4.611  0.6960 -0.7771 -0.3633
 7516TIP3    H144039   5.204   0.032   4.519 -0.9915 -0.0218  0.0582
 7516TIP3    H244040   5.173  -0.033   4.653  0.6810 -0.3452  0.3128
 7517TIP3   OH244041   3.252   1.001  17.050  0.5416 -0.3512 -0.5759
 7517TIP3    H144042   3.331   1.054  17.038 -0.2577  0.4858 -2.4076
 7517TIP3    H244043   3.187   1.041  16.993 -1.6524 -0.2325  1.8365
 7518TIP3   OH244044   6.382   6.016  15.222 -0.5052  0.2342  0.1018
 7518TIP3    H144045   6.342   5.944  15.172 -2.5132  1.2634  0.1338
 7518TIP3    H244046   6.405   6.081  15.155 -1.2916  0.7300  0.2968
 7519TIP3   OH244047   4.118   3.365   0.633  0.4654  0.6494  0.2130
 7519TIP3    H144048   4.130   3.430   0.565 -3.1184  0.8466 -0.4427
 7519TIP3    H244049   4.141   3.282   0.592  1.0236  1.0644 -0.3151
 7520TIP3   OH244050   4.591   3.903  16.382  0.2674 -0.2705  0.2773
 7520TIP3    H144051   4.593   3.910  16.478 -1.4902 -0.4438  0.3587
 7520TIP3    H244052   4.644   3.826  16.363  0.6082 -0.2583  1.1206
 7521TIP3   OH244053   6.228   5.805  15.130  0.2822  0.0732  0.2744
 7521TIP3    H144054   6.298   5.745  15.155  0.1933  0.0605  0.4940
 7521TIP3    H244055   6.151   5.749  15.120  0.6767 -0.1875 -1.7022
 7522TIP3   OH244056   6.145   1.052   4.901 -0.1076  0.6646  0.1427
 7522TIP3    H144057   6.200   1.095   4.966  0.4811  1.9757 -1.1676
 7522TIP3    H244058   6.150   1.108   4.824 -0.3553 -1.0968 -1.2237
 7523TIP3   OH244059   1.329   6.607   0.249  0.0627  0.4153 -0.0116
 7523TIP3    H144060   1.386   6.661   0.305  0.7339 -0.7938  0.5047
 7523TIP3    H244061   1.387   6.540   0.214 -1.0049 -0.7300  0.3708
 7524TIP3   OH244062   0.577   2.862  12.533 -0.8913 -0.3643 -0.4071
 7524TIP3    H144063   0.492   2.861  12.489 -0.2285 -1.6292 -1.7281
 7524TIP3    H244064   0.581   2.779  12.580  0.3230 -1.1266 -1.8126
 7525TIP3   OH244065   6.026   0.571   4.762 -0.1087  0.8899 -0.0129
 7525TIP3    H144066   6.063   0.486   4.739 -0.4828  0.9243 -0.7846
 7525TIP3    H244067   6.101   0.629   4.772  0.2530  0.1716  1.9071
 7526TIP3   OH244068   2.301   5.400   1.899  0.2297 -0.7708  0.4340
 7526TIP3    H144069   2.209   5.377   1.886 -0.1559  0.7549  0.2740
 7526TIP3    H244070   2.298   5.475   1.959  1.0793  1.5425 -2.1824
 7527TIP3   OH244071   1.682   6.306   4.264 -0.1736 -0.9163  0.0799
 7527TIP3    H144072   1.591   6.309   4.234  0.5184  0.7684 -2.1229
 7527TIP3    H244073   1.676   6.309   4.360 -2.4773  3.0778  0.0595
 7528TIP3   OH244074   4.910   1.476  16.093  0.1084  0.3603 -0.7772
 7528TIP3    H144075   4.958   1.431  16.023  0.7244 -1.9978  1.0170
 7528TIP3    H244076   4.820   1.482  16.061 -0.2197 -3.0329 -0.8747
 7529TIP3   OH244077   6.777   0.427   3.790  0.1691 -0.3994  0.0092
 7529TIP3    H144078   6.753   0.520   3.794 -0.0984 -0.3307 -2.0094
 7529TIP3    H244079   6.865   0.427   3.754  0.1142 -0.9409 -0.1249
 7530TIP3   OH244080   4.175   6.144   2.690  0.0962 -0.5330  1.0133
 7530TIP3    H144081   4.184   6.055   2.724 -1.9889 -0.8597  0.8064
 7530TIP3    H244082   4.264   6.169   2.666  1.0008 -1.8763  2.7385
 7531TIP3   OH244083   2.025   5.738   2.608 -0.1000 -0.1908 -0.0847
 7531TIP3    H144084   1.951   5.794   2.584 -2.8962 -2.7279  1.8801
 7531TIP3    H244085   2.078   5.792   2.667 -0.8032  1.4196 -0.8745
 7532TIP3   OH244086   6.240   1.612   4.697 -0.6988  0.2000 -0.1045
 7532TIP3    H144087   6.331   1.595   4.719 -0.7484  1.1872  0.9553
 7532TIP3    H244088   6.231   1.580   4.607  0.8618  0.7157 -0.4765
 7533TIP3   OH244089   4.175   6.212  11.807  0.1073  0.0519  0.3853
 7533TIP3    H144090   4.109   6.208  11.877 -0.4911  2.2116  0.0298
 7533TIP3    H244091   4.130   6.178  11.730  0.7827 -2.3805  0.9732
 7534TIP3   OH244092   4.724   2.550  16.442 -0.0630 -0.1341  0.3857
 7534TIP3    H144093   4.773   2.486  16.494  0.1731 -2.0572 -2.0010
 7534TIP3    H244094   4.784   2.625  16.434 -0.2485  0.4166  3.0388
 7535TIP3   OH244095   6.180   0.767  11.766  0.3937 -0.0472  0.1005
 7535TIP3    H144096   6.212   0.825  11.835 -0.1549 -0.7094  0.9472
 7535TIP3    H244097   6.091   0.798  11.748 -0.0216 -0.7904  0.7855
 7536TIP3   OH244098   0.433   0.467   1.787  0.8970  0.5841 -0.2919
 7536TIP3    H144099   0.403   0.437   1.873  1.4361 -3.4275 -1.2893
 7536TIP3    H244100   0.354   0.467   1.733  1.2522 -1.7246 -0.8926
 7537TIP3   OH244101   1.178   2.435  12.199 -0.2482 -0.2459  0.3939
 7537TIP3    H144102   1.255   2.421  12.254  0.7311 -0.3594 -0.9595
 7537TIP3    H244103   1.123   2.495  12.249  0.6640 -0.2601  1.4362
 7538TIP3   OH244104   1.236   1.938  11.022  0.1732  0.2756  0.1637
 7538TIP3    H144105   1.167   2.004  11.015  1.4761  1.6152 -0.6282
 7538TIP3    H244106   1.272   1.931  10.933  1.1712 -0.2473  0.5854
 7539TIP3   OH244107   4.232   0.838   5.358 -0.1687  0.0211 -0.4166
 7539TIP3    H144108   4.251   0.794   5.275 -2.7034  0.9450 -1.5920
 7539TIP3    H244109   4.218   0.930   5.334  1.6010  0.8642  1.4654
 7540TIP3   OH244110   3.394   0.076  16.583  0.0142 -0.3455  0.3067
 7540TIP3    H144111   3.334   0.015  16.540  1.1829 -0.4369 -1.3206
 7540TIP3    H244112   3.386   0.157  16.533  0.0311  0.1600  1.1120
 7541TIP3   OH244113   6.228   2.831   4.041  0.1054  0.1907 -0.1066
 7541TIP3    H144114   6.148   2.817   3.992 -0.1555  0.2830  0.2893
 7541TIP3    H244115   6.215   2.915   4.085  0.8743  0.7608 -0.9314
 7542TIP3   OH244116   3.582   2.845   5.127  0.3166  0.2502  0.2188
 7542TIP3    H144117   3.600   2.927   5.174 -1.4574  0.9506 -0.2369
 7542TIP3    H244118   3.625   2.855   5.043  1.3092  0.0860  0.6874
 7543TIP3   OH244119   4.548   2.519  16.246 -0.3061 -0.4848 -0.1870
 7543TIP3    H144120   4.616   2.485  16.303 -0.8361 -1.0166  0.1425
 7543TIP3    H244121   4.472   2.529  16.303  0.1908  2.7413  0.1260
 7544TIP3   OH244122   3.350   1.817  11.578  0.1825 -0.5639  0.2155
 7544TIP3    H144123   3.365   1.751  11.646  1.2491 -1.2865 -0.6923
 7544TIP3    H244124   3.411   1.794  11.509 -0.0027  0.9219 -0.4649
 7545TIP3   OH244125   2.554   1.670   0.027  0.4147 -0.0958 -0.1268
 7545TIP3    H144126   2.606   1.639   0.100  0.0868  0.5421  0.3914
 7545TIP3    H244127   2.465   1.639   0.045 -0.0914  1.7200  0.8134
 7546TIP3   OH244128   6.294   3.747   1.909  0.2499  0.1497 -0.0177
 7546TIP3    H144129   6.330   3.659   1.901  0.1417  0.2316 -1.7106
 7546TIP3    H244130   6.354   3.792   1.969  0.4561 -0.9698  0.6535
 7547TIP3   OH244131   1.425   5.691  16.743 -0.2626 -0.1511 -0.1735
 7547TIP3    H144132   1.416   5.758  16.810 -0.3836  0.5374 -0.8707
 7547TIP3    H244133   1.403   5.735  16.661 -0.9557 -1.1868 -0.5731
 7548TIP3   OH244134   1.717   6.798  13.696  0.2105  1.2328 -0.5132
 7548TIP3    H144135   1.783   6.866  13.681 -0.9713  2.0432 -2.4747
 7548TIP3    H244136   1.762   6.732  13.749  1.4467  3.4301  1.3619
 7549TIP3   OH244137   5.779   4.975  12.884 -0.0705 -0.1222  0.0374
 7549TIP3    H144138   5.789   4.880  12.882  1.3762 -0.0204  0.9829
 7549TIP3    H244139   5.854   5.008  12.835  1.7521  0.5860  3.0425
 7550TIP3   OH244140   3.376   2.870  17.023 -0.1576 -0.0163 -0.0669
 7550TIP3    H144141   3.301   2.887  16.966 -0.5940 -0.1513  0.4617
 7550TIP3    H244142   3.338   2.858  17.110  0.6945  2.6691  0.7665
 7551TIP3   OH244143   2.207   4.696  12.716  0.2990 -0.2848 -0.1825
 7551TIP3    H144144   2.200   4.625  12.779  0.1421 -1.1184 -1.1171
 7551TIP3    H244145   2.247   4.768  12.765  0.7017 -1.0972  0.7092
 7552TIP3   OH244146   0.219   3.624  16.446  0.4896 -0.5885  0.1564
 7552TIP3    H144147   0.188   3.534  16.434  0.7138 -0.5317 -0.9030
 7552TIP3    H244148   0.314   3.616  16.450  0.4794 -0.4655  0.7498
 7553TIP3   OH244149   0.843   1.956  16.598 -0.0111 -0.1849 -0.1968
 7553TIP3    H144150   0.832   1.959  16.503 -0.0196 -1.5948 -0.2504
 7553TIP3    H244151   0.893   2.035  16.618  1.0393 -0.4718 -1.5223
 7554TIP3   OH244152   4.194   2.473   0.308 -0.2583 -0.6175 -0.6632
 7554TIP3    H144153   4.179   2.559   0.347  0.4590 -0.5129 -0.5991
 7554TIP3    H244154   4.206   2.491   0.215  1.0122 -0.4935 -0.4989
 7555TIP3   OH244155   1.513   1.559  11.274  0.0452  0.1239  0.3324
 7555TIP3    H144156   1.482   1.477  11.311 -1.6019  0.5975  0.0848
 7555TIP3    H244157   1.477   1.560  11.185  2.5354 -0.2321 -0.7552
 7556TIP3   OH244158   6.073   5.789   5.453 -0.4331  0.0027  0.1607
 7556TIP3    H144159   6.111   5.722   5.396 -0.6265 -0.7192  0.8460
 7556TIP3    H244160   6.144   5.851   5.468 -0.3546  0.1404 -0.7696
 7557TIP3   OH244161   2.933   0.718   1.725  0.2846  0.1465  0.0520
 7557TIP3    H144162   2.849   0.732   1.683  0.4391  0.9244 -0.0169
 7557TIP3    H244163   2.938   0.786   1.793 -0.0955 -1.2742  1.5644
 7558TIP3   OH244164   1.513   1.782   1.777  0.0930  0.0418 -0.0196
 7558TIP3    H144165   1.554   1.804   1.693  1.6877  0.0867  0.7426
 7558TIP3    H244166   1.510   1.686   1.777 -2.0194  0.0518 -1.0708
 7559TIP3   OH244167   2.436   6.277   1.432 -0.4519 -0.3905  0.4259
 7559TIP3    H144168   2.348   6.250   1.405 -1.1058  0.9675  1.0788
 7559TIP3    H244169   2.495   6.214   1.389 -1.7468 -1.5220  0.2392
 7560TIP3   OH244170   4.816   0.800  13.119 -0.4176  0.1633  0.4417
 7560TIP3    H144171   4.739   0.856  13.123 -0.8016 -0.3605  0.4899
 7560TIP3    H244172   4.793   0.723  13.171  0.0568 -0.0948  0.2817
 7561TIP3   OH244173   2.355   2.237   4.278 -0.3076  0.2353  0.1641
 7561TIP3    H144174   2.389   2.316   4.321 -0.9636  0.7896 -0.3183
 7561TIP3    H244175   2.283   2.208   4.334  1.0543 -1.1010  1.3374
 7562TIP3   OH244176   0.108   1.514   5.355 -0.2878 -0.2020  0.0053
 7562TIP3    H144177   0.030   1.554   5.394 -0.5277 -1.3795  0.7851
 7562TIP3    H244178   0.172   1.585   5.350 -1.7692  1.1193 -1.7697
 7563TIP3   OH244179   0.076   5.453   1.010  0.0049  0.2786 -0.7112
 7563TIP3    H144180   0.153   5.405   1.040 -0.2687 -0.4300 -1.1372
 7563TIP3    H244181   0.070   5.434   0.917 -0.8074  0.1516 -0.6402
 7564TIP3   OH244182   0.684   4.745  13.792 -0.3241 -0.4552  0.2982
 7564TIP3    H144183   0.733   4.820  13.757 -1.0586  1.4018  2.8875
 7564TIP3    H244184   0.748   4.699  13.847 -0.0736 -1.2962 -0.6876
 7565TIP3   OH244185   5.698   1.944  12.650 -0.6423 -0.1354  0.0048
 7565TIP3    H144186   5.777   1.915  12.605 -0.7398  1.6989 -1.4485
 7565TIP3    H244187   5.667   1.866  12.697  2.7460 -0.5856  1.7930
 7566TIP3   OH244188   1.202   2.361   1.475 -0.1556  0.2602  0.2481
 7566TIP3    H144189   1.249   2.285   1.442  0.4786 -0.2641  2.2600
 7566TIP3    H244190   1.113   2.329   1.491 -0.8444  0.8377 -1.9870
 7567TIP3   OH244191   5.377   1.787  11.628 -0.0493 -0.3153 -0.1811
 7567TIP3    H144192   5.346   1.786  11.719 -1.5360 -0.5460 -0.6747
 7567TIP3    H244193   5.467   1.753  11.634 -0.0812 -0.2383  1.2101
 7568TIP3   OH244194   3.271   4.489  10.982  0.2901  0.6374 -0.2926
 7568TIP3    H144195   3.179   4.515  10.971 -0.3146 -1.9039 -2.6939
 7568TIP3    H244196   3.272   4.397  10.953  3.2028 -0.1321  1.8867
 7569TIP3   OH244197   3.247   4.676  12.121  0.2877 -0.3735 -0.6832
 7569TIP3    H144198   3.304   4.599  12.124 -0.6404 -1.0350  0.9115
 7569TIP3    H244199   3.182   4.661  12.189 -0.2190  1.6133 -0.6686
 7570TIP3   OH244200   6.653   1.340   2.612 -0.0283  0.0131 -0.4044
 7570TIP3    H144201   6.739   1.298   2.621 -0.9307 -1.9297 -0.2254
 7570TIP3    H244202   6.634   1.376   2.698  0.5859  0.4414 -0.4414
 7571TIP3   OH244203   6.429   1.516  12.560 -0.0673 -0.7391 -0.4655
 7571TIP3    H144204   6.351   1.566  12.585 -0.3212 -0.2096 -2.1714
 7571TIP3    H244205   6.420   1.503  12.465  0.8461 -2.5731 -0.3387
 7572TIP3   OH244206   0.420   0.579   1.371 -0.1052  0.4424 -0.5258
 7572TIP3    H144207   0.359   0.524   1.322  0.8516  0.7508 -2.1775
 7572TIP3    H244208   0.400   0.668   1.341 -0.0443  0.7332  0.2890
 7573TIP3   OH244209   3.789   2.160   6.614 -0.3392  0.4824 -0.4528
 7573TIP3    H144210   3.758   2.073   6.638  0.9461  0.3588  0.9207
 7573TIP3    H244211   3.843   2.188   6.689  0.0380  2.0664 -1.2660
 7574TIP3   OH244212   6.592   2.558  15.183 -0.2837 -0.2544 -0.1442
 7574TIP3    H144213   6.635   2.591  15.261 -0.5613 -3.6826  1.6510
 7574TIP3    H244214   6.600   2.629  15.119  1.9694  1.8363  2.2293
 7575TIP3   OH244215   1.136   1.909  16.732  0.5122  0.3800  0.1871
 7575TIP3    H144216   1.163   1.988  16.685 -2.8354  1.7437  0.2549
 7575TIP3    H244217   1.124   1.843  16.663 -0.1002  1.0442 -0.3621
 7576TIP3   OH244218   0.909   0.820  14.350  0.0910 -0.7260  0.3487
 7576TIP3    H144219   0.827   0.806  14.303  0.7027 -1.0572 -0.6334
 7576TIP3    H244220   0.957   0.737  14.341  1.5593  0.2211 -1.1710
 7577TIP3   OH244221   4.773   6.013   1.426  0.4372  0.4633 -0.4837
 7577TIP3    H144222   4.850   5.971   1.389  1.5866  1.5349  0.6232
 7577TIP3    H244223   4.744   5.955   1.496  0.6742  0.4059 -0.4332
 7578TIP3   OH244224   2.312   0.653   0.052  0.5220  0.5121 -0.7858
 7578TIP3    H144225   2.386   0.594   0.062  0.3443  0.3793 -0.2174
 7578TIP3    H244226   2.267   0.650   0.136  1.4158  2.6999 -0.1505
 7579TIP3   OH244227   5.118   1.599  11.883  0.7935 -0.2781 -0.3555
 7579TIP3    H144228   5.148   1.522  11.930  0.2952 -0.6250 -0.5930
 7579TIP3    H244229   5.192   1.660  11.886  1.6973 -1.2876 -1.3337
 7580TIP3   OH244230   5.195   2.207  14.952 -0.1714  0.6170  0.5116
 7580TIP3    H144231   5.248   2.187  14.875 -1.6943 -1.0312 -0.1768
 7580TIP3    H244232   5.153   2.291  14.931 -0.7297  0.0851 -0.5785
 7581TIP3   OH244233   4.590   5.215   6.169  0.4390 -0.1040  0.4693
 7581TIP3    H144234   4.622   5.296   6.207 -0.4575 -0.0026  1.0285
 7581TIP3    H244235   4.565   5.238   6.079 -2.8286  1.0616  1.5451
 7582TIP3   OH244236   3.991   0.682   2.655  0.2893 -0.0526  0.3619
 7582TIP3    H144237   4.011   0.775   2.642 -2.3121  0.9237  2.3933
 7582TIP3    H244238   3.942   0.657   2.576  1.0958  0.2391 -0.2483
 7583TIP3   OH244239   0.860   6.632  14.447  0.1036  0.3357  0.3006
 7583TIP3    H144240   0.943   6.677  14.462  1.5111 -2.0140  0.0805
 7583TIP3    H244241   0.813   6.639  14.530  1.2787  0.2374  0.9969
 7584TIP3   OH244242   2.087   0.087  15.715 -0.3591 -0.4626  0.1045
 7584TIP3    H144243   2.147   0.113  15.646  1.3557 -1.0086  1.3249
 7584TIP3    H244244   2.049   0.005  15.684  0.8655 -1.0336  0.0376
 7585TIP3   OH244245   6.626   3.103   1.770 -0.0478  0.0993  0.7302
 7585TIP3    H144246   6.533   3.116   1.789 -0.2876 -0.3948 -0.0527
 7585TIP3    H244247   6.627   3.039   1.699  0.9325 -0.6946  1.4410
 7586TIP3   OH244248   5.359   2.825  12.492  0.7279  0.0851  0.3055
 7586TIP3    H144249   5.311   2.819  12.409  0.6242  0.6767  0.3191
 7586TIP3    H244250   5.449   2.846  12.467  0.2615  2.4485  0.4082
 7587TIP3   OH244251   4.198   1.339   4.078 -0.4970  0.9534  0.1775
 7587TIP3    H144252   4.168   1.258   4.120 -0.1804  0.3667 -0.6942
 7587TIP3    H244253   4.289   1.347   4.106 -0.0025  0.0737 -1.0505
 7588TIP3   OH244254   6.649   6.309   1.105  0.0118 -0.2482 -0.0777
 7588TIP3    H144255   6.566   6.296   1.059  0.3464  1.5814 -1.3220
 7588TIP3    H244256   6.715   6.310   1.035  0.7756  0.7531  0.6261
 7589TIP3   OH244257   5.778   6.834  11.591  0.0052 -0.2787 -0.5630
 7589TIP3    H144258   5.748   6.848  11.501 -0.4769  0.7933 -0.2446
 7589TIP3    H244259   5.701   6.801  11.637  0.2512 -0.8255 -0.5304
 7590TIP3   OH244260   3.472   5.740  10.933 -0.0238 -0.7793 -1.0949
 7590TIP3    H144261   3.517   5.656  10.922 -0.0400 -0.8090 -0.9323
 7590TIP3    H244262   3.529   5.804  10.890 -0.3943 -0.9862 -1.9208
 7591TIP3   OH244263   0.947   4.316  13.490  0.2480  0.1308 -0.0217
 7591TIP3    H144264   0.937   4.362  13.406 -1.4971  1.1742  0.6849
 7591TIP3    H244265   1.041   4.309  13.502  0.5474  0.6860 -1.6886
 7592TIP3   OH244266   1.483   0.125   5.088  0.1622 -0.3688  0.3651
 7592TIP3    H144267   1.550   0.119   5.020  0.8961  1.1390  0.9188
 7592TIP3    H244268   1.484   0.038   5.129 -0.7322 -1.5367 -1.8686
 7593TIP3   OH244269   0.583   1.665  13.758  0.6521 -0.0276  0.0899
 7593TIP3    H144270   0.551   1.701  13.675 -0.2097 -0.9579  0.0072
 7593TIP3    H244271   0.519   1.598  13.782  1.8214 -0.9936  0.6135
 7594TIP3   OH244272   4.780   3.461  15.881 -0.1325 -0.2175 -0.4098
 7594TIP3    H144273   4.801   3.529  15.817 -0.7715 -0.6965 -1.1361
 7594TIP3    H244274   4.700   3.492  15.923  0.8371  0.6036  0.9163
 7595TIP3   OH244275   1.035   3.578  15.612 -0.3882  0.6888  0.1778
 7595TIP3    H144276   1.051   3.585  15.706  2.6536  3.4455 -0.3550
 7595TIP3    H244277   1.107   3.523  15.580  0.3559  2.1438 -0.7842
 7596TIP3   OH244278   2.966   2.796  13.701  0.0815  1.1250 -0.4740
 7596TIP3    H144279   3.004   2.710  13.721 -0.7554  0.7151 -0.5991
 7596TIP3    H244280   2.986   2.811  13.609 -2.7199 -0.5648 -1.4997
 7597TIP3   OH244281   3.585   2.559  15.845  0.3173 -0.0909 -0.8807
 7597TIP3    H144282   3.643   2.587  15.774 -0.2592 -0.8611 -1.6908
 7597TIP3    H244283   3.521   2.502  15.802 -0.1376 -0.4626  0.2438
 7598TIP3   OH244284   4.214   3.316   2.046  0.0296  0.8096  0.3828
 7598TIP3    H144285   4.236   3.254   1.976 -1.1806  0.6406  0.1303
 7598TIP3    H244286   4.299   3.347   2.077  0.7489 -1.7678  1.2649
 7599TIP3   OH244287   0.316   6.088   5.915  0.7340  0.0870 -0.0855
 7599TIP3    H144288   0.288   6.153   5.980 -0.5764 -1.5066  1.0184
 7599TIP3    H244289   0.346   6.014   5.966  6.8909  1.3272 -1.1262
 7600TIP3   OH244290   0.282   6.081  12.512  0.3864  0.2649  0.4148
 7600TIP3    H144291   0.216   6.145  12.539 -1.3614 -1.8701  1.5939
 7600TIP3    H244292   0.325   6.055  12.594 -1.9483 -3.1010  0.7924
 7601TIP3   OH244293   1.664   2.050  16.310 -0.9853 -0.2712 -0.2431
 7601TIP3    H144294   1.701   2.102  16.239  2.1219 -0.9690  0.7028
 7601TIP3    H244295   1.657   2.112  16.383  1.2469 -0.7033  0.4238
 7602TIP3   OH244296   5.556   1.596  13.516  0.1448 -0.0180 -0.3796
 7602TIP3    H144297   5.472   1.553  13.504 -0.4433  1.2951 -1.1766
 7602TIP3    H244298   5.605   1.577  13.436 -1.0103  2.6445 -1.8484
 7603TIP3   OH244299   6.789   4.194   0.504  0.2125 -0.6781 -0.1469
 7603TIP3    H144300   6.868   4.225   0.461 -0.4395  0.1237 -0.8039
 7603TIP3    H244301   6.726   4.180   0.433 -0.0689 -1.8484  0.3079
 7604TIP3   OH244302   6.821   6.021   0.901  0.0786  0.0479 -0.1318
 7604TIP3    H144303   6.747   6.076   0.873 -1.0984 -1.7590 -0.8172
 7604TIP3    H244304   6.897   6.061   0.859 -1.1996 -0.7596 -3.5730
 7605TIP3   OH244305   3.366   2.661   3.894 -0.5289  0.2296  0.0983
 7605TIP3    H144306   3.407   2.590   3.844  0.5791  0.1157  1.1160
 7605TIP3    H244307   3.369   2.737   3.836  2.4398  0.5932  0.5946
 7606TIP3   OH244308   4.633   4.665  13.146  0.3229  0.8127  0.0667
 7606TIP3    H144309   4.562   4.696  13.202 -0.4750 -1.2253  0.2760
 7606TIP3    H244310   4.603   4.580  13.113  2.7561 -0.2815  0.3929
 7607TIP3   OH244311   5.085   6.142  12.919 -0.3119 -0.2058 -0.2392
 7607TIP3    H144312   5.133   6.064  12.893  1.4982  1.4228 -2.1581
 7607TIP3    H244313   5.149   6.195  12.966 -0.4578  1.5455 -1.8896
 7608TIP3   OH244314   0.543   4.899   5.436 -0.3110  0.5240 -0.5063
 7608TIP3    H144315   0.549   4.809   5.405  0.9665  0.8079 -1.1344
 7608TIP3    H244316   0.481   4.895   5.509 -0.7573 -0.7413 -0.9286
 7609TIP3   OH244317   0.675   6.250  15.523 -0.4418 -0.2011 -0.3503
 7609TIP3    H144318   0.769   6.243  15.509 -0.0388  1.1801  1.3018
 7609TIP3    H244319   0.637   6.251  15.435  1.3548  2.0661 -1.1959
 7610TIP3   OH244320   6.555   3.108  12.074  0.1828 -0.4457 -0.6280
 7610TIP3    H144321   6.506   3.026  12.077 -1.0451  0.2754 -0.3976
 7610TIP3    H244322   6.532   3.146  11.989 -1.7893  1.1317  0.5210
 7611TIP3   OH244323   5.734   5.798  13.553 -0.2693  0.2141  0.4062
 7611TIP3    H144324   5.726   5.719  13.606 -0.9008 -0.3956 -0.5614
 7611TIP3    H244325   5.796   5.853  13.601  0.0237 -0.7776  1.2014
 7612TIP3   OH244326   4.641   0.315  16.236 -0.8211  0.2318  0.3473
 7612TIP3    H144327   4.702   0.383  16.262 -0.5489  0.1022  0.0581
 7612TIP3    H244328   4.640   0.254  16.309  1.4884 -1.2007 -0.7148
 7613TIP3   OH244329   1.921   2.712   4.664  0.3443  0.1512 -0.8512
 7613TIP3    H144330   1.999   2.659   4.648  0.2342 -0.7571  1.2898
 7613TIP3    H244331   1.855   2.649   4.694 -0.2988  1.2642  0.1810
 7614TIP3   OH244332   6.099   3.967   1.396  0.0628 -0.1988 -0.2842
 7614TIP3    H144333   6.166   3.985   1.331 -0.2409 -1.1697 -0.9049
 7614TIP3    H244334   6.140   3.905   1.457  0.2202  0.4060  0.2329
 7615TIP3   OH244335   1.443   2.079   4.745  0.3985  0.1863 -0.0581
 7615TIP3    H144336   1.383   2.085   4.819  1.1191 -1.6457  0.7248
 7615TIP3    H244337   1.427   1.993   4.707  1.7897  0.0699 -0.4536
 7616TIP3   OH244338   6.687   5.186  13.194 -0.2070  0.1992  0.5406
 7616TIP3    H144339   6.639   5.209  13.115 -0.7012 -0.8485  0.5321
 7616TIP3    H244340   6.754   5.124  13.165  0.5276  0.8747  0.7238
 7617TIP3   OH244341   4.753   0.257  17.026  0.2540 -0.0852 -0.6016
 7617TIP3    H144342   4.750   0.166  17.055  2.2343 -0.2596 -0.8016
 7617TIP3    H244343   4.707   0.306  17.095  0.9168 -1.0102  0.5400
 7618TIP3   OH244344   3.800   6.351  12.236 -0.7723  0.4044 -0.3184
 7618TIP3    H144345   3.733   6.294  12.275  0.4869 -3.4029 -3.0864
 7618TIP3    H244346   3.750   6.422  12.195 -2.8199 -0.4937  0.4488
 7619TIP3   OH244347   5.695   2.966  14.120  0.1302 -1.1387 -0.3074
 7619TIP3    H144348   5.634   2.893  14.129 -0.1881 -0.9516 -0.9149
 7619TIP3    H244349   5.715   2.992  14.211 -0.8449 -1.0757 -0.0944
 7620TIP3   OH244350   1.247   4.753   5.534  0.1680  0.3049 -0.2185
 7620TIP3    H144351   1.235   4.670   5.488  0.2653  1.1149 -1.7643
 7620TIP3    H244352   1.339   4.752   5.561  0.3576  0.1883 -0.8354
 7621TIP3   OH244353   2.695   3.344   1.669 -0.5448  0.2025  0.3185
 7621TIP3    H144354   2.715   3.250   1.672 -0.9635  0.0570 -0.8464
 7621TIP3    H244355   2.770   3.383   1.624  0.3432  0.6643  2.1316
 7622TIP3   OH244356   3.350   1.932  15.308  0.7977 -0.7054  0.9140
 7622TIP3    H144357   3.370   1.984  15.230 -0.1155 -0.9698  0.4908
 7622TIP3    H244358   3.256   1.940  15.319  0.4842 -2.8768  0.3504
 7623TIP3   OH244359   1.327   0.452   0.070  0.1063 -1.0882  0.3021
 7623TIP3    H144360   1.264   0.451   0.142 -1.9507 -0.1900 -1.3462
 7623TIP3    H244361   1.400   0.505   0.102 -0.6339 -0.9408  1.8180
 7624TIP3   OH244362   5.568   1.716   4.102  0.2449  0.1004  0.2406
 7624TIP3    H144363   5.543   1.719   4.010  0.1190  1.2063  0.3044
 7624TIP3    H244364   5.551   1.625   4.128 -0.2492 -0.0819 -0.6726
 7625TIP3   OH244365   4.718   1.916  14.369 -0.6486  0.7728  0.3841
 7625TIP3    H144366   4.778   1.930  14.442 -0.5171  0.1652  0.4026
 7625TIP3    H244367   4.653   1.854  14.402  0.2251 -0.6305 -0.4365
 7626TIP3   OH244368   1.365   4.986   4.929  0.2091  0.5847 -0.0942
 7626TIP3    H144369   1.356   5.018   4.839 -1.1712  0.5694  0.0200
 7626TIP3    H244370   1.305   4.911   4.934  0.2220  0.6265  0.8516
 7627TIP3   OH244371   3.989   1.713   2.161  0.2319  0.8854 -0.4953
 7627TIP3    H144372   4.047   1.642   2.134  0.4291  0.9266 -0.1850
 7627TIP3    H244373   4.042   1.792   2.154 -0.4773  1.2465 -2.4722
 7628TIP3   OH244374   2.516   5.704   5.290  0.1164  0.0263 -0.0690
 7628TIP3    H144375   2.604   5.678   5.316  0.9638  1.0744 -1.7278
 7628TIP3    H244376   2.458   5.657   5.350  1.7239 -1.8126  0.1257
 7629TIP3   OH244377   4.241   3.239   1.551 -0.6346  0.2674 -0.6642
 7629TIP3    H144378   4.166   3.272   1.501  0.3360 -0.7150 -2.9040
 7629TIP3    H244379   4.316   3.289   1.517  0.2395 -1.3329 -1.1685
 7630TIP3   OH244380   2.180   1.693  16.004 -0.3550 -0.4408  0.1536
 7630TIP3    H144381   2.089   1.698  15.973 -0.1356 -1.9760 -0.8536
 7630TIP3    H244382   2.182   1.615  16.059  0.0550  0.3958  1.3689
 7631TIP3   OH244383   5.488   6.074  15.575 -0.1054  0.2144 -0.6518
 7631TIP3    H144384   5.520   6.087  15.664 -0.5046  1.2449 -0.6474
 7631TIP3    H244385   5.452   6.159  15.549 -1.9014 -0.6076 -1.0345
 7632TIP3   OH244386   1.085   2.688  16.705 -0.4204  0.0149  0.7768
 7632TIP3    H144387   1.038   2.624  16.757 -1.7042  0.5764  0.3419
 7632TIP3    H244388   1.103   2.760  16.766 -0.6017  0.0273  0.8171
 7633TIP3   OH244389   0.565   4.378   3.650 -0.0362  0.5706  0.0781
 7633TIP3    H144390   0.658   4.392   3.632  0.1897 -0.0659  0.7027
 7633TIP3    H244391   0.558   4.285   3.671 -0.7554  0.6888  0.4000
 7634TIP3   OH244392   0.821   5.737   2.909 -0.6050 -0.0455 -0.1648
 7634TIP3    H144393   0.915   5.737   2.928 -0.6262  1.7781  0.1690
 7634TIP3    H244394   0.792   5.649   2.930  0.8430 -0.3253  0.8028
 7635TIP3   OH244395   2.829   0.839  12.644 -0.3360  0.0725  0.1934
 7635TIP3    H144396   2.817   0.771  12.578 -0.7265 -0.1702  0.5023
 7635TIP3    H244397   2.848   0.791  12.725 -0.8071  0.3164  0.4567
 7636TIP3   OH244398   5.763   4.406   3.651  0.8799  0.4992 -0.3637
 7636TIP3    H144399   5.727   4.475   3.595 -1.3737  0.6201  1.1376
 7636TIP3    H244400   5.800   4.343   3.589 -1.5106  0.6322 -2.0362
 7637TIP3   OH244401   2.978   6.215   5.329 -0.1914 -0.3719 -0.0212
 7637TIP3    H144402   3.038   6.281   5.294 -0.4804  0.9164  1.7637
 7637TIP3    H244403   2.895   6.232   5.285 -0.1283  0.1401  0.0512
 7638TIP3   OH244404   3.363   3.488  16.518 -0.3426  0.3491  0.3752
 7638TIP3    H144405   3.424   3.432  16.567  1.4233 -0.9699 -2.9935
 7638TIP3    H244406   3.373   3.575  16.558  3.3988  0.0579  0.4203
 7639TIP3   OH244407   3.028   1.047   3.972 -0.8962  0.9947 -0.0060
 7639TIP3    H144408   3.093   1.117   3.964 -0.8926  1.1254  1.0382
 7639TIP3    H244409   3.079   0.970   3.995 -1.0515  0.9631  0.2331
 7640TIP3   OH244410   0.815   5.931   4.645 -0.1048  0.2341  0.1530
 7640TIP3    H144411   0.852   5.898   4.727 -1.2802 -0.2964  0.4916
 7640TIP3    H244412   0.805   6.025   4.659 -0.4349  0.1239  0.6841
 7641TIP3   OH244413   1.651   3.585  11.807  0.2862 -0.0006  0.0892
 7641TIP3    H144414   1.683   3.657  11.861  1.4456  0.5084 -1.2188
 7641TIP3    H244415   1.628   3.516  11.869  1.1311  0.7352  1.2474
 7642TIP3   OH244416   2.855   4.518  14.790  0.1404 -0.0402  0.5193
 7642TIP3    H144417   2.929   4.548  14.843  0.2365  0.4931  0.0950
 7642TIP3    H244418   2.825   4.597  14.744 -0.9641 -0.1633  1.0063
 7643TIP3   OH244419   6.663   0.452  13.265 -0.2575 -0.0170 -0.4528
 7643TIP3    H144420   6.733   0.391  13.240  2.3955  0.8816  3.7271
 7643TIP3    H244421   6.586   0.396  13.279  0.8193 -1.7165 -1.0225
 7644TIP3   OH244422   3.684   3.000   2.533  0.2622  0.4734  0.0537
 7644TIP3    H144423   3.715   2.910   2.524 -0.7567 -0.0255  1.2126
 7644TIP3    H244424   3.623   2.997   2.607  0.3500  2.1546  0.2379
 7645TIP3   OH244425   4.636   5.182  15.843 -0.2691 -0.5006 -0.4169
 7645TIP3    H144426   4.606   5.092  15.834 -1.2805 -0.1579 -0.5823
 7645TIP3    H244427   4.731   5.175  15.848 -0.2588 -1.4920 -1.5339
 7646TIP3   OH244428   4.444   1.635  10.610 -0.6155  0.0074  0.3732
 7646TIP3    H144429   4.372   1.581  10.644  0.9348 -2.1055  0.4865
 7646TIP3    H244430   4.522   1.580  10.619  0.9014  1.8907 -0.5428
 7647TIP3   OH244431   5.149   5.191   5.687 -0.3141 -0.0614 -0.3697
 7647TIP3    H144432   5.176   5.230   5.604 -3.4907  1.5082 -0.8168
 7647TIP3    H244433   5.160   5.262   5.751 -1.4644 -0.0086 -0.2170
 7648TIP3   OH244434   4.111   6.801  13.264 -0.2505 -0.3474 -0.0396
 7648TIP3    H144435   4.033   6.760  13.303 -0.9412  0.1545 -0.8454
 7648TIP3    H244436   4.103   6.894  13.286 -0.1999 -0.1997 -0.6201
 7649TIP3   OH244437   4.203   4.694  12.356 -0.4068 -0.4305  0.4456
 7649TIP3    H144438   4.158   4.714  12.438  0.1129  0.8025  0.4385
 7649TIP3    H244439   4.133   4.663  12.298 -1.3372  1.7154  0.3435
 7650TIP3   OH244440   5.877   5.907  12.288  1.0418  0.4059  0.6902
 7650TIP3    H144441   5.936   5.848  12.242  2.2097  0.4924  1.9926
 7650TIP3    H244442   5.915   5.994  12.274 -1.5940  1.2100 -2.6617
 7651TIP3   OH244443   4.991   0.314   5.734 -0.1959  0.6128 -0.8083
 7651TIP3    H144444   5.064   0.355   5.688  0.7366  0.7041  0.6794
 7651TIP3    H244445   5.032   0.255   5.797 -1.4409 -0.1757 -0.6947
 7652TIP3   OH244446   0.271   4.995  17.002  0.9970  0.0947  0.3131
 7652TIP3    H144447   0.233   4.907  17.012  1.9887 -0.5879 -1.3847
 7652TIP3    H244448   0.225   5.049  17.066 -1.4506 -1.0948 -0.3310
 7653TIP3   OH244449   1.420   3.233  11.787  0.0536 -0.2632 -0.2117
 7653TIP3    H144450   1.324   3.232  11.789 -0.1448  2.4575 -2.3490
 7653TIP3    H244451   1.443   3.302  11.849  0.6087 -0.5720 -0.0747
 7654TIP3   OH244452   1.033   4.611  13.591 -0.1123  0.0595  0.0529
 7654TIP3    H144453   1.086   4.544  13.548 -1.6662 -0.2388 -1.5206
 7654TIP3    H244454   1.012   4.673  13.521  0.1958  1.4939  1.1891
 7655TIP3   OH244455   0.527   5.007  15.994  0.6847  0.5604  0.4874
 7655TIP3    H144456   0.478   5.035  16.071  3.1184 -0.0282  2.3704
 7655TIP3    H244457   0.530   5.084  15.938 -1.2601  0.9621  0.8640
 7656TIP3   OH244458   6.070   4.001   2.521 -0.7608  0.2162  0.2797
 7656TIP3    H144459   6.141   3.944   2.492  0.4959  1.4483  0.8067
 7656TIP3    H244460   5.994   3.943   2.528  0.3370 -1.2850  0.3436
 7657TIP3   OH244461   5.688   2.119  11.547 -0.4835 -0.7981  0.1791
 7657TIP3    H144462   5.672   2.084  11.635  1.4774  0.1155  0.9769
 7657TIP3    H244463   5.610   2.096  11.497 -1.2397 -2.1948  1.8915
 7658TIP3   OH244464   4.294   5.584  15.807 -0.3387  0.1495  0.2286
 7658TIP3    H144465   4.368   5.541  15.848 -2.0080 -1.0683  2.1450
 7658TIP3    H244466   4.239   5.513  15.775 -1.9198  0.8966  1.1738
 7659TIP3   OH244467   1.385   5.960   2.771 -0.0094  0.3656  0.5759
 7659TIP3    H144468   1.366   6.028   2.706 -1.5684 -0.6024 -0.0504
 7659TIP3    H244469   1.338   5.988   2.849  0.3337  0.5990  0.7001
 7660TIP3   OH244470   1.440   5.566  12.502  0.5295  0.4384  0.1419
 7660TIP3    H144471   1.413   5.526  12.585  0.3996  1.7700  0.7684
 7660TIP3    H244472   1.390   5.520  12.435  0.0649 -0.1488  0.8791
 7661TIP3   OH244473   0.431   6.244  16.282 -0.5959 -0.9047  0.9577
 7661TIP3    H144474   0.365   6.276  16.221  0.1851 -0.2257  0.4351
 7661TIP3    H244475   0.497   6.314  16.285  0.9579 -2.2516  0.1194
 7662TIP3   OH244476   6.207   6.452  14.308  0.4337 -0.1091 -0.0042
 7662TIP3    H144477   6.275   6.389  14.284  0.7856  0.7969 -1.5230
 7662TIP3    H244478   6.239   6.536  14.275 -1.2366  0.4066 -0.4006
 7663TIP3   OH244479   1.678   3.968  14.543  0.1277 -0.0592  0.1800
 7663TIP3    H144480   1.591   3.938  14.569  0.5888 -0.0624  1.8377
 7663TIP3    H244481   1.672   4.063  14.548  0.3192 -0.0721  0.6009
 7664TIP3   OH244482   0.636   4.123   6.854  0.5924  0.2002  0.7538
 7664TIP3    H144483   0.722   4.164   6.866 -0.1452  1.9170  0.5606
 7664TIP3    H244484   0.647   4.034   6.887  2.1110  0.7527  1.8839
 7665TIP3   OH244485   5.374   1.580  12.794  0.3725  0.2377 -0.2693
 7665TIP3    H144486   5.329   1.505  12.755  1.6439 -0.3496 -0.6423
 7665TIP3    H244487   5.313   1.612  12.861 -0.3532 -0.8867 -0.3688
 7666TIP3   OH244488   2.433   4.463  16.104  0.4731  0.1020 -0.5853
 7666TIP3    H144489   2.341   4.488  16.102  0.6090  0.5897 -2.2525
 7666TIP3    H244490   2.443   4.414  16.186 -0.2358  3.7837  1.9501
 7667TIP3   OH244491   2.826   3.502   0.298  0.0959 -0.2085 -0.1889
 7667TIP3    H144492   2.893   3.442   0.265  1.2025  0.6930  0.3388
 7667TIP3    H244493   2.744   3.467   0.265  1.0266  0.0500 -3.0558
 7668TIP3   OH244494   6.027   4.143   2.217  0.3901  0.6759  0.5058
 7668TIP3    H144495   5.999   4.131   2.308  2.3860 -1.1828  0.9548
 7668TIP3    H244496   5.967   4.087   2.167  3.2154 -3.7393  1.5141
 7669TIP3   OH244497   6.439   0.540  17.067  0.4646 -0.3844 -0.5756
 7669TIP3    H144498   6.516   0.593  17.091  0.3312  0.0714 -1.1152
 7669TIP3    H244499   6.364   0.597  17.085  0.2701 -0.7249 -0.3137
 7670TIP3   OH244500   5.534   2.187   3.209  0.0025 -0.7971 -0.2441
 7670TIP3    H144501   5.553   2.279   3.191  0.3048 -0.6839  0.6234
 7670TIP3    H244502   5.596   2.138   3.154 -0.3022 -0.4962 -0.8659
 7671TIP3   OH244503   2.421   2.881   1.236 -0.0768  0.2664  0.4417
 7671TIP3    H144504   2.418   2.835   1.152  1.9157  0.4849  0.1909
 7671TIP3    H244505   2.406   2.812   1.301  0.5517 -0.3323 -0.0265
 7672TIP3   OH244506   2.075   3.003   1.267 -0.0307  0.3450 -0.3473
 7672TIP3    H144507   2.102   3.060   1.195  0.7519  1.2402  0.6107
 7672TIP3    H244508   1.996   3.045   1.302 -1.4320 -1.0295 -1.7234
 7673TIP3   OH244509   4.647   0.701   2.085 -0.1207 -0.4152 -0.7802
 7673TIP3    H144510   4.615   0.632   2.144 -0.9939 -0.2783 -1.0869
 7673TIP3    H244511   4.729   0.729   2.126 -1.7010  1.1467  1.5998
 7674TIP3   OH244512   2.621   0.469   2.200 -0.4645 -0.5455 -0.5242
 7674TIP3    H144513   2.694   0.531   2.205  1.1708 -2.4236  0.2215
 7674TIP3    H244514   2.620   0.441   2.109 -0.3208 -0.4264 -0.5634
 7675TIP3   OH244515   5.377   1.539  16.555 -0.1011 -0.2283  0.0059
 7675TIP3    H144516   5.381   1.622  16.506  0.2483 -0.2513 -0.0071
 7675TIP3    H244517   5.290   1.504  16.534 -0.9330  0.9209  1.3137
 7676TIP3   OH244518   4.986   1.578   5.484  0.3813  0.3324 -0.4256
 7676TIP3    H144519   5.039   1.511   5.528  0.0753  0.1809 -0.2821
 7676TIP3    H244520   4.896   1.557   5.509  0.2660  0.6767 -0.5478
 7677TIP3   OH244521   0.657   4.143   2.900  0.1181  0.1099 -0.3924
 7677TIP3    H144522   0.647   4.102   2.814 -0.5098 -2.9696  1.0166
 7677TIP3    H244523   0.580   4.115   2.950 -0.3699  3.1338  0.7809
 7678TIP3   OH244524   2.407   2.884  14.526 -0.3263  0.2269  0.2783
 7678TIP3    H144525   2.322   2.863  14.563 -0.0988  1.2992  1.4709
 7678TIP3    H244526   2.457   2.922  14.598  1.6956 -1.6905  0.0130
 7679TIP3   OH244527   1.127   5.929  12.339 -0.2017  0.0332  0.2105
 7679TIP3    H144528   1.054   5.924  12.277  0.5180 -0.0219 -0.6444
 7679TIP3    H244529   1.141   5.838  12.366 -1.9647  0.2738  2.2202
 7680TIP3   OH244530   5.784   4.238  16.253 -0.2895 -0.0555 -0.4945
 7680TIP3    H144531   5.866   4.224  16.300  0.1444 -0.7897 -1.4489
 7680TIP3    H244532   5.716   4.214  16.317  0.0819  2.5794  1.0606
 7681TIP3   OH244533   1.217   3.543  13.291 -0.2055 -0.0841 -0.4826
 7681TIP3    H144534   1.225   3.514  13.200 -0.4741 -0.8406 -0.2663
 7681TIP3    H244535   1.248   3.634  13.290  0.2629 -0.2460 -1.2393
 7682TIP3   OH244536   0.673   5.855   5.179  0.0771  0.2929  0.4330
 7682TIP3    H144537   0.598   5.880   5.124  0.5724 -0.4577 -0.6125
 7682TIP3    H244538   0.659   5.762   5.197  0.5492  0.2419  0.5487
 7683TIP3   OH244539   4.494   6.675   5.132  0.2188  0.3725 -0.8647
 7683TIP3    H144540   4.448   6.619   5.195  1.7022  0.8172  0.7074
 7683TIP3    H244541   4.480   6.764   5.164  1.4574  0.5702 -0.8152
 7684TIP3   OH244542   4.043   6.442   5.685 -0.2105  0.4279 -0.2296
 7684TIP3    H144543   3.967   6.493   5.657 -0.9592  1.3629  3.0057
 7684TIP3    H244544   4.008   6.354   5.699 -0.8098  0.8530  1.2381
 7685TIP3   OH244545   5.873   4.066   0.921 -0.6806 -0.1184 -0.2991
 7685TIP3    H144546   5.938   4.065   0.850 -0.9738 -3.7436 -0.6732
 7685TIP3    H244547   5.919   4.028   0.996 -1.6823 -0.5678  0.1038
 7686TIP3   OH244548   2.609   2.168   4.466 -0.3337  0.3926  0.0202
 7686TIP3    H144549   2.619   2.247   4.519 -0.5384  1.2447 -1.1635
 7686TIP3    H244550   2.527   2.128   4.497 -0.7955  1.2341 -0.0905
 7687TIP3   OH244551   2.518   0.239  15.187  0.0227  0.8540 -0.3004
 7687TIP3    H144552   2.430   0.225  15.223  0.9951 -2.2038  1.2415
 7687TIP3    H244553   2.527   0.173  15.119  1.4924  0.3545  0.3440
 7688TIP3   OH244554   1.960   1.821  12.828 -0.0798 -0.2504 -0.4489
 7688TIP3    H144555   1.961   1.860  12.741  1.4232  0.2826 -0.2179
 7688TIP3    H244556   1.890   1.867  12.874 -2.5522 -2.1630 -2.0319
 7689TIP3   OH244557   6.629   6.338  16.279 -0.1792  0.1824 -0.2802
 7689TIP3    H144558   6.563   6.318  16.344 -2.1766  1.4059 -1.8151
 7689TIP3    H244559   6.628   6.434  16.272  1.5843  0.2236 -0.5552
 7690TIP3   OH244560   2.937   0.068   2.409 -0.7340  0.7817 -0.0409
 7690TIP3    H144561   3.003   0.133   2.387  0.7962 -0.4329  0.8116
 7690TIP3    H244562   2.929   0.014   2.331 -0.5875  0.8097 -0.0750
 7691TIP3   OH244563   3.964   4.412   4.516 -0.8946 -0.2392 -0.3209
 7691TIP3    H144564   3.943   4.366   4.598 -1.1545 -1.1023 -0.8518
 7691TIP3    H244565   3.942   4.349   4.447  0.4392  0.0223 -1.0235
 7692TIP3   OH244566   0.263   5.139  11.401  0.4091 -0.1267  0.2332
 7692TIP3    H144567   0.253   5.212  11.339 -1.3034  0.5343  1.2059
 7692TIP3    H244568   0.245   5.061  11.348  1.5398  0.1819 -0.6597
 7693TIP3   OH244569   2.736   1.340  12.599  0.2026  0.5535  0.5702
 7693TIP3    H144570   2.796   1.269  12.576 -0.6748  0.4268 -1.6497
 7693TIP3    H244571   2.786   1.396  12.657  2.0461 -0.1856 -0.2284
 7694TIP3   OH244572   2.200   5.502   2.164 -0.0306 -0.0289 -1.0365
 7694TIP3    H144573   2.292   5.496   2.187  0.1112  0.1634 -1.5405
 7694TIP3    H244574   2.160   5.426   2.206 -0.0062  0.9536  0.8369
 7695TIP3   OH244575   5.256   1.689  14.598 -0.9765  0.5046 -0.8883
 7695TIP3    H144576   5.246   1.600  14.564 -0.8049 -0.0917  0.5636
 7695TIP3    H244577   5.248   1.680  14.693  0.0768  1.8827 -0.6309
 7696TIP3   OH244578   0.076   6.600   5.744 -0.0515  0.0360 -0.1076
 7696TIP3    H144579   0.033   6.545   5.810 -0.8755  1.6938  0.8329
 7696TIP3    H244580   0.006   6.624   5.683  0.0780  0.7348  0.0041
 7697TIP3   OH244581   3.873   0.725  12.161  0.5074  0.5560  0.4260
 7697TIP3    H144582   3.902   0.652  12.214 -0.7721  0.0164  0.4325
 7697TIP3    H244583   3.953   0.769  12.134  1.4012 -1.6453 -0.7361
 7698TIP3   OH244584   3.359   5.865   1.504  0.3331 -0.3952 -0.0087
 7698TIP3    H144585   3.300   5.939   1.520 -0.0042 -0.6383 -0.1249
 7698TIP3    H244586   3.408   5.856   1.587  1.4392  0.8857 -0.4725
 7699TIP3   OH244587   5.356   5.596   2.842 -0.7474  0.0657 -0.0474
 7699TIP3    H144588   5.335   5.672   2.788 -1.5732  1.5628  2.1978
 7699TIP3    H244589   5.327   5.521   2.791  1.3273  1.0732 -2.9250
 7700TIP3   OH244590   0.933   3.194  11.581  0.0017  0.2763 -0.0021
 7700TIP3    H144591   0.984   3.171  11.659 -0.9671 -1.2958  0.1947
 7700TIP3    H244592   0.986   3.163  11.508  0.0968  0.1767  0.1089
 7701TIP3   OH244593   5.266   2.106   6.200 -0.1094  0.1364  0.2859
 7701TIP3    H144594   5.255   2.166   6.127  1.1332 -0.4126 -0.3996
 7701TIP3    H244595   5.353   2.127   6.235  0.5291 -1.4984 -0.2300
 7702TIP3   OH244596   4.374   4.126  13.470 -0.5916 -0.4249 -0.0749
 7702TIP3    H144597   4.446   4.064  13.473  0.5448  0.7896 -0.7082
 7702TIP3    H244598   4.340   4.130  13.560  0.1307 -1.0232  0.2274
 7703TIP3   OH244599   6.811   1.578  13.592 -0.7348 -0.2231 -0.3859
 7703TIP3    H144600   6.828   1.660  13.639  1.1306 -0.4259 -0.6120
 7703TIP3    H244601   6.816   1.511  13.660 -1.6438 -0.2123 -0.3017
 7704TIP3   OH244602   1.893   2.691  12.734 -0.2657  0.2872  0.1245
 7704TIP3    H144603   1.971   2.634  12.736 -1.9648 -2.2633 -0.9039
 7704TIP3    H244604   1.878   2.714  12.825 -0.4417 -2.4396  0.8944
 7705TIP3   OH244605   4.400   3.105   3.929 -0.2255 -0.3141  0.0530
 7705TIP3    H144606   4.466   3.149   3.875 -2.5328  0.6401 -2.1843
 7705TIP3    H244607   4.326   3.091   3.870 -0.8327 -4.5521  1.4842
 7706TIP3   OH244608   4.155   2.969  14.735  0.2759  0.1449 -0.0002
 7706TIP3    H144609   4.162   2.974  14.639  2.1898  0.7637  0.1173
 7706TIP3    H244610   4.131   3.058  14.762 -0.3250 -0.0448  0.0957
 7707TIP3   OH244611   5.826   6.539  13.546 -0.0928 -0.1073 -0.1374
 7707TIP3    H144612   5.743   6.555  13.502  0.1701  1.1349 -0.2148
 7707TIP3    H244613   5.818   6.450  13.581 -0.5920 -0.8712 -2.0476
 7708TIP3   OH244614   1.887   0.962   5.324  0.2323 -0.0642 -0.0858
 7708TIP3    H144615   1.953   0.996   5.384 -0.5886  1.8205 -0.1455
 7708TIP3    H244616   1.903   0.868   5.319  0.0981 -0.3903  3.3756
 7709TIP3   OH244617   3.568   0.978   4.593  0.7350  0.6034 -0.4305
 7709TIP3    H144618   3.608   1.030   4.523  2.2976 -0.1974 -0.1772
 7709TIP3    H244619   3.637   0.917   4.620 -0.5824 -0.6548  0.2434
 7710TIP3   OH244620   2.835   6.632  11.579  0.6920 -0.1116  0.5459
 7710TIP3    H144621   2.839   6.552  11.527  2.6218 -0.6176  1.3388
 7710TIP3    H244622   2.749   6.629  11.621  0.4968 -1.4991  0.1242
 7711TIP3   OH244623   3.741   6.565   6.031 -0.4270 -0.6996 -0.2991
 7711TIP3    H144624   3.774   6.484   5.994  0.9738  0.3846 -1.5566
 7711TIP3    H244625   3.803   6.588   6.100  1.0081  0.7980 -1.9697
 7712TIP3   OH244626   0.135   3.481   5.051 -0.4752  0.2420  0.3223
 7712TIP3    H144627   0.127   3.453   4.960 -3.2091 -0.0991  0.6114
 7712TIP3    H244628   0.212   3.434   5.084  0.0070 -0.3370 -1.5280
 7713TIP3   OH244629   3.178   3.454   5.079  0.4105 -0.0039 -0.0553
 7713TIP3    H144630   3.174   3.420   4.990  2.1756  0.3958 -0.3296
 7713TIP3    H244631   3.096   3.502   5.091 -0.6028 -1.4730 -0.8394
 7714TIP3   OH244632   1.593   0.460  13.352 -0.0101 -0.5287 -0.0590
 7714TIP3    H144633   1.521   0.465  13.416 -0.3651  0.0466 -0.4923
 7714TIP3    H244634   1.633   0.547  13.354 -0.0929 -0.4709 -0.6878
 7715TIP3   OH244635   1.636   6.436  11.642 -0.1332  0.3729 -0.2892
 7715TIP3    H144636   1.622   6.369  11.575  2.6610 -1.1734  0.5290
 7715TIP3    H244637   1.728   6.463  11.631 -0.5290  2.4515  0.8834
 7716TIP3   OH244638   0.875   5.784  14.367  0.1510 -0.0605  0.5514
 7716TIP3    H144639   0.900   5.867  14.407 -0.9168  1.1079 -1.0385
 7716TIP3    H244640   0.919   5.718  14.419  3.2702  1.6077  0.2839
 7717TIP3   OH244641   2.096   6.814   4.448  0.1234  0.0362  0.0855
 7717TIP3    H144642   2.173   6.809   4.392  0.3323  0.8478  0.2788
 7717TIP3    H244643   2.029   6.763   4.403  1.0091 -1.3971  0.3250
 7718TIP3   OH244644   4.755   0.888  13.989 -0.0122 -0.3379  0.3458
 7718TIP3    H144645   4.718   0.920  14.071 -0.2344 -1.1322  0.5668
 7718TIP3    H244646   4.843   0.860  14.012 -0.0720 -0.5557  0.3111
 7719TIP3   OH244647   6.646   6.426  14.610  0.0554 -0.3311  0.5861
 7719TIP3    H144648   6.604   6.464  14.688 -1.8835  1.6283 -1.2553
 7719TIP3    H244649   6.730   6.471  14.604 -0.5188  0.7810  0.6387
 7720TIP3   OH244650   2.218   5.700  13.256  0.3964  0.4011 -0.1919
 7720TIP3    H144651   2.233   5.788  13.290 -1.4592  0.3474  0.9224
 7720TIP3    H244652   2.305   5.667  13.234  1.2258  2.1100  0.3795
 7721TIP3   OH244653   4.225   2.731  15.154 -0.6830  0.6398 -0.1543
 7721TIP3    H144654   4.135   2.761  15.147 -0.7328  0.2394 -1.3867
 7721TIP3    H244655   4.277   2.803  15.117 -0.6088  0.3188 -0.6849
 7722TIP3   OH244656   2.385   5.376  11.154  0.0533  0.3346 -0.1878
 7722TIP3    H144657   2.404   5.350  11.244 -2.1147 -0.5643  0.0763
 7722TIP3    H244658   2.335   5.457  11.162 -3.2439 -1.5330 -0.2616
 7723TIP3   OH244659   1.291   1.626  10.774  0.0861 -0.0837 -0.1584
 7723TIP3    H144660   1.285   1.720  10.758  1.2422  0.2097  0.9340
 7723TIP3    H244661   1.224   1.609  10.840  0.6736  0.2143  0.5278
 7724TIP3   OH244662   4.045   1.341  12.255 -0.1947 -0.4094  0.7303
 7724TIP3    H144663   3.970   1.382  12.212  1.0837 -1.4903 -2.9090
 7724TIP3    H244664   4.021   1.248  12.262  0.3773 -0.5835  0.4645
 7725TIP3   OH244665   1.694   5.551   1.545  0.4302  0.2216  0.1213
 7725TIP3    H144666   1.673   5.593   1.461  1.6803 -0.3620 -0.5076
 7725TIP3    H244667   1.616   5.564   1.598 -1.4307 -1.5562 -1.9687
 7726TIP3   OH244668   2.306   0.105   5.680 -0.1207  0.1050  0.3610
 7726TIP3    H144669   2.218   0.080   5.708 -0.7346  2.9308  1.2858
 7726TIP3    H244670   2.364   0.059   5.740 -1.0346 -0.7270  0.6297
 7727TIP3   OH244671   0.942   3.383  13.646 -0.1643 -0.2204 -0.6189
 7727TIP3    H144672   1.037   3.379  13.659 -0.1940  0.2540 -0.1979
 7727TIP3    H244673   0.910   3.297  13.672  0.0770 -0.1581 -0.1131
 7728TIP3   OH244674   4.941   5.293   2.296 -0.4589  0.2176  0.8414
 7728TIP3    H144675   4.902   5.293   2.209  1.3159 -0.4480 -0.0035
 7728TIP3    H244676   4.987   5.376   2.302  2.2757 -1.0833 -0.2970
 7729TIP3   OH244677   3.118   6.674   3.940 -0.1329 -0.1532  0.1526
 7729TIP3    H144678   3.183   6.729   3.895  2.5076 -0.5236  3.1413
 7729TIP3    H244679   3.074   6.734   4.001  1.7795 -0.8851  2.4212
 7730TIP3   OH244680   2.258   3.958  13.515  0.4064 -0.0296  0.1355
 7730TIP3    H144681   2.248   4.009  13.595 -2.0657 -0.0804 -0.0655
 7730TIP3    H244682   2.286   4.022  13.449  1.8661  0.1220  0.8557
 7731TIP3   OH244683   2.276   4.346   4.513 -0.0460 -0.8132 -0.0495
 7731TIP3    H144684   2.245   4.397   4.438 -0.8717 -0.3730  0.5692
 7731TIP3    H244685   2.207   4.356   4.579  2.0298  1.4648  1.9892
 7732TIP3   OH244686   5.583   3.836   3.938 -0.3414 -0.3457 -0.0110
 7732TIP3    H144687   5.615   3.850   3.849 -2.1595 -0.6616 -0.7539
 7732TIP3    H244688   5.580   3.924   3.976  0.2437 -0.1913 -0.3043
 7733TIP3   OH244689   0.910   4.659   2.486 -0.1082 -0.0438  0.3214
 7733TIP3    H144690   0.874   4.570   2.497 -1.8074  0.4444 -0.8539
 7733TIP3    H244691   0.955   4.656   2.402 -2.9299  0.9528 -1.3682
 7734TIP3   OH244692   5.692   5.910  15.825  0.4048  0.1726 -0.5438
 7734TIP3    H144693   5.783   5.933  15.810  0.4875  0.8302  0.7682
 7734TIP3    H244694   5.646   5.993  15.828 -0.6185 -0.2118 -3.0788
 7735TIP3   OH244695   2.040   1.695   3.736  0.3609 -0.0862 -0.4722
 7735TIP3    H144696   2.109   1.739   3.686  0.1350 -0.1133 -0.8038
 7735TIP3    H244697   2.083   1.617   3.772  0.9123  0.6499  0.5454
 7736TIP3   OH244698   3.460   5.665   5.717  0.2774  0.2186  0.1020
 7736TIP3    H144699   3.543   5.667   5.669  0.2142 -0.7604 -0.0621
 7736TIP3    H244700   3.396   5.638   5.651 -0.0558  0.2697  0.4036
 7737TIP3   OH244701   0.617   0.315  12.898  0.6912 -0.1253 -0.6993
 7737TIP3    H144702   0.681   0.329  12.829 -0.3688  0.6153 -1.5653
 7737TIP3    H244703   0.555   0.251  12.861  0.1262  0.2604 -0.4459
 7738TIP3   OH244704   6.831   3.170  15.606  0.5137 -0.0736  0.2475
 7738TIP3    H144705   6.800   3.260  15.596 -1.2533 -0.7808 -1.3402
 7738TIP3    H244706   6.904   3.163  15.545 -0.6940 -0.2353 -1.2525
 7739TIP3   OH244707   6.775   0.620   1.977 -0.1452 -0.5923  0.7910
 7739TIP3    H144708   6.698   0.585   2.023 -1.5353  0.5354 -0.5651
 7739TIP3    H244709   6.743   0.698   1.933  0.7478 -2.2157 -3.1087
 7740TIP3   OH244710   1.994   6.343  13.712  0.5492  0.8724 -0.1895
 7740TIP3    H144711   2.009   6.376  13.623 -0.9358  2.5594  0.1459
 7740TIP3    H244712   1.927   6.275  13.701 -0.8264  2.1766 -0.2365
 7741TIP3   OH244713   4.828   5.755   2.591 -0.3153 -0.4348  0.0064
 7741TIP3    H144714   4.743   5.728   2.558 -0.1296 -1.3004  0.1915
 7741TIP3    H244715   4.813   5.774   2.683 -0.3489 -0.3998 -0.0065
 7742TIP3   OH244716   1.184   1.422   2.353  0.3882 -0.5581 -0.6168
 7742TIP3    H144717   1.121   1.385   2.414  0.3076  2.6261  1.4677
 7742TIP3    H244718   1.269   1.392   2.385  0.2832  0.3987  0.6348
 7743TIP3   OH244719   3.712   0.090   6.036  0.2475 -0.1998  0.0566
 7743TIP3    H144720   3.766   0.153   6.083 -0.8504  0.1741  0.8656
 7743TIP3    H244721   3.667   0.041   6.105 -0.5949 -0.3513 -0.5854
 7744TIP3   OH244722   6.299   1.227   4.743  0.1614  0.0321  0.2022
 7744TIP3    H144723   6.325   1.301   4.687  0.0819  0.0228  0.1530
 7744TIP3    H244724   6.329   1.150   4.695 -1.1987 -0.0678 -0.5538
 7745TIP3   OH244725   6.413   4.917  14.056 -0.2797  0.1658  0.2402
 7745TIP3    H144726   6.508   4.918  14.043 -0.4995  0.3983 -1.6990
 7745TIP3    H244727   6.399   4.862  14.133  1.5381  1.8457  1.8403
 7746TIP3   OH244728   5.284   4.500  16.282 -0.2522  0.2640 -0.3986
 7746TIP3    H144729   5.248   4.425  16.235  1.4858 -1.3722  0.7018
 7746TIP3    H244730   5.258   4.487  16.373  0.3740  0.7768 -0.1312
 7747TIP3   OH244731   4.040   2.751  14.858 -0.3677 -0.2075  0.5422
 7747TIP3    H144732   4.046   2.846  14.844  0.7317 -0.3011  0.3173
 7747TIP3    H244733   4.120   2.716  14.820 -1.1655 -1.3363 -0.1673
 7748TIP3   OH244734   2.703   2.317   3.171  0.5394  0.5123 -0.0183
 7748TIP3    H144735   2.673   2.388   3.114  0.4045  0.1593 -0.3921
 7748TIP3    H244736   2.759   2.263   3.115 -2.7264 -2.1320 -1.0885
 7749TIP3   OH244737   2.288   2.273   3.824  0.3402 -0.0391 -0.0746
 7749TIP3    H144738   2.349   2.272   3.898  0.0522 -1.1770  0.1714
 7749TIP3    H244739   2.253   2.362   3.824  0.4163  0.0128  1.1165
 7750TIP3   OH244740   6.793   2.482   5.082 -0.2975 -0.1498  0.0316
 7750TIP3    H144741   6.715   2.428   5.094 -0.2530 -0.2336 -0.0520
 7750TIP3    H244742   6.775   2.534   5.004  0.4098 -1.4023 -1.0177
 7751TIP3   OH244743   0.389   0.079  11.725 -0.0132  0.2616 -0.3584
 7751TIP3    H144744   0.406   0.000  11.672  0.5521  2.2339 -3.3910
 7751TIP3    H244745   0.476   0.114  11.744 -0.2686  1.2909 -0.9873
 7752TIP3   OH244746   1.074   4.784  15.308  0.2534 -0.1735 -0.2504
 7752TIP3    H144747   1.110   4.845  15.244  2.0069 -1.4143 -0.5440
 7752TIP3    H244748   0.980   4.797  15.305  0.4760  1.3843 -1.4241
 7753TIP3   OH244749   3.125   1.072  14.816  0.5760  0.0630 -0.3444
 7753TIP3    H144750   3.157   1.038  14.900  1.8569 -1.6103 -1.4309
 7753TIP3    H244751   3.085   0.996  14.774 -1.9116  1.3446 -0.4618
 7754TIP3   OH244752   2.077   0.224   2.385 -0.0947  0.2606 -0.3427
 7754TIP3    H144753   2.003   0.163   2.397 -0.8559  0.9527 -1.3407
 7754TIP3    H244754   2.137   0.177   2.326  0.4373 -0.4351  0.7298
 7755TIP3   OH244755   3.354   2.886  12.906 -0.1605 -0.0201  0.5257
 7755TIP3    H144756   3.425   2.849  12.853  0.2381 -0.0092  1.0395
 7755TIP3    H244757   3.399   2.939  12.971 -0.6432 -0.1387  0.9571
 7756TIP3   OH244758   3.767   4.106  11.639 -0.4207 -0.1040  0.6028
 7756TIP3    H144759   3.780   4.114  11.545 -1.1895 -0.5285  0.4516
 7756TIP3    H244760   3.792   4.016  11.660  0.1363  0.1087  0.8781
 7757TIP3   OH244761   1.995   4.553   3.301  0.0477 -0.0968 -0.7590
 7757TIP3    H144762   1.965   4.462   3.298  0.5187 -0.2741 -0.3098
 7757TIP3    H244763   2.071   4.555   3.243 -0.9390  0.4005 -2.0669
 7758TIP3   OH244764   3.739   5.855  15.572 -0.1646  0.1946 -0.2278
 7758TIP3    H144765   3.680   5.787  15.606  0.1183 -0.1858 -0.4841
 7758TIP3    H244766   3.704   5.876  15.485  0.2108 -0.2170 -0.4893
 7759TIP3   OH244767   1.765   1.557   5.813  0.3000  0.8611  0.4709
 7759TIP3    H144768   1.676   1.582   5.788 -0.8998 -2.0232  1.4126
 7759TIP3    H244769   1.818   1.635   5.794 -2.4896  2.9262  0.4979
 7760TIP3   OH244770   1.225   6.638   4.986 -0.0528  0.2063  0.3310
 7760TIP3    H144771   1.225   6.555   4.938 -0.2875  1.3143 -1.7213
 7760TIP3    H244772   1.279   6.696   4.932  1.2820  1.0387  2.4310
 7761TIP3   OH244773   1.052   3.527  17.005 -0.1479  0.2107 -0.6513
 7761TIP3    H144774   1.006   3.538  16.922  0.0923  3.0545 -0.4844
 7761TIP3    H244775   1.117   3.597  17.007  0.5697 -0.4351  1.4845
 7762TIP3   OH244776   2.602   4.883   6.397 -0.6486  0.0930  0.4158
 7762TIP3    H144777   2.549   4.921   6.467 -0.9111 -0.3885  0.4785
 7762TIP3    H244778   2.690   4.919   6.412 -0.5085 -0.6396  1.4882
 7763TIP3   OH244779   2.840   6.613   3.522 -0.1994  0.1305  0.6723
 7763TIP3    H144780   2.884   6.640   3.603  0.2832 -1.6078  1.0289
 7763TIP3    H244781   2.781   6.686   3.501  0.3217  0.9934  2.0977
 7764TIP3   OH244782   5.264   4.299  14.464 -0.0024 -0.2304 -0.8961
 7764TIP3    H144783   5.219   4.373  14.505  1.4118  0.9769 -1.4316
 7764TIP3    H244784   5.246   4.226  14.522 -1.0203  0.6383 -0.0635
 7765TIP3   OH244785   4.982   4.858   5.900  0.0371  0.1037 -0.1367
 7765TIP3    H144786   4.914   4.922   5.921  1.0132  0.7191  1.2762
 7765TIP3    H244787   4.934   4.783   5.863 -1.3211  0.8147  0.1448
 7766TIP3   OH244788   4.926   0.771  15.840  0.0162  0.0845 -0.5856
 7766TIP3    H144789   4.966   0.820  15.768 -1.6215 -1.1230 -2.4311
 7766TIP3    H244790   4.917   0.682  15.806 -0.4895 -0.6162  1.2669
 7767TIP3   OH244791   2.775   3.469  16.016  0.4993 -0.1344 -0.3869
 7767TIP3    H144792   2.772   3.565  16.012 -0.2919 -0.1535 -0.2994
 7767TIP3    H244793   2.854   3.450  16.067  1.3690  0.4393 -1.4729
 7768TIP3   OH244794   0.947   5.183  12.566 -0.0484  0.0203 -0.1167
 7768TIP3    H144795   1.011   5.112  12.559 -0.2244 -0.0893 -0.6418
 7768TIP3    H244796   0.924   5.186  12.659 -0.4023 -0.9249 -0.1715
 7769TIP3   OH244797   2.514   6.270  14.235  0.4476  1.1767 -0.0768
 7769TIP3    H144798   2.433   6.321  14.248  1.0725  2.1520  0.1651
 7769TIP3    H244799   2.511   6.242  14.144 -1.5064 -1.2454  0.6473
 7770TIP3   OH244800   3.191   0.732  10.894  0.0152  0.5349 -0.4515
 7770TIP3    H144801   3.109   0.707  10.936  0.4429  0.3696  0.2899
 7770TIP3    H244802   3.193   0.681  10.813  0.3086 -0.9675  0.4667
 7771TIP3   OH244803   1.962   4.062  14.797 -0.1874 -0.0558 -0.2036
 7771TIP3    H144804   2.034   4.032  14.741 -1.2086 -2.5103 -0.3226
 7771TIP3    H244805   1.977   4.017  14.881 -1.3069 -0.2529 -0.0917
 7772TIP3   OH244806   0.834   1.370   1.602 -0.6256 -0.3763 -0.1642
 7772TIP3    H144807   0.876   1.285   1.592 -0.5044 -0.2992 -0.3136
 7772TIP3    H244808   0.749   1.360   1.558 -1.0993 -0.7694  0.7971
 7773TIP3   OH244809   1.699   2.602  16.921 -0.1125  0.0938 -0.0721
 7773TIP3    H144810   1.707   2.616  17.016  0.0376  1.5580 -0.2849
 7773TIP3    H244811   1.686   2.508  16.912 -1.4709  0.0841  1.5038
 7774TIP3   OH244812   6.284   4.211   0.359  0.4843  0.2338  0.2232
 7774TIP3    H144813   6.250   4.145   0.418  1.9794 -0.3162  0.5036
 7774TIP3    H244814   6.225   4.286   0.370  0.2391 -0.1588  1.7718
 7775TIP3   OH244815   0.246   1.416  11.672  0.7521 -0.5684 -0.2589
 7775TIP3    H144816   0.173   1.362  11.641  0.4179 -0.0006 -0.4835
 7775TIP3    H244817   0.313   1.353  11.699 -0.0109 -1.1199  0.4312
 7776TIP3   OH244818   5.857   0.680  15.804 -0.3368 -0.0714  0.0529
 7776TIP3    H144819   5.836   0.772  15.785  2.9508  0.9711  0.8286
 7776TIP3    H244820   5.886   0.681  15.895  3.5410 -0.9918 -0.9833
 7777TIP3   OH244821   3.955   3.800   5.316 -0.0585  0.5977 -0.1060
 7777TIP3    H144822   3.949   3.707   5.338  2.3650  0.1240 -1.0515
 7777TIP3    H244823   3.983   3.842   5.397  0.2051  0.2575 -0.0146
 7778TIP3   OH244824   1.224   3.048  11.113 -0.3868  0.4541 -0.8953
 7778TIP3    H144825   1.156   3.099  11.068 -1.4746  0.0871  0.2974
 7778TIP3    H244826   1.295   3.111  11.127 -0.5446  0.8933 -1.9700
 7779TIP3   OH244827   0.080   6.016   2.270 -0.1770  0.6325 -0.0242
 7779TIP3    H144828   0.041   6.064   2.196  0.9529  1.0312 -0.3873
 7779TIP3    H244829   0.113   6.084   2.328  0.9416  0.3215 -0.2658
 7780TIP3   OH244830   2.036   4.528  14.071  0.0340  0.3579 -0.3879
 7780TIP3    H144831   1.954   4.545  14.117  0.9870 -0.6843  1.8962
 7780TIP3    H244832   2.010   4.503  13.983 -2.0305  0.8985  0.0227
 7781TIP3   OH244833   1.469   4.813  10.801  0.1089 -0.8571 -0.4886
 7781TIP3    H144834   1.447   4.739  10.858  0.3304 -0.4671  0.1125
 7781TIP3    H244835   1.500   4.773  10.720 -0.0537 -1.4194 -0.2771
 7782TIP3   OH244836   2.323   2.377  11.294 -0.2464 -0.5983  0.5595
 7782TIP3    H144837   2.258   2.400  11.228 -1.2065  2.1934  2.3142
 7782TIP3    H244838   2.404   2.416  11.263 -0.1392 -1.3066 -0.0689
 7783TIP3   OH244839   4.009   1.187  14.918  0.0562 -0.3213 -0.0258
 7783TIP3    H144840   4.023   1.093  14.931  2.2544  0.2627  2.6935
 7783TIP3    H244841   4.076   1.213  14.855  1.0224 -0.2107  1.0240
 7784TIP3   OH244842   1.938   3.908  15.078 -0.5710  0.3373 -0.2266
 7784TIP3    H144843   1.899   3.829  15.042 -0.8262  1.1780 -1.8749
 7784TIP3    H244844   1.865   3.954  15.120 -0.3551 -0.4318  1.0486
 7785TIP3   OH244845   4.759   1.652  10.378  0.8541 -0.1495  0.6700
 7785TIP3    H144846   4.822   1.603  10.326  1.3261 -0.8172  1.8465
 7785TIP3    H244847   4.794   1.742  10.379  0.6964 -0.0602 -0.3534
 7786TIP3   OH244848   1.750   5.391  16.092  0.0503  0.3546 -0.0862
 7786TIP3    H144849   1.665   5.427  16.067  0.0766  0.7076  0.3378
 7786TIP3    H244850   1.730   5.328  16.161  0.1445  0.5153  0.0888
 7787TIP3   OH244851   6.598   6.110   2.747 -0.3041  0.3328  0.0216
 7787TIP3    H144852   6.626   6.050   2.678  1.6583  0.7802  0.3700
 7787TIP3    H244853   6.528   6.064   2.792  0.2735 -1.1511 -0.5397
 7788TIP3   OH244854   4.463   4.391   1.731  0.2340 -0.1457 -0.9600
 7788TIP3    H144855   4.444   4.484   1.715  0.4696  0.4908  1.9442
 7788TIP3    H244856   4.547   4.391   1.777 -0.5284 -1.6262  0.5470
 7789TIP3   OH244857   0.035   2.963  14.375 -0.2112  0.3817  0.0347
 7789TIP3    H144858   0.041   2.931  14.286  0.4537 -0.7184  0.4533
 7789TIP3    H244859  -0.054   2.942  14.403 -0.5285  1.0302 -0.4634
 7790TIP3   OH244860   3.381   4.190  11.508 -0.2401  0.1182 -0.7733
 7790TIP3    H144861   3.390   4.260  11.443 -1.9583  1.7052  0.5795
 7790TIP3    H244862   3.289   4.190  11.531 -0.2198 -2.3921 -0.3985
 7791TIP3   OH244863   0.807   1.947   5.723  0.0648 -0.7033  0.5234
 7791TIP3    H144864   0.791   1.991   5.806 -0.0678  0.5164 -0.1263
 7791TIP3    H244865   0.727   1.962   5.672 -0.2471 -2.2545  0.5006
 7792TIP3   OH244866   5.575   5.023   1.261  0.2715  0.1165 -0.5140
 7792TIP3    H144867   5.571   5.037   1.166  0.8588  0.3579 -0.5042
 7792TIP3    H244868   5.506   5.078   1.296 -0.4061 -0.4951 -0.8564
 7793TIP3   OH244869   0.888   0.933   5.517  0.1260  0.1845  0.5333
 7793TIP3    H144870   0.864   0.848   5.553  0.0984  0.2104  0.5761
 7793TIP3    H244871   0.828   0.947   5.444 -0.0288  0.2759  0.6763
 7794TIP3   OH244872   1.685   4.551   3.748  0.3525  0.3068  0.1268
 7794TIP3    H144873   1.602   4.503   3.745  0.2620  0.4021  0.8158
 7794TIP3    H244874   1.720   4.544   3.659  0.0690 -0.5475  0.0695
 7795TIP3   OH244875   1.162   4.357   0.300 -0.4882  0.8078 -0.0413
 7795TIP3    H144876   1.208   4.273   0.296 -0.2706  0.9309 -0.1562
 7795TIP3    H244877   1.180   4.399   0.215  0.4478  1.5076  0.4772
 7796TIP3   OH244878   3.756   4.555  14.444  0.0489 -0.1525 -0.1183
 7796TIP3    H144879   3.823   4.518  14.385 -0.6496  0.4912 -1.3506
 7796TIP3    H244880   3.802   4.626  14.490  0.4109 -0.1899 -0.4124
 7797TIP3   OH244881   6.520   6.120  15.762  0.6350  0.1397 -0.5884
 7797TIP3    H144882   6.541   6.045  15.708  3.3454  0.9373 -0.7889
 7797TIP3    H244883   6.602   6.170  15.767 -0.0017  1.1276  2.5990
 7798TIP3   OH244884   6.141   2.792   2.327  0.4426 -0.1582 -0.2124
 7798TIP3    H144885   6.143   2.790   2.232 -1.2515  0.7351 -0.3128
 7798TIP3    H244886   6.063   2.845   2.348  0.2325 -1.1247  1.6576
 7799TIP3   OH244887   0.608   1.107  10.687 -0.1255  0.5001  0.3021
 7799TIP3    H144888   0.683   1.165  10.694  0.6727 -0.4218 -0.2816
 7799TIP3    H244889   0.645   1.019  10.696 -1.0436  0.0033 -0.5489
 7800TIP3   OH244890   4.149   5.205   1.211 -0.1403  0.8566 -0.3635
 7800TIP3    H144891   4.197   5.147   1.152  2.0780  1.4095  0.7847
 7800TIP3    H244892   4.089   5.148   1.258 -0.8183  0.1692 -1.9843
 7801TIP3   OH244893   3.189   5.494   4.698 -0.1960  0.2051 -0.0617
 7801TIP3    H144894   3.122   5.445   4.746  2.1385 -1.8468  1.3150
 7801TIP3    H244895   3.217   5.563   4.758 -0.7470  0.7901 -0.4677
 7802TIP3   OH244896   6.280   2.059  12.081 -0.4360  0.4326  0.3653
 7802TIP3    H144897   6.299   2.058  12.174  0.2960  0.9882  0.2307
 7802TIP3    H244898   6.350   2.112  12.042 -1.3891  1.2053 -0.3525
 7803TIP3   OH244899   0.837   2.947   5.488 -0.5535  0.2512 -0.1790
 7803TIP3    H144900   0.759   2.912   5.444 -0.5974  0.0950  0.0229
 7803TIP3    H244901   0.880   2.870   5.525  0.5256  0.1430 -1.5839
 7804TIP3   OH244902   6.490   6.829  11.433  0.0670 -0.0600  0.1733
 7804TIP3    H144903   6.567   6.781  11.463  0.1088 -0.0798  0.0332
 7804TIP3    H244904   6.418   6.796  11.487 -0.0506 -0.8412 -0.4569
 7805TIP3   OH244905   5.365   6.087   4.685 -0.0008 -0.2075  0.3427
 7805TIP3    H144906   5.429   6.157   4.695  0.2920 -0.3517 -0.4700
 7805TIP3    H244907   5.280   6.128   4.702  0.3483 -0.1846  2.1993
 7806TIP3   OH244908   2.192   1.136  11.863  1.0537  0.2036 -0.6189
 7806TIP3    H144909   2.249   1.198  11.819  1.5687 -0.2828 -0.6422
 7806TIP3    H244910   2.251   1.069  11.898  0.4842 -0.4193 -0.8255
 7807TIP3   OH244911   3.254   0.149   5.196 -0.5005 -0.3717 -0.2410
 7807TIP3    H144912   3.173   0.166   5.245  0.1875 -2.1908  1.7341
 7807TIP3    H244913   3.317   0.211   5.231 -0.5549 -0.2297 -0.3939
 7808TIP3   OH244914   0.136   0.793   5.264 -0.1319  0.4540  0.3527
 7808TIP3    H144915   0.155   0.725   5.199 -0.0405  1.1703 -0.4009
 7808TIP3    H244916   0.096   0.747   5.337  1.2445 -0.6028  0.4723
 7809TIP3   OH244917   5.914   4.062  13.839  0.2645  0.0404 -0.7330
 7809TIP3    H144918   5.902   3.968  13.834 -0.4781  0.1587 -1.3638
 7809TIP3    H244919   5.924   4.080  13.933  0.6196 -0.6757 -0.6271
 7810TIP3   OH244920   1.268   5.713   3.307 -0.2217  0.0937 -0.3603
 7810TIP3    H144921   1.277   5.808   3.307 -0.5626  0.1365 -1.0348
 7810TIP3    H244922   1.341   5.682   3.360 -0.7528  0.7820  0.8158
 7811TIP3   OH244923   4.909   0.474  16.011 -0.2644 -0.2987 -0.1859
 7811TIP3    H144924   4.992   0.522  16.014 -0.6586  0.4962 -1.4343
 7811TIP3    H244925   4.886   0.461  16.103  0.9001  0.0639  0.1727
 7812TIP3   OH244926   2.752   2.546  13.175 -0.6338  0.0161  0.0737
 7812TIP3    H144927   2.656   2.539  13.181 -0.8113  2.1634  0.6035
 7812TIP3    H244928   2.767   2.638  13.155  1.3597 -0.2354  0.2969
 7813TIP3   OH244929   4.960   2.984   0.916 -0.4037 -0.6726 -0.3707
 7813TIP3    H144930   5.010   3.034   0.851 -2.3369 -0.6355 -1.9159
 7813TIP3    H244931   4.969   2.893   0.888  0.3287 -0.8696  0.4646
 7814TIP3   OH244932   3.748   1.952   3.482  0.4369  0.1839 -0.3772
 7814TIP3    H144933   3.798   1.900   3.546 -0.8132 -1.5609 -0.7566
 7814TIP3    H244934   3.815   1.983   3.420  1.0665 -2.9737 -1.4868
 7815TIP3   OH244935   0.438   4.842  11.849 -0.0531 -0.4135 -0.1530
 7815TIP3    H144936   0.422   4.831  11.942 -2.3234 -2.0022 -0.6583
 7815TIP3    H244937   0.533   4.850  11.841  0.3865 -2.5845  2.0685
 7816TIP3   OH244938   4.273   3.890  12.801 -0.1163  0.4315 -0.6070
 7816TIP3    H144939   4.218   3.850  12.733 -0.4465  1.1057 -0.7441
 7816TIP3    H244940   4.339   3.939  12.752  1.0148 -0.8654 -0.4522
 7817TIP3   OH244941   3.953   2.437  14.766  0.0878 -0.5777  0.1815
 7817TIP3    H144942   3.914   2.492  14.699 -1.2732 -1.0793  0.5215
 7817TIP3    H244943   4.028   2.396  14.724  0.2903  0.4628 -0.4860
 7818TIP3   OH244944   3.046   3.863  15.851  0.3714 -0.5157 -0.3051
 7818TIP3    H144945   3.010   3.907  15.774 -1.7543 -0.1756  0.7880
 7818TIP3    H244946   3.036   3.927  15.922 -1.2183 -2.0665  0.9748
 7819TIP3   OH244947   1.223   2.379   5.163 -0.0340 -0.2321 -0.1946
 7819TIP3    H144948   1.134   2.399   5.134  0.4166 -0.5489 -1.8973
 7819TIP3    H244949   1.225   2.283   5.172 -0.4470 -0.0751  1.9405
 7820TIP3   OH244950   3.938   3.574   4.603  0.5276 -0.4002  0.3077
 7820TIP3    H144951   4.010   3.624   4.641  0.2704  0.4108 -0.2455
 7820TIP3    H244952   3.964   3.560   4.512  1.4304 -2.8773  0.8845
 7821TIP3   OH244953   0.821   4.680   1.690 -0.3167 -0.2687 -0.2043
 7821TIP3    H144954   0.882   4.607   1.678 -3.5793 -3.2001 -0.6310
 7821TIP3    H244955   0.768   4.680   1.610 -1.0924  1.9276  0.2436
 7822TIP3   OH244956   0.446   2.650  15.926 -0.7219  0.0630  0.1977
 7822TIP3    H144957   0.440   2.722  15.862 -1.2519  1.9810  2.2739
 7822TIP3    H244958   0.523   2.600  15.899 -1.6622 -0.0329 -2.6698
 7823TIP3   OH244959   3.286   6.376   5.307  0.4220 -0.0970  0.2668
 7823TIP3    H144960   3.308   6.463   5.340  0.5376  0.0906 -0.2938
 7823TIP3    H244961   3.247   6.393   5.221  1.3104 -0.6592 -0.2572
 7824TIP3   OH244962   3.014   3.499  16.145  0.0241  0.5109 -0.2813
 7824TIP3    H144963   3.085   3.526  16.202 -0.6415 -0.0752  0.8485
 7824TIP3    H244964   3.056   3.488  16.059  0.9989  1.5453  0.0392
 7825TIP3   OH244965   4.676   0.097  15.438 -0.7681  0.7059 -0.1503
 7825TIP3    H144966   4.737   0.097  15.364  0.7066  1.9730  1.0032
 7825TIP3    H244967   4.605   0.039  15.410  1.1702 -1.2539 -1.3785
 7826TIP3   OH244968   0.394   0.611   3.813 -0.5839 -0.3355  0.2958
 7826TIP3    H144969   0.477   0.641   3.850  0.5589 -0.1303 -2.2321
 7826TIP3    H244970   0.419   0.559   3.737 -2.7630  1.4213 -1.7746
 7827TIP3   OH244971   5.755   3.216   0.933 -0.4865 -0.0685 -0.4234
 7827TIP3    H144972   5.674   3.226   0.982 -1.1596 -1.6527 -1.1378
 7827TIP3    H244973   5.821   3.197   1.000 -0.9236  0.0758  0.0589
 7828TIP3   OH244974   5.723   3.889  12.548 -0.1603  0.0196 -0.2601
 7828TIP3    H144975   5.792   3.909  12.485 -0.6632 -0.2586 -0.9172
 7828TIP3    H244976   5.644   3.879  12.495 -0.4682 -0.9019  0.3335
 7829TIP3   OH244977   1.418   4.361  16.698  0.1961 -0.1262 -0.0610
 7829TIP3    H144978   1.454   4.293  16.754  1.2760  0.5899  0.1386
 7829TIP3    H244979   1.376   4.423  16.759 -0.6163 -0.4984 -0.2277
 7830TIP3   OH244980   0.367   0.641  13.733 -0.2735  0.3940  1.0071
 7830TIP3    H144981   0.356   0.711  13.669  0.9182 -0.1365  0.1846
 7830TIP3    H244982   0.392   0.685  13.814 -0.6606  0.9823  0.8133
 7831TIP3   OH244983   1.517   6.424   0.192 -0.2047 -0.1783 -0.1756
 7831TIP3    H144984   1.578   6.381   0.252  0.7807  0.2205 -0.8679
 7831TIP3    H244985   1.567   6.495   0.152 -1.4460  0.8564  0.0280
 7832TIP3   OH244986   1.704   2.886  15.392 -0.5750  0.6662  0.1137
 7832TIP3    H144987   1.693   2.972  15.433 -0.6968 -0.1628  1.9091
 7832TIP3    H244988   1.621   2.841  15.408 -0.3152  0.0157 -0.3123
 7833TIP3   OH244989   1.257   0.820  15.328 -0.1434  0.0648 -0.5325
 7833TIP3    H144990   1.336   0.778  15.293 -0.6375 -0.7503 -0.7069
 7833TIP3    H244991   1.290   0.890  15.384  0.7001 -0.0991 -0.8026
 7834TIP3   OH244992   4.225   5.220   4.997  0.1212 -0.3513  0.0683
 7834TIP3    H144993   4.284   5.144   4.996  1.0299  0.3542 -0.4185
 7834TIP3    H244994   4.282   5.295   5.009 -0.9146  0.1514  2.5732
 7835TIP3   OH244995   1.803   2.095   3.480  0.2694  0.0758 -0.6028
 7835TIP3    H144996   1.744   2.144   3.537 -1.2185 -0.0451 -1.9519
 7835TIP3    H244997   1.822   2.014   3.528 -1.1890 -0.1595 -0.3640
 7836TIP3   OH244998   4.667   1.298  11.498  0.1297  0.1761  0.5111
 7836TIP3    H144999   4.690   1.258  11.414 -0.3741  0.9399 -0.0008
 7836TIP3    H245000   4.578   1.268  11.516  0.4000 -0.3442  0.9968
 7837TIP3   OH245001   5.991   4.205   1.889  0.2909  0.2189 -0.2806
 7837TIP3    H145002   5.895   4.208   1.892  0.2975  0.5078  2.2836
 7837TIP3    H245003   6.013   4.120   1.927  1.0462  0.3446 -0.4275
 7838TIP3   OH245004   3.090   0.167   4.568  0.4645  0.0611  0.0810
 7838TIP3    H145005   3.182   0.143   4.579  0.3847  0.2560  1.2866
 7838TIP3    H245006   3.065   0.206   4.652 -0.9147 -0.6582  0.0307
 7839TIP3   OH245007   3.257   2.865  14.453 -0.2865 -0.4070 -0.3453
 7839TIP3    H145008   3.260   2.951  14.410 -0.2217 -0.1668  0.1398
 7839TIP3    H245009   3.192   2.876  14.523  1.0791 -0.1966  0.9222
 7840TIP3   OH245010   0.001   0.556  12.343  0.0792  0.6180  0.6614
 7840TIP3    H145011   0.013   0.623  12.275 -1.9212 -0.2345 -0.6095
 7840TIP3    H245012   0.055   0.483  12.314  0.5210  0.8456  0.8889
 7841TIP3   OH245013   3.655   6.399   2.600 -0.0130 -0.6510  0.2909
 7841TIP3    H145014   3.641   6.492   2.617 -1.4765 -0.4946 -1.4408
 7841TIP3    H245015   3.736   6.396   2.549 -0.0160 -0.3028  0.2596
 7842TIP3   OH245016   5.107   5.037  11.807 -0.2265 -0.5383 -0.2661
 7842TIP3    H145017   5.017   5.026  11.836  0.1097 -0.3527  0.9174
 7842TIP3    H245018   5.123   5.131  11.812 -0.1712 -0.4937 -1.1397
 7843TIP3   OH245019   5.478   0.294  16.354 -0.1398  0.1951  0.3986
 7843TIP3    H145020   5.467   0.199  16.359 -3.6739  0.4093 -0.8279
 7843TIP3    H245021   5.482   0.322  16.445  2.1546 -1.1232  0.7954
 7844TIP3   OH245022   2.005   1.305  13.936 -0.1317  0.0326 -0.0745
 7844TIP3    H145023   2.013   1.253  13.856  1.5328 -0.8765  0.6319
 7844TIP3    H245024   1.995   1.395  13.905 -4.0390 -0.6471 -1.3705
 7845TIP3   OH245025   3.092   6.461   4.582  0.0931  0.1086 -0.5673
 7845TIP3    H145026   3.161   6.510   4.626  1.0495  0.3147 -2.1911
 7845TIP3    H245027   3.011   6.492   4.622  0.9077  0.1797  1.0820
 7846TIP3   OH245028   5.305   0.275  12.808  0.1332 -0.3445 -0.4470
 7846TIP3    H145029   5.237   0.273  12.876  0.3657 -0.8075 -0.2167
 7846TIP3    H245030   5.356   0.354  12.826 -1.1360  0.7263 -1.4234
 7847TIP3   OH245031   0.774   0.296  13.177 -0.3038 -0.5829 -0.1189
 7847TIP3    H145032   0.730   0.370  13.219  1.8221  0.0338  1.1742
 7847TIP3    H245033   0.836   0.337  13.116 -0.3935 -1.3643 -0.7489
 7848TIP3   OH245034   0.384   0.381  10.752  0.1378  0.0259  1.4438
 7848TIP3    H145035   0.434   0.385  10.671  1.5046 -3.6459  1.8954
 7848TIP3    H245036   0.292   0.385  10.723  0.5974  1.1043  0.0091
 7849TIP3   OH245037   6.370   5.563   2.792 -0.4698 -0.8415 -0.4709
 7849TIP3    H145038   6.449   5.612   2.766 -0.3029 -0.3492  0.8627
 7849TIP3    H245039   6.346   5.601   2.877 -2.0818 -1.0740 -0.8026
 7850TIP3   OH245040   4.631   1.541  13.004  0.2855 -0.2649 -0.1966
 7850TIP3    H145041   4.716   1.514  12.968 -0.2814 -2.3827 -0.1185
 7850TIP3    H245042   4.578   1.461  13.001 -0.4917 -0.0200  3.2589
 7851TIP3   OH245043   0.755   0.440   5.159 -0.6454  0.0821  0.3386
 7851TIP3    H145044   0.805   0.506   5.206 -0.4370  0.2798 -0.1564
 7851TIP3    H245045   0.763   0.361   5.213 -1.9806  0.7794  1.6097
 7852TIP3   OH245046   5.307   4.060   4.701 -0.1904  0.2358 -0.3537
 7852TIP3    H145047   5.223   4.016   4.692 -0.3634  0.7829 -1.6893
 7852TIP3    H245048   5.365   4.015   4.639  0.0593  0.8700 -0.5881
 7853TIP3   OH245049   3.894   4.321  16.566 -0.1035  0.1754  0.3694
 7853TIP3    H145050   3.811   4.329  16.520  0.4684  1.4553 -0.5006
 7853TIP3    H245051   3.904   4.228  16.583 -2.3592  0.1208  1.7192
 7854TIP3   OH245052   0.490   3.832   0.749  0.3545  0.6407 -0.0537
 7854TIP3    H145053   0.481   3.815   0.655  0.2378 -0.4184  0.1335
 7854TIP3    H245054   0.400   3.847   0.779  0.2533 -0.1978  0.0876
 7855TIP3   OH245055   2.831   5.778   5.490  0.3318  0.4889  0.3077
 7855TIP3    H145056   2.821   5.736   5.405 -0.0504 -0.2907  0.7286
 7855TIP3    H245057   2.742   5.799   5.517  0.3908  0.1053  0.8193
 7856TIP3   OH245058   6.627   6.203  15.244  0.4733  0.2676  0.0769
 7856TIP3    H145059   6.672   6.239  15.320  1.2981 -2.7627  1.2019
 7856TIP3    H245060   6.698   6.178  15.185  0.0906 -1.0100  0.1263
 7857TIP3   OH245061   6.208   0.093   5.435 -0.5269  0.2301  0.0852
 7857TIP3    H145062   6.115   0.082   5.459 -0.5391 -0.3700 -0.2117
 7857TIP3    H245063   6.241   0.159   5.496 -0.9973 -0.0022  0.6017
 7858TIP3   OH245064   4.852   3.421  15.509 -0.4381  0.5951 -0.0012
 7858TIP3    H145065   4.788   3.478  15.466  0.8476  0.2909 -2.4941
 7858TIP3    H245066   4.799   3.349  15.544 -1.4876  0.0181 -2.5321
 7859TIP3   OH245067   4.682   4.271  15.513  0.2776 -0.2687 -0.4318
 7859TIP3    H145068   4.714   4.200  15.458  0.0844  0.2201 -1.2007
 7859TIP3    H245069   4.716   4.351  15.472  1.9305  0.0279  1.3741
 7860TIP3   OH245070   4.348   5.166  13.454  0.1930 -0.5184 -0.1428
 7860TIP3    H145071   4.300   5.084  13.441 -0.2076 -0.1636 -0.9685
 7860TIP3    H245072   4.381   5.160  13.543 -1.6366 -0.6481  0.5734
 7861TIP3   OH245073   4.270   2.693  13.973  0.1123  0.3989  0.2733
 7861TIP3    H145074   4.304   2.726  13.890 -3.3373  0.4231 -1.3011
 7861TIP3    H245075   4.338   2.634  14.006  1.0178 -0.7880 -3.3215
 7862TIP3   OH245076   4.696   5.204   5.556  0.2193  0.2310 -0.4194
 7862TIP3    H145077   4.750   5.277   5.526  0.0969 -0.1171 -1.5310
 7862TIP3    H245078   4.759   5.143   5.595  0.2898  1.0329  0.7736
 7863TIP3   OH245079   3.997   1.683  12.447  0.2872 -0.2506  0.5212
 7863TIP3    H145080   3.940   1.713  12.517 -0.4717 -1.7350  0.5760
 7863TIP3    H245081   3.939   1.667  12.373  1.1933  2.2321 -0.8328
 7864TIP3   OH245082   5.065   5.070   2.474  0.2202  0.0301  0.6298
 7864TIP3    H145083   5.063   5.134   2.403  0.6431  1.5349  1.9156
 7864TIP3    H245084   4.995   5.099   2.534 -0.8066 -1.7902  0.3834
 7865TIP3   OH245085   1.830   5.699  15.536 -0.2779 -0.1122 -0.0523
 7865TIP3    H145086   1.916   5.702  15.579 -0.7623  0.0409  0.9301
 7865TIP3    H245087   1.808   5.791  15.520 -1.2856  0.0147  1.8357
 7866TIP3   OH245088   2.191   5.848   0.195 -0.0201  0.0101  0.4173
 7866TIP3    H145089   2.238   5.836   0.112  1.5347 -0.5960  1.3535
 7866TIP3    H245090   2.128   5.776   0.196 -0.7775  0.6273 -0.6996
 7867TIP3   OH245091   5.327   2.910   5.975 -0.1168 -0.0453  0.9013
 7867TIP3    H145092   5.368   2.824   5.972 -0.7716 -0.3959  1.5943
 7867TIP3    H245093   5.391   2.966   6.020  0.5950  0.0063 -0.1565
 7868TIP3   OH245094   4.648   2.792  15.359  0.3378 -0.3678 -0.1956
 7868TIP3    H145095   4.630   2.866  15.302 -1.3340 -0.9661 -0.5097
 7868TIP3    H245096   4.576   2.792  15.422  1.4021 -0.5433  1.0504
 7869TIP3   OH245097   1.526   5.064  14.882  0.2716  0.8975 -0.3202
 7869TIP3    H145098   1.592   5.000  14.909 -0.7279  0.2192  0.6029
 7869TIP3    H245099   1.471   5.018  14.819 -0.2192  0.9719  0.0509
 7870TIP3   OH245100   1.008   3.120  15.113  0.4101  0.0251 -0.1225
 7870TIP3    H145101   1.048   3.033  15.116  1.3033  0.4282  0.2475
 7870TIP3    H245102   0.955   3.120  15.033  0.5936 -0.7729 -0.2520
 7871TIP3   OH245103   3.739   5.952  12.891 -0.5056  0.7181  0.3971
 7871TIP3    H145104   3.670   6.011  12.858 -1.6429 -0.0997  1.2373
 7871TIP3    H245105   3.734   5.960  12.986 -1.1201 -1.1773  0.5627
 7872TIP3   OH245106   1.837   4.793  14.727  0.6121 -0.3005 -0.2111
 7872TIP3    H145107   1.848   4.743  14.646 -1.6509 -0.1218 -0.6984
 7872TIP3    H245108   1.840   4.884  14.699  0.0448 -0.2367 -0.0757
 7873TIP3   OH245109   3.068   0.846   0.426  0.2197 -0.1380 -0.5267
 7873TIP3    H145110   3.078   0.864   0.333 -0.9622  0.6490 -0.5266
 7873TIP3    H245111   3.042   0.754   0.430 -1.7983  0.3511 -1.1592
 7874TIP3   OH245112   0.761   4.192   5.001 -0.1954 -0.3387 -0.4449
 7874TIP3    H145113   0.812   4.124   5.044 -1.8304 -0.8515  0.7904
 7874TIP3    H245114   0.791   4.274   5.039  1.1714 -0.4141 -1.3046
 7875TIP3   OH245115   2.933   0.967  11.219  0.1600 -0.1146  0.4685
 7875TIP3    H145116   2.954   0.992  11.129 -0.1502 -0.5731  0.2683
 7875TIP3    H245117   2.903   1.048  11.260  0.9651  0.2510  0.3604
 7876TIP3   OH245118   3.457   6.712   0.600  0.0674 -0.2324 -0.4247
 7876TIP3    H145119   3.549   6.741   0.599 -0.0839  0.2627 -0.7823
 7876TIP3    H245120   3.449   6.659   0.520 -0.5579  1.7413 -1.7433
 7877TIP3   OH245121   2.934   1.656  13.019 -0.6075  0.7619 -0.4086
 7877TIP3    H145122   2.869   1.638  12.951 -1.7656 -1.1415  1.1099
 7877TIP3    H245123   2.964   1.569  13.047 -1.2595  1.3698  2.4866
 7878TIP3   OH245124   2.469   5.234   5.645 -0.2685  0.4932 -0.1180
 7878TIP3    H145125   2.388   5.184   5.634 -0.3987  0.9130 -1.2256
 7878TIP3    H245126   2.462   5.272   5.733 -1.3395  0.6419 -0.2560
 7879TIP3   OH245127   5.819   4.741   3.803  0.2627  0.1222 -0.1937
 7879TIP3    H145128   5.889   4.687   3.768  0.4038 -0.9460  1.6385
 7879TIP3    H245129   5.773   4.685   3.865 -2.5095  0.6561 -1.5878
 7880TIP3   OH245130   5.472   1.177  12.661 -0.3990  0.5981 -0.6425
 7880TIP3    H145131   5.548   1.130  12.628 -0.4232 -1.1288  1.5093
 7880TIP3    H245132   5.447   1.237  12.590  1.6467 -0.3041 -2.2083
 7881TIP3   OH245133   5.075   3.840  16.417  0.2009  0.2188 -0.0986
 7881TIP3    H145134   5.120   3.924  16.417  0.2471  0.2147 -1.4007
 7881TIP3    H245135   5.011   3.847  16.487  1.3695  0.6838  0.9539
 7882TIP3   OH245136   4.062   6.618  13.834 -0.2186  0.0975 -0.4869
 7882TIP3    H145137   3.994   6.664  13.785 -0.0076 -2.2571 -3.2202
 7882TIP3    H245138   4.014   6.570  13.902 -1.1033 -0.0952 -1.2243
 7883TIP3   OH245139   5.697   5.287  11.798  0.2013  0.5451 -0.1780
 7883TIP3    H145140   5.605   5.291  11.773  0.0067 -1.9925 -0.1470
 7883TIP3    H245141   5.745   5.315  11.721 -0.5548 -1.3436 -1.4019
 7884TIP3   OH245142   4.477   4.624   0.269  0.9174  0.2396 -0.4048
 7884TIP3    H145143   4.428   4.699   0.235 -1.1063 -0.6718  0.3331
 7884TIP3    H245144   4.496   4.647   0.360  0.4447 -0.0351 -0.2289
 7885TIP3   OH245145   6.186   6.703  13.207 -0.1403 -0.2694 -0.5152
 7885TIP3    H145146   6.130   6.690  13.130  1.0534 -1.0676 -1.2910
 7885TIP3    H245147   6.139   6.660  13.278 -1.9744  1.7478 -0.4212
 7886TIP3   OH245148   6.306   4.167   4.538  0.0247 -0.9417 -0.3112
 7886TIP3    H145149   6.333   4.242   4.591 -1.9374 -1.2259  1.2124
 7886TIP3    H245150   6.378   4.154   4.476  0.5291  2.0261 -0.4832
 7887TIP3   OH245151   0.738   6.276   2.649 -0.2525  0.3963  0.1119
 7887TIP3    H145152   0.791   6.229   2.586  0.7557  0.7973  0.6331
 7887TIP3    H245153   0.750   6.368   2.627 -1.6654  0.4592 -0.4788
 7888TIP3   OH245154   6.697   2.962  15.729 -0.2352 -0.0044  0.2469
 7888TIP3    H145155   6.776   2.999  15.691 -0.6308  0.7773  0.1665
 7888TIP3    H245156   6.660   3.033  15.782 -2.6810  0.8949 -2.3551
 7889TIP3   OH245157   5.378   3.800   0.909  0.0882 -0.5982  0.0069
 7889TIP3    H145158   5.405   3.891   0.923  0.5231 -0.5154 -1.1939
 7889TIP3    H245159   5.286   3.798   0.937 -0.2280  0.4658 -0.8468
 7890TIP3   OH245160   4.595   3.026  15.248  0.6664 -0.2675  0.3374
 7890TIP3    H145161   4.596   3.068  15.334 -0.8928  1.7287 -0.5513
 7890TIP3    H245162   4.654   3.080  15.194 -0.7023  0.3300 -0.6083
 7891TIP3   OH245163   2.864   2.964  10.769  0.3517  0.7872  0.2572
 7891TIP3    H145164   2.868   3.000  10.681 -1.4601 -0.7989 -0.5381
 7891TIP3    H245165   2.805   3.022  10.817 -1.3664 -0.1696 -0.5937
 7892TIP3   OH245166   0.983   3.115   2.845 -0.2292 -0.2859  0.5684
 7892TIP3    H145167   1.042   3.190   2.854 -1.5875  0.7767  1.0569
 7892TIP3    H245168   0.941   3.128   2.760 -0.6359 -0.3521  0.7558
 7893TIP3   OH245169   2.243   3.644   4.437 -0.2293 -0.1916  0.7317
 7893TIP3    H145170   2.272   3.714   4.378 -0.3188 -0.0017  0.9135
 7893TIP3    H245171   2.239   3.567   4.381 -0.0815 -0.0635  0.5405
 7894TIP3   OH245172   1.440   4.329   4.590 -0.1674 -0.2890  0.1242
 7894TIP3    H145173   1.399   4.411   4.564  0.6159  0.1888  0.3345
 7894TIP3    H245174   1.423   4.269   4.518  2.0814  1.0352 -1.6487
 7895TIP3   OH245175   1.130   6.840  11.338 -0.6338 -0.0623  0.0717
 7895TIP3    H145176   1.083   6.758  11.321 -1.1823  0.6713 -2.2927
 7895TIP3    H245177   1.113   6.859  11.430 -3.0596 -1.0247 -0.1079
 7896TIP3   OH245178   2.074   6.542  16.296  0.0234 -0.0252  0.0333
 7896TIP3    H145179   2.135   6.616  16.291 -0.8995  0.7179 -0.7939
 7896TIP3    H245180   1.994   6.579  16.333 -0.0178 -0.9327  0.8898
 7897TIP3   OH245181   3.464   1.578   0.893 -0.2392 -0.1509 -0.6595
 7897TIP3    H145182   3.494   1.572   0.803  0.6664 -2.6136 -0.2713
 7897TIP3    H245183   3.400   1.508   0.902 -1.7565  1.2492  0.1617
 7898TIP3   OH245184   0.132   5.314   1.735  0.1156  0.4974  0.3870
 7898TIP3    H145185   0.039   5.321   1.713  0.0370  0.5853  0.7373
 7898TIP3    H245186   0.154   5.399   1.773  1.0918  1.5948 -2.4370
 7899TIP3   OH245187   5.165   5.371  15.450  0.3396 -0.0780  0.1983
 7899TIP3    H145188   5.154   5.466  15.439  3.7168  0.1525 -3.6053
 7899TIP3    H245189   5.102   5.332  15.390  0.6571 -0.0814 -0.1393
 7900TIP3   OH245190   3.932   5.572  16.915  0.2590  0.1843  0.1665
 7900TIP3    H145191   3.929   5.643  16.851  1.5502  0.3203  0.2271
 7900TIP3    H245192   3.841   5.562  16.945  0.2120  2.5192  0.9662
 7901TIP3   OH245193   0.145   2.023  14.930 -0.3314  0.2683 -0.2126
 7901TIP3    H145194   0.069   1.978  14.967  0.3840 -0.8234 -0.0354
 7901TIP3    H245195   0.217   2.000  14.988  0.3776  0.3245 -1.0519
 7902TIP3   OH245196   1.242   3.676   6.194 -0.3629 -0.7358 -0.2865
 7902TIP3    H145197   1.199   3.594   6.171 -0.7903 -0.2378 -1.3687
 7902TIP3    H245198   1.211   3.738   6.127 -2.4017  1.0951  2.1537
 7903TIP3   OH245199   6.596   6.040   3.068 -0.0755  0.3864 -0.5414
 7903TIP3    H145200   6.558   6.119   3.105 -2.4782 -0.0809 -1.8276
 7903TIP3    H245201   6.545   6.023   2.989  0.4390 -2.3758 -0.3926
 7904TIP3   OH245202   4.930   4.508  13.634  0.0437  0.3660 -0.7437
 7904TIP3    H145203   4.995   4.567  13.673 -0.3899 -0.0874  0.7188
 7904TIP3    H245204   4.982   4.452  13.576  1.1851 -0.6772  1.1813
 7905TIP3   OH245205   1.462   4.606   2.188 -0.1568 -0.0301  0.3275
 7905TIP3    H145206   1.511   4.588   2.269 -0.2123  1.5264  0.7283
 7905TIP3    H245207   1.468   4.701   2.176 -0.2354 -0.2121 -1.4561
 7906TIP3   OH245208   2.737   4.435   5.823  0.4224  0.1935  0.2970
 7906TIP3    H145209   2.783   4.434   5.907  2.4293 -0.1919 -0.7486
 7906TIP3    H245210   2.722   4.343   5.803 -0.2660  0.2934  0.3049
 7907TIP3   OH245211   3.756   2.959  10.959 -0.3235 -0.4014  0.3219
 7907TIP3    H145212   3.665   2.931  10.959  0.1108 -1.9021 -0.1139
 7907TIP3    H245213   3.764   3.012  10.880 -0.5069 -1.3906 -0.3739
 7908TIP3   OH245214   0.958   3.827   4.175 -0.3372  0.2295 -0.7169
 7908TIP3    H145215   0.937   3.755   4.235  1.5620 -0.7144 -1.1033
 7908TIP3    H245216   1.040   3.863   4.210  0.6830 -0.1868 -2.5547
 7909TIP3   OH245217   4.104   5.694   0.875  0.7768  0.0229  0.3317
 7909TIP3    H145218   4.041   5.663   0.940 -3.0047  0.4025 -2.7867
 7909TIP3    H245219   4.104   5.789   0.885 -1.6164  0.3047 -1.4903
 7910TIP3   OH245220   0.055   0.338   2.555  0.0434 -0.6168 -0.2017
 7910TIP3    H145221   0.074   0.266   2.496 -0.1521 -0.0605 -0.9548
 7910TIP3    H245222   0.054   0.416   2.499  1.8601  0.2187  0.8370
 7911TIP3   OH245223   3.279   3.956  11.298 -0.0381 -0.2158  0.2646
 7911TIP3    H145224   3.240   3.939  11.384  0.1726 -1.1660  0.1829
 7911TIP3    H245225   3.326   3.876  11.277 -0.1797 -0.0368 -0.7945
 7912TIP3   OH245226   1.074   5.226   5.677 -0.0124 -0.2050  0.2046
 7912TIP3    H145227   1.024   5.306   5.690  1.6570  0.7470  0.9323
 7912TIP3    H245228   1.094   5.195   5.765  0.1908 -0.8949 -0.0764
 7913TIP3   OH245229   1.490   5.499  11.327  0.1798  0.4047 -0.0260
 7913TIP3    H145230   1.409   5.451  11.307  0.2817  0.8648 -1.6283
 7913TIP3    H245231   1.543   5.490  11.249  1.4531  0.6367  0.7833
 7914TIP3   OH245232   2.652   6.236   2.512 -0.4115 -0.2486 -0.2700
 7914TIP3    H145233   2.578   6.176   2.519 -1.8141  1.4521  0.4392
 7914TIP3    H245234   2.620   6.307   2.455  0.3856  0.8963  0.6534
 7915TIP3   OH245235   3.984   3.497  14.216 -0.5174  0.0112 -0.0141
 7915TIP3    H145236   4.011   3.456  14.134 -1.1495 -2.4382  0.9333
 7915TIP3    H245237   3.889   3.490  14.217 -0.8895  3.3246 -0.6461
 7916TIP3   OH245238   6.660   3.815  11.042  0.5010  0.4500  0.3346
 7916TIP3    H145239   6.697   3.778  11.122  1.9595  1.9503  0.3889
 7916TIP3    H245240   6.702   3.900  11.032 -1.4149  1.3482 -0.7579
 7917TIP3   OH245241   1.215   5.545  16.581 -0.1857 -0.1068 -0.2504
 7917TIP3    H145242   1.279   5.474  16.571 -0.4952 -0.2381 -1.4532
 7917TIP3    H245243   1.249   5.598  16.653 -0.3739 -1.9191  1.2674
 7918TIP3   OH245244   1.144   0.741   2.757  0.6400 -0.2323 -0.1857
 7918TIP3    H145245   1.205   0.813   2.740  0.0183  0.6653  1.1815
 7918TIP3    H245246   1.197   0.674   2.800  1.9297 -1.9829 -4.0343
 7919TIP3   OH245247   3.941   4.495  13.765 -0.1942 -0.2690 -0.3106
 7919TIP3    H145248   3.942   4.514  13.671 -1.0363 -0.7473 -0.4326
 7919TIP3    H245249   3.918   4.578  13.806  1.2932  0.2203 -0.4294
 7920TIP3   OH245250   6.186   6.625   5.113 -0.6573  0.1180  0.5047
 7920TIP3    H145251   6.267   6.626   5.061 -0.7470  0.8255  0.3765
 7920TIP3    H245252   6.216   6.611   5.203 -0.5439 -1.7589  0.2101
 7921TIP3   OH245253   1.468   4.124   3.792  0.0007 -0.5719 -0.0426
 7921TIP3    H145254   1.521   4.114   3.714  2.0144 -1.4117  1.3629
 7921TIP3    H245255   1.493   4.210   3.828  0.4714 -0.9834  0.6421
 7922TIP3   OH245256   0.142   1.936   0.871  0.1496 -0.6078 -0.2265
 7922TIP3    H145257   0.228   1.975   0.886 -0.5034  1.0992 -0.5995
 7922TIP3    H245258   0.108   1.919   0.959  0.2892  0.0939 -0.0282
 7923TIP3   OH245259   1.858   2.256   3.029 -0.1676 -0.0666  0.1633
 7923TIP3    H145260   1.941   2.248   2.982 -0.3361 -0.7191 -0.0277
 7923TIP3    H245261   1.859   2.186   3.093 -1.0679 -0.8157 -0.6091
 7924TIP3   OH245262   1.506   5.148   4.167 -0.1512 -0.0712  0.2445
 7924TIP3    H145263   1.494   5.082   4.235  2.6101 -1.3908 -0.3734
 7924TIP3    H245264   1.574   5.206   4.202 -1.0354  1.1869 -0.0900
 7925TIP3   OH245265   2.095   2.880   1.500 -0.0383 -0.8465 -0.2777
 7925TIP3    H145266   2.156   2.806   1.501 -0.4791 -1.3294 -2.8744
 7925TIP3    H245267   2.115   2.927   1.418 -0.7105  1.1274  0.6200
 7926TIP3   OH245268   2.566   4.226   1.557  0.2958 -0.0466  0.5405
 7926TIP3    H145269   2.566   4.187   1.470  1.0088 -0.6640  0.8071
 7926TIP3    H245270   2.604   4.313   1.545 -0.1292  0.0846  0.1450
 7927TIP3   OH245271   2.401   1.389  14.739 -0.3387  0.3866  0.3542
 7927TIP3    H145272   2.339   1.326  14.703  0.7061  0.4736 -1.7322
 7927TIP3    H245273   2.369   1.474  14.709  0.4230  0.4860 -0.1922
 7928TIP3   OH245274   2.289   1.070   3.044  0.3105 -0.1914 -0.1144
 7928TIP3    H145275   2.258   1.150   3.003  1.7858 -0.1056 -1.1537
 7928TIP3    H245276   2.249   0.999   2.995 -0.6971 -0.1111  0.5664
 7929TIP3   OH245277   5.920   5.217   2.212 -0.1077 -0.1791  0.5136
 7929TIP3    H145278   5.861   5.255   2.147  1.0938 -0.5272 -0.8420
 7929TIP3    H245279   5.947   5.291   2.266  0.0821  0.4232 -0.3805
 7930TIP3   OH245280   3.006   1.500  13.678  0.2330  0.0322  0.0301
 7930TIP3    H145281   3.006   1.548  13.761 -0.4570  1.2870 -0.6675
 7930TIP3    H245282   3.099   1.491  13.656  0.3781  0.9733  0.2256
 7931TIP3   OH245283   1.159   5.079   4.430 -0.1931 -0.1586 -0.3885
 7931TIP3    H145284   1.090   5.108   4.372  0.8365  2.7962 -0.2959
 7931TIP3    H245285   1.227   5.147   4.424  1.3121 -1.2897  1.8969
 7932TIP3   OH245286   0.948   6.094   5.300 -0.4544 -0.2327 -0.1653
 7932TIP3    H145287   0.933   6.182   5.333  0.7085 -1.0799  3.1235
 7932TIP3    H245288   0.869   6.071   5.252 -0.6266  2.6695 -1.4141
 7933TIP3   OH245289   3.947   4.766  15.226 -0.7247  1.0036  0.1813
 7933TIP3    H145290   3.956   4.759  15.321  1.0068 -2.8081 -0.0881
 7933TIP3    H245291   3.908   4.682  15.200  3.3346 -0.2837 -2.7620
 7934TIP3   OH245292   3.222   2.614   4.999  0.1942 -0.3411 -0.0883
 7934TIP3    H145293   3.201   2.588   5.088 -0.6417 -0.8299 -0.4208
 7934TIP3    H245294   3.255   2.704   5.008 -1.1721  0.1232  0.5710
 7935TIP3   OH245295   0.982   3.086   1.660  0.1085  0.3069  0.6181
 7935TIP3    H145296   0.893   3.114   1.684  0.4344  0.7712  1.3383
 7935TIP3    H245297   0.986   3.098   1.566 -0.1248  1.7158  0.7595
 7936TIP3   OH245298   0.553   2.240  12.399 -0.4704  0.3313 -0.1531
 7936TIP3    H145299   0.625   2.178  12.386 -1.5623 -1.2323  0.8971
 7936TIP3    H245300   0.474   2.186  12.397 -1.3183  1.1659  3.6175
 7937TIP3   OH245301   4.147   6.180   2.352  0.1543  0.1494  0.4113
 7937TIP3    H145302   4.185   6.128   2.281 -2.4001 -1.2441 -0.0627
 7937TIP3    H245303   4.169   6.131   2.431  1.2902  0.6239  0.4070
 7938TIP3   OH245304   1.855   0.661   6.462  0.0909 -0.1052  0.0244
 7938TIP3    H145305   1.927   0.724   6.459  0.2113 -0.2636 -0.5754
 7938TIP3    H245306   1.844   0.633   6.371  0.9344 -1.9322  0.4293
 7939TIP3   OH245307   6.556   4.153  15.774  0.2906  0.0999 -0.0815
 7939TIP3    H145308   6.486   4.176  15.835 -0.7342  0.0813 -1.2212
 7939TIP3    H245309   6.535   4.064  15.745  0.2281  0.4579 -1.1814
 7940TIP3   OH245310   6.287   5.303   2.753 -0.2909  0.2883  0.1255
 7940TIP3    H145311   6.289   5.251   2.833 -0.6999  0.2848  0.1336
 7940TIP3    H245312   6.301   5.393   2.782  0.2704  0.2041  0.1259
 7941TIP3   OH245313   5.172   1.080   3.707  1.0700 -0.3536 -0.3020
 7941TIP3    H145314   5.179   0.988   3.735 -0.1052 -1.0891 -2.2031
 7941TIP3    H245315   5.078   1.097   3.704  1.2806  1.2386  0.8589
 7942TIP3   OH245316   0.114   5.925  11.171  0.1164 -0.0538 -0.5789
 7942TIP3    H145317   0.142   6.007  11.213  0.3798 -0.1774 -0.5172
 7942TIP3    H245318   0.118   5.944  11.078 -1.5556  0.6004 -0.5661
 7943TIP3   OH245319   2.004   4.579   5.835  0.2412 -0.2430 -0.2762
 7943TIP3    H145320   1.970   4.662   5.804 -0.9384 -1.3734 -2.2131
 7943TIP3    H245321   2.098   4.583   5.818  0.7280  1.6851  2.2157
 7944TIP3   OH245322   5.151   0.822  16.033 -0.2399  0.0416 -0.2086
 7944TIP3    H145323   5.174   0.898  16.087  0.2980 -1.5455  1.9176
 7944TIP3    H245324   5.077   0.852  15.980  1.2365  2.6533 -0.9490
 7945TIP3   OH245325   2.546   3.523  15.829 -0.1101  0.1240  0.0783
 7945TIP3    H145326   2.577   3.613  15.845  0.3117 -0.1346  0.7511
 7945TIP3    H245327   2.453   3.534  15.808 -0.3165  0.6311  1.1947
 7946TIP3   OH245328   2.101   5.982  12.751 -0.1872 -0.2571  0.1706
 7946TIP3    H145329   2.074   5.936  12.672  2.8854 -0.8059 -0.6809
 7946TIP3    H245330   2.087   5.919  12.822 -1.3277 -0.3845 -0.1463
 7947TIP3   OH245331   6.748   4.150   3.181  0.3789  0.3207  0.2230
 7947TIP3    H145332   6.824   4.189   3.137 -0.0135  1.7383  0.7476
 7947TIP3    H245333   6.784   4.078   3.232  1.4285  1.0827  0.6023
 7948TIP3   OH245334   1.911   6.778   4.193 -0.0014  0.1182 -0.0823
 7948TIP3    H145335   1.886   6.686   4.193 -2.0436  0.6076  1.1111
 7948TIP3    H245336   1.841   6.823   4.145  0.8524  1.0841 -0.4667
 7949TIP3   OH245337   1.680   5.179   1.554 -0.2354  0.5007 -0.3291
 7949TIP3    H145338   1.728   5.231   1.490  0.2805  1.0246  0.4543
 7949TIP3    H245339   1.671   5.093   1.515  0.2493  0.7580 -1.0084
 7950TIP3   OH245340   6.161   1.622  16.047 -0.0946 -0.2541  0.0196
 7950TIP3    H145341   6.146   1.633  16.140 -0.3057 -0.1056 -0.0332
 7950TIP3    H245342   6.176   1.710  16.013 -0.2233 -0.2862 -0.1233
 7951TIP3   OH245343   4.564   3.090   5.860 -0.1261 -0.1265  0.2836
 7951TIP3    H145344   4.528   3.006   5.889  2.7730 -2.5609 -2.4597
 7951TIP3    H245345   4.611   3.122   5.937 -1.3995 -0.8852  1.4376
 7952TIP3   OH245346   3.824   6.373   5.208  0.5463 -0.6753 -0.2345
 7952TIP3    H145347   3.866   6.452   5.174 -0.8506  0.3555  0.3928
 7952TIP3    H245348   3.752   6.356   5.148 -1.0623  0.3412  1.3120
 7953TIP3   OH245349   3.833   2.670  13.862  0.2629  0.0958  0.5612
 7953TIP3    H145350   3.743   2.638  13.863  0.1773  0.1455 -1.5834
 7953TIP3    H245351   3.827   2.760  13.829  1.2633 -0.9939 -3.1431
 7954TIP3   OH245352   1.808   4.574  16.518 -0.6554  0.1559 -0.4159
 7954TIP3    H145353   1.842   4.530  16.440 -0.9147  0.7279 -0.8574
 7954TIP3    H245354   1.731   4.523  16.543 -2.2443  1.5578 -2.1985
 7955TIP3   OH245355   5.971   2.667   5.158  0.6528 -0.2902 -0.1049
 7955TIP3    H145356   6.030   2.609   5.110  0.6078 -0.8112  0.4484
 7955TIP3    H245357   5.904   2.608   5.194  1.5677 -0.1763  1.9475
 7956TIP3   OH245358   5.119   0.004  11.413  0.3382  0.1602  0.1922
 7956TIP3    H145359   5.055   0.059  11.368  0.8452  1.2622  0.7955
 7956TIP3    H245360   5.160  -0.047  11.342 -1.6100 -1.0455 -0.1367
 7957TIP3   OH245361   1.182   2.974   4.886  0.5667 -0.4600 -0.3588
 7957TIP3    H145362   1.169   2.984   4.980  1.0268  3.9698 -0.5574
 7957TIP3    H245363   1.256   2.914   4.879 -0.1979 -1.8168  2.0002
 7958TIP3   OH245364   0.562   1.604  15.388 -0.1859  0.6756  0.0287
 7958TIP3    H145365   0.533   1.666  15.455 -1.0120 -0.4239  0.7334
 7958TIP3    H245366   0.546   1.648  15.305  0.1735  1.7860  0.5272
 7959TIP3   OH245367   4.847   5.506   1.451  0.2106 -0.0189  0.3773
 7959TIP3    H145368   4.826   5.464   1.534  1.0378  0.7664  0.9906
 7959TIP3    H245369   4.924   5.560   1.469  0.3902  0.1849 -0.8883
 7960TIP3   OH245370   5.419   6.090  14.298  0.3616  0.0715 -0.9691
 7960TIP3    H145371   5.514   6.087  14.287  0.4592  0.1922 -0.2177
 7960TIP3    H245372   5.391   5.999  14.289  0.7726 -0.2465  0.5281
 7961TIP3   OH245373   3.962   3.409  11.648 -0.4195 -0.3847  0.1771
 7961TIP3    H145374   4.026   3.380  11.713 -0.7147 -0.0239  0.6291
 7961TIP3    H245375   3.987   3.362  11.568 -0.0135 -0.7758  0.5284
 7962TIP3   OH245376   0.798   5.060  14.564  0.2476  0.2071  0.1906
 7962TIP3    H145377   0.824   5.046  14.473 -0.2818 -0.4184  0.1265
 7962TIP3    H245378   0.810   5.154  14.579 -1.8431  0.7832 -1.2493
 7963TIP3   OH245379   1.263   4.468  16.502 -0.0485 -0.6563  0.5183
 7963TIP3    H145380   1.245   4.403  16.434  0.2651 -0.4531  0.2371
 7963TIP3    H245381   1.321   4.423  16.564  1.3416 -0.2280 -0.4098
 7964TIP3   OH245382   3.028   4.495  12.755  0.6376 -0.2076 -0.1955
 7964TIP3    H145383   2.953   4.555  12.759  0.1711 -0.8075  2.2675
 7964TIP3    H245384   3.015   4.445  12.675 -3.1545 -2.0532  1.3038
 7965TIP3   OH245385   3.456   2.643  13.617 -0.1164  0.2279  0.1918
 7965TIP3    H145386   3.393   2.613  13.552  0.9756 -4.7145  1.0312
 7965TIP3    H245387   3.539   2.644  13.571  0.4065 -1.7142  1.0092
 7966TIP3   OH245388   2.937   5.345  11.208 -0.2065 -0.5204  0.0240
 7966TIP3    H145389   2.993   5.283  11.161 -1.3341 -1.5899  0.0497
 7966TIP3    H245390   2.849   5.309  11.200 -1.0683  1.6772 -0.8966
 7967TIP3   OH245391   4.090   6.224  15.676  0.6603 -0.1191 -0.0806
 7967TIP3    H145392   4.060   6.233  15.766  0.1003  0.5351 -0.3271
 7967TIP3    H245393   4.010   6.224  15.623  0.9578 -0.9140 -0.5537
 7968TIP3   OH245394   6.490   5.262  14.661  0.3172  0.3647 -0.2615
 7968TIP3    H145395   6.404   5.233  14.693  0.4596  0.5905  0.3382
 7968TIP3    H245396   6.547   5.257  14.738  0.6216  1.0909 -0.4385
 7969TIP3   OH245397   3.038   3.926  14.684  0.0806 -0.0734 -0.2338
 7969TIP3    H145398   3.111   3.984  14.703  0.9286 -1.4542  0.9726
 7969TIP3    H245399   3.066   3.840  14.716 -1.5750 -0.9183 -0.8823
 7970TIP3   OH245400   4.468   4.301   4.981  0.5407 -0.3584 -0.1113
 7970TIP3    H145401   4.535   4.349   5.031 -1.3211  0.8076  1.4517
 7970TIP3    H245402   4.472   4.212   5.015 -0.8738  0.4683  2.5333
 7971TIP3   OH245403   5.776   0.873  15.334 -0.2556 -0.8211 -0.0657
 7971TIP3    H145404   5.845   0.869  15.268  0.0703 -1.7976  0.3069
 7971TIP3    H245405   5.760   0.781  15.357 -0.3843 -0.5107  1.1848
 7972TIP3   OH245406   4.338   2.675   1.067  0.0610 -0.5108 -0.2859
 7972TIP3    H145407   4.318   2.763   1.100  2.5923 -0.1730  0.5463
 7972TIP3    H245408   4.256   2.627   1.077 -1.5745  1.8552 -1.2400
 7973TIP3   OH245409   5.886   4.078   6.574  0.5298 -0.1708 -0.1010
 7973TIP3    H145410   5.958   4.015   6.572  0.3485 -0.3561 -0.7702
 7973TIP3    H245411   5.833   4.057   6.498  0.1216  0.3883  0.0246
 7974TIP3   OH245412   5.634   6.705  13.790  0.2785  0.1173 -0.4019
 7974TIP3    H145413   5.599   6.776  13.737  1.5116  0.6792 -0.4949
 7974TIP3    H245414   5.578   6.630  13.769 -1.6202  1.2432  0.3773
 7975TIP3   OH245415   1.621   6.747  16.866 -0.7433 -0.1097  0.3434
 7975TIP3    H145416   1.602   6.659  16.832  0.4971  0.6501 -2.6380
 7975TIP3    H245417   1.563   6.804  16.816 -0.7785  0.8886  1.4920
 7976TIP3   OH245418   5.413   6.788  11.422  0.4377  0.2101  0.5251
 7976TIP3    H145419   5.356   6.799  11.346 -0.6652 -1.3998  1.0778
 7976TIP3    H245420   5.413   6.694  11.439  1.7234  0.3951  1.7299
 7977TIP3   OH245421   4.160   4.006  16.469 -0.3421 -0.7038  0.4437
 7977TIP3    H145422   4.206   4.064  16.529 -2.8695 -0.2446  2.0746
 7977TIP3    H245423   4.229   3.973  16.411  2.0680 -0.3485  2.8870
 7978TIP3   OH245424   2.552   4.167  15.932 -0.0455  0.1649  0.2543
 7978TIP3    H145425   2.505   4.100  15.882  2.1226 -0.6162 -0.8846
 7978TIP3    H245426   2.573   4.123  16.015 -0.7101  0.2711  0.4793
 7979TIP3   OH245427   3.113   5.248  12.930 -0.3821  0.2048  0.0694
 7979TIP3    H145428   3.203   5.256  12.962  0.3362  0.1923 -1.8045
 7979TIP3    H245429   3.090   5.337  12.903 -0.3927 -0.0450 -0.7678
 7980TIP3   OH245430   3.992   2.996  12.229  0.1003  0.4634 -0.1743
 7980TIP3    H145431   4.007   3.091  12.232  2.9929  0.0624  0.9943
 7980TIP3    H245432   3.935   2.979  12.304 -0.0230  1.2117 -0.0898
 7981TIP3   OH245433   2.517   2.697  15.077 -0.4540  0.0779 -0.3666
 7981TIP3    H145434   2.593   2.640  15.067 -1.2726 -0.6997 -3.2421
 7981TIP3    H245435   2.500   2.699  15.171  1.8760 -1.3365  0.1652
 7982TIP3   OH245436   4.173   1.799   5.580  0.1199 -0.3349 -0.3879
 7982TIP3    H145437   4.239   1.864   5.602  0.0941 -0.3828 -0.1671
 7982TIP3    H245438   4.156   1.813   5.487  1.6038 -1.3735 -0.8520
 7983TIP3   OH245439   0.176   1.954  14.236 -0.1770 -0.2477  0.1516
 7983TIP3    H145440   0.221   1.895  14.297 -0.0873 -1.9440 -1.4779
 7983TIP3    H245441   0.214   1.934  14.151 -0.4727  1.8921 -0.5593
 7984TIP3   OH245442   1.657   3.336  15.665  0.0694 -0.0587 -0.1543
 7984TIP3    H145443   1.577   3.336  15.718  0.8350 -0.9404  1.0526
 7984TIP3    H245444   1.727   3.316  15.727  1.3740  1.6133 -1.0007
 7985TIP3   OH245445   5.064   2.468   0.200 -0.1315  0.2948 -0.1648
 7985TIP3    H145446   5.055   2.480   0.105  1.8789 -0.7816 -0.5372
 7985TIP3    H245447   5.005   2.396   0.221 -0.5333  0.4940 -0.5881
 7986TIP3   OH245448   3.310   2.314   1.726 -0.0639  0.0507  0.3242
 7986TIP3    H145449   3.240   2.250   1.716 -0.5071  0.0651  2.6560
 7986TIP3    H245450   3.274   2.396   1.692 -1.3899  0.1508  1.8430
 7987TIP3   OH245451   5.416   3.340   5.733 -0.3513  0.5511  0.1950
 7987TIP3    H145452   5.385   3.249   5.735 -1.2227  0.8054 -0.7836
 7987TIP3    H245453   5.380   3.379   5.813  2.0721 -0.5417  1.9629
 7988TIP3   OH245454   6.106   6.317   1.925  0.3381 -0.4963 -0.6472
 7988TIP3    H145455   6.134   6.406   1.946  0.8219 -0.9197  0.6008
 7988TIP3    H245456   6.018   6.309   1.961  0.7689 -0.8898  0.3813
 7989TIP3   OH245457   6.821   4.767   5.348  0.4076 -0.3162 -0.3581
 7989TIP3    H145458   6.841   4.859   5.363  0.3252 -0.3229 -0.2012
 7989TIP3    H245459   6.842   4.725   5.432  1.0321 -0.5354 -0.6188
 7990TIP3   OH245460   2.509   2.050   5.471  0.3138 -0.2311 -0.3161
 7990TIP3    H145461   2.539   2.125   5.521 -1.4391 -0.0015  0.4507
 7990TIP3    H245462   2.497   2.083   5.382  0.8009  0.0547 -0.2776
 7991TIP3   OH245463   6.140   3.366   1.683  0.4092  0.2020  0.6524
 7991TIP3    H145464   6.136   3.418   1.763 -1.0109  1.3328 -0.0998
 7991TIP3    H245465   6.065   3.307   1.688  0.3078  0.2849  0.1464
 7992TIP3   OH245466   0.015   0.910   4.001 -0.4540 -0.1571 -0.9126
 7992TIP3    H145467  -0.022   0.829   4.037 -1.4143  0.4362 -0.5293
 7992TIP3    H245468   0.107   0.888   3.983 -0.1213 -0.7194  1.1732
 7993TIP3   OH245469   2.994   0.633   3.334 -0.2392 -0.3500 -0.4140
 7993TIP3    H145470   3.015   0.555   3.283  0.3490 -0.9173  0.6473
 7993TIP3    H245471   3.054   0.629   3.409  0.1459  1.3792 -0.5818
 7994TIP3   OH245472   1.672   2.824   2.370  0.4057 -0.4111  0.2262
 7994TIP3    H145473   1.593   2.784   2.406 -0.2209  0.0066 -0.6598
 7994TIP3    H245474   1.698   2.765   2.299 -0.6373  0.8010 -1.2241
 7995TIP3   OH245475   0.970   4.472  17.014  0.5726 -0.1281 -0.1313
 7995TIP3    H145476   1.003   4.554  16.978  0.2040  0.4227  0.7498
 7995TIP3    H245477   0.965   4.488  17.108  0.8992 -1.3103  0.1038
 7996TIP3   OH245478   6.818   2.531   2.377  0.1894 -0.5263 -0.0281
 7996TIP3    H145479   6.908   2.560   2.388 -0.2703  1.2217 -0.4445
 7996TIP3    H245480   6.767   2.590   2.432 -0.8862 -0.0633 -1.4393
 7997TIP3   OH245481   3.484   5.240   2.698 -0.3651 -0.5021  0.5483
 7997TIP3    H145482   3.390   5.231   2.713 -0.3811 -1.4129 -0.0092
 7997TIP3    H245483   3.510   5.157   2.658  0.0579  0.8870 -2.3761
 7998TIP3   OH245484   1.468   6.252   1.251 -0.1964  0.4003  0.1485
 7998TIP3    H145485   1.464   6.168   1.205  0.0687  1.4025 -1.8168
 7998TIP3    H245486   1.551   6.290   1.224 -0.5762  1.5468  0.5500
 7999TIP3   OH245487   3.685   1.763   4.030  0.5000  0.0318 -0.2664
 7999TIP3    H145488   3.728   1.737   3.948 -1.3867  0.2996 -1.4081
 7999TIP3    H245489   3.591   1.758   4.010 -0.0130  0.0390  1.9259
 8000TIP3   OH245490   6.779   0.269   0.567 -0.1537  0.3568 -0.0077
 8000TIP3    H145491   6.752   0.308   0.484 -1.1961 -0.1404  0.0818
 8000TIP3    H245492   6.862   0.311   0.588 -0.8988  2.0043 -0.2507
 8001TIP3   OH245493   1.321   5.484  13.028  0.2061  0.1986  0.1196
 8001TIP3    H145494   1.399   5.529  13.061 -0.8977  1.1008  1.6871
 8001TIP3    H245495   1.269   5.553  12.987 -0.5719 -0.0038  0.7240
 8002TIP3   OH245496   3.480   4.234  12.548 -0.0771  0.1690  0.4807
 8002TIP3    H145497   3.416   4.192  12.491  2.4524 -2.8084 -0.4259
 8002TIP3    H245498   3.520   4.162  12.596  1.9769  1.9808  1.6400
 8003TIP3   OH245499   3.684   5.369   2.997  0.2693  0.2677  0.2902
 8003TIP3    H145500   3.695   5.360   3.092 -0.0723  1.7081  0.4834
 8003TIP3    H245501   3.650   5.458   2.985  0.5393  0.1887 -1.2060
 8004TIP3   OH245502   3.805   2.659   5.844  0.3420  0.5305 -0.4728
 8004TIP3    H145503   3.809   2.750   5.875 -0.4910  0.2356  0.5224
 8004TIP3    H245504   3.727   2.656   5.789  0.6687  0.5385 -0.9434
 8005TIP3   OH245505   5.825   3.452   2.381  0.2452  0.3086  0.5200
 8005TIP3    H145506   5.753   3.424   2.438 -1.3299 -0.0654 -1.5545
 8005TIP3    H245507   5.872   3.371   2.361 -1.4508 -0.2254 -1.6324
 8006TIP3   OH245508   3.406   0.546   4.731  0.0759  0.2005  0.0823
 8006TIP3    H145509   3.393   0.582   4.819 -0.3589  0.0219  0.0917
 8006TIP3    H245510   3.492   0.505   4.734 -0.9669 -2.0495  1.1880
 8007TIP3   OH245511   1.075   2.744  12.603  0.1898  0.2259  0.0346
 8007TIP3    H145512   0.995   2.795  12.584  1.0576  1.1963 -1.1957
 8007TIP3    H245513   1.119   2.737  12.518  0.6232 -1.7217  0.3778
 8008TIP3   OH245514   1.048   1.901   4.193  0.0201  0.6275  0.0598
 8008TIP3    H145515   0.956   1.884   4.211  0.5635 -1.9654  0.8298
 8008TIP3    H245516   1.075   1.829   4.136  1.2322  2.2001 -1.4364
 8009TIP3   OH245517   4.231   6.154  15.136  0.1186 -0.1914 -0.4131
 8009TIP3    H145518   4.294   6.225  15.140 -1.3629  1.1024  1.1962
 8009TIP3    H245519   4.233   6.114  15.223 -0.3472 -1.0007 -0.7559
 8010TIP3   OH245520   3.462   2.196  11.978  0.5193  0.3955 -0.2080
 8010TIP3    H145521   3.394   2.257  11.950 -0.5665 -0.6571  0.0671
 8010TIP3    H245522   3.417   2.112  11.989  1.7323 -0.1807  0.6201
 8011TIP3   OH245523   1.615   3.730   3.851  0.4151 -0.4626  0.6488
 8011TIP3    H145524   1.627   3.824   3.869 -0.5043 -0.2827  0.3680
 8011TIP3    H245525   1.536   3.726   3.798  0.3389 -1.4244  0.8254
 8012TIP3   OH245526   2.967   0.893   5.411 -0.1427  0.2797 -0.5094
 8012TIP3    H145527   2.949   0.905   5.318  0.0480 -0.1113 -0.5944
 8012TIP3    H245528   3.028   0.964   5.433  0.7155 -0.3184 -0.9420
 8013TIP3   OH245529   3.672   1.426  15.502  0.2318  0.6981 -0.0625
 8013TIP3    H145530   3.588   1.383  15.517  0.9600 -0.0218  2.3427
 8013TIP3    H245531   3.735   1.354  15.493  0.9305  1.2318  0.3997
 8014TIP3   OH245532   5.694   6.419  16.508  0.3638 -0.1185 -1.1348
 8014TIP3    H145533   5.711   6.343  16.564 -0.3005  1.4355  1.3298
 8014TIP3    H245534   5.774   6.471  16.513  0.3178  0.0087 -1.6921
 8015TIP3   OH245535   6.677   6.533  12.164 -0.2372  0.2671 -0.6488
 8015TIP3    H145536   6.644   6.510  12.250  0.3607  0.7686 -0.2735
 8015TIP3    H245537   6.750   6.593  12.182 -1.1040  1.6457 -1.5431
 8016TIP3   OH245538   3.403   4.613  15.713 -0.2229 -0.3122 -0.0139
 8016TIP3    H145539   3.364   4.529  15.737  0.6959 -0.7455  0.0170
 8016TIP3    H245540   3.372   4.629  15.624 -1.6312  0.0734  0.5359
 8017TIP3   OH245541   4.310   6.423   6.387  0.5684 -0.1167  0.4390
 8017TIP3    H145542   4.302   6.357   6.456 -1.5655 -0.0510  0.3108
 8017TIP3    H245543   4.220   6.440   6.359  1.2922  0.7463 -1.5346
 8018TIP3   OH245544   4.733   6.322  11.477 -0.1408  0.2865 -0.3297
 8018TIP3    H145545   4.667   6.373  11.525  0.1379  0.7545 -0.4297
 8018TIP3    H245546   4.814   6.334  11.528  0.7437  2.7038 -2.0588
 8019TIP3   OH245547   6.691   1.625   0.923 -0.6449  1.0191  0.0582
 8019TIP3    H145548   6.735   1.661   0.845 -2.0662  2.2950 -0.2104
 8019TIP3    H245549   6.669   1.535   0.898 -1.6182  1.5832 -1.3099
 8020TIP3   OH245550   6.501   0.608  11.530  0.3156  0.2920  1.1548
 8020TIP3    H145551   6.569   0.597  11.463  0.6722  1.4006  1.2988
 8020TIP3    H245552   6.422   0.572  11.491  0.4012  1.3755 -0.0761
 8021TIP3   OH245553   6.640   1.092   2.851 -0.2015 -0.0846  0.1220
 8021TIP3    H145554   6.548   1.073   2.865 -0.0570  0.0405  1.3201
 8021TIP3    H245555   6.682   1.072   2.934  0.6552  1.0684 -0.0034
 8022TIP3   OH245556   4.074   5.116   4.421 -0.7828  0.2971 -0.5453
 8022TIP3    H145557   3.994   5.066   4.411 -0.3607 -0.3016 -0.9620
 8022TIP3    H245558   4.135   5.078   4.358  0.4218 -0.4487  0.9957
 8023TIP3   OH245559   2.897   2.838   2.622 -0.5448  0.2577  0.0969
 8023TIP3    H145560   2.975   2.787   2.641  0.0578  0.9981 -0.3441
 8023TIP3    H245561   2.889   2.898   2.697 -0.2234  0.7232 -0.2325
 8024TIP3   OH245562   3.489   4.477  12.148 -0.2927 -0.0669 -0.3189
 8024TIP3    H145563   3.452   4.429  12.074  0.8265  0.3784 -1.1857
 8024TIP3    H245564   3.580   4.491  12.125 -0.5482  2.4206 -0.0650
 8025TIP3   OH245565   0.352   2.602   0.117  0.5860  0.1777 -0.4616
 8025TIP3    H145566   0.262   2.629   0.098  0.5580 -0.6089 -1.5515
 8025TIP3    H245567   0.404   2.682   0.102  0.0056  0.8798  1.0513
 8026TIP3   OH245568   5.162   3.620   2.764  0.2447 -0.0650 -0.0834
 8026TIP3    H145569   5.073   3.594   2.741  0.1255  0.8282 -0.6695
 8026TIP3    H245570   5.170   3.710   2.732  1.0949  0.1431  0.6650
 8027TIP3   OH245571   2.411   4.267  12.072 -0.3794  0.2749  0.0804
 8027TIP3    H145572   2.490   4.217  12.051  0.3952  2.0955 -1.7545
 8027TIP3    H245573   2.444   4.345  12.116 -1.2390  0.6829  0.0123
 8028TIP3   OH245574   5.406   6.734   1.855  0.0088  0.1183 -0.7392
 8028TIP3    H145575   5.348   6.707   1.927  0.5748  1.8059  0.4204
 8028TIP3    H245576   5.469   6.663   1.847 -0.5502 -0.4686 -0.1205
 8029TIP3   OH245577   3.163   3.294  14.883 -0.3460  0.2491 -0.2134
 8029TIP3    H145578   3.132   3.380  14.911  1.5724  1.3347 -1.1999
 8029TIP3    H245579   3.148   3.237  14.958 -0.2641  1.8066  1.0439
 8030TIP3   OH245580   0.156   1.072  12.694  0.2090 -0.9039 -0.2480
 8030TIP3    H145581   0.076   1.062  12.747  1.1613  0.4003  1.5276
 8030TIP3    H245582   0.151   1.000  12.631 -1.7092 -1.6696  0.6801
 8031TIP3   OH245583   2.874   6.113   1.211  0.2922  0.6375  0.1137
 8031TIP3    H145584   2.878   6.059   1.133 -0.1435  1.6187 -0.6127
 8031TIP3    H245585   2.862   6.202   1.178  0.8659  1.1700  1.2723
 8032TIP3   OH245586   3.290   1.420  13.604  0.3298 -0.0124 -0.1831
 8032TIP3    H145587   3.312   1.329  13.583 -1.0757 -0.7576  1.3172
 8032TIP3    H245588   3.329   1.434  13.691 -0.5009  0.4019  0.1283
 8033TIP3   OH245589   3.189   1.079   5.429 -0.1706  0.3426  0.0969
 8033TIP3    H145590   3.222   1.057   5.342 -0.2910  0.4965  0.0110
 8033TIP3    H245591   3.265   1.072   5.486 -0.3114 -0.8050  0.1679
 8034TIP3   OH245592   5.717   5.434   3.222 -0.1684 -0.1125 -0.8491
 8034TIP3    H145593   5.775   5.359   3.211  1.7165  0.8504  1.6890
 8034TIP3    H245594   5.642   5.414   3.166  1.2395 -2.8175 -1.9606
 8035TIP3   OH245595   5.894   6.530   0.834 -0.2749  0.3604  0.8599
 8035TIP3    H145596   5.814   6.552   0.883  0.4650 -0.4313  2.5116
 8035TIP3    H245597   5.864   6.519   0.744 -1.8257  1.2220  1.2202
 8036TIP3   OH245598   0.082   2.732   3.962  0.0011 -0.2362 -0.2693
 8036TIP3    H145599   0.004   2.779   3.934 -0.0786 -0.4333 -0.3770
 8036TIP3    H245600   0.080   2.739   4.057  0.5435  0.8730 -0.3161
 8037TIP3   OH245601   0.982   4.995   0.956 -0.3145  0.3398 -0.0701
 8037TIP3    H145602   1.012   5.073   1.003 -0.8253  0.7775 -0.4490
 8037TIP3    H245603   0.923   4.951   1.017 -2.5027  1.9228 -0.9209
 8038TIP3   OH245604   4.205   6.597  12.564 -0.4452 -0.4696 -0.6223
 8038TIP3    H145605   4.275   6.614  12.501  1.2773 -0.0929  1.2800
 8038TIP3    H245606   4.130   6.573  12.510  0.6500  0.7333 -2.8491
 8039TIP3   OH245607   3.438   1.211   1.709 -0.5908 -0.2359 -0.4800
 8039TIP3    H145608   3.383   1.218   1.631 -1.3991  0.1409  0.1207
 8039TIP3    H245609   3.437   1.298   1.747  1.4389  0.1359 -1.1177
 8040TIP3   OH245610   4.042   5.890   2.021 -0.1927 -0.4015  0.0623
 8040TIP3    H145611   4.128   5.903   2.060 -0.2560 -0.5223  0.2430
 8040TIP3    H245612   4.002   5.977   2.020 -0.6828 -0.5812  1.4239
 8041TIP3   OH245613   3.270   4.969  11.125  0.1069  0.4751  0.1582
 8041TIP3    H145614   3.197   5.030  11.123  1.8916  2.8667 -3.2814
 8041TIP3    H245615   3.258   4.915  11.046 -0.0415 -2.0180  1.7642
 8042TIP3   OH245616   0.141   1.150  12.258 -0.2238 -0.5484 -0.5686
 8042TIP3    H145617   0.143   1.237  12.296  1.4001 -1.2671  1.1707
 8042TIP3    H245618   0.053   1.118  12.273 -0.0930 -0.1612  1.1512
 8043TIP3   OH245619   2.045   3.506   5.133  0.2408  0.7980  0.2910
 8043TIP3    H145620   1.950   3.517   5.128  0.3631  1.6768 -0.3093
 8043TIP3    H245621   2.071   3.483   5.044  0.5530  0.1537  0.5410
 8044TIP3   OH245622   0.952   4.483  16.140 -0.0378  0.2263  0.2601
 8044TIP3    H145623   0.896   4.448  16.070 -0.3975 -0.6509  0.9598
 8044TIP3    H245624   0.952   4.577  16.126  1.3652 -0.0470 -2.0067
 8045TIP3   OH245625   2.067   5.057  16.143 -0.5491 -0.7218  0.4776
 8045TIP3    H145626   2.028   5.075  16.229 -0.3319 -0.9381  0.6253
 8045TIP3    H245627   2.084   5.143  16.106  0.9716 -0.5757  1.4047
 8046TIP3   OH245628   2.537   6.030   3.892 -0.0240  0.0395 -0.1575
 8046TIP3    H145629   2.593   5.992   3.960 -2.3996 -2.4013  0.6682
 8046TIP3    H245630   2.555   5.977   3.815  0.0361  0.3744 -0.3725
 8047TIP3   OH245631   4.346   2.915  11.191  0.3113  0.0060  0.0252
 8047TIP3    H145632   4.262   2.879  11.221  0.9790  0.4807  2.7181
 8047TIP3    H245633   4.382   2.848  11.133 -1.3765 -0.7328 -0.2304
 8048TIP3   OH245634   2.818   3.149   3.398 -0.7620  0.3611 -0.5381
 8048TIP3    H145635   2.871   3.072   3.377 -2.5395 -1.5344  1.3982
 8048TIP3    H245636   2.754   3.154   3.327 -2.3815 -1.7420  0.6790
 8049TIP3   OH245637   2.067   2.695  14.322  0.6146 -0.5126  0.1792
 8049TIP3    H145638   2.034   2.625  14.266  1.4651 -0.1223 -0.8351
 8049TIP3    H245639   1.989   2.744  14.348 -0.0170 -1.9237  1.0706
 8050TIP3   OH245640   1.398   4.163   2.750  0.5219 -0.2480 -0.4420
 8050TIP3    H145641   1.425   4.248   2.784 -1.2706 -0.3402  1.4121
 8050TIP3    H245642   1.442   4.099   2.805 -0.0005 -0.4575 -0.2554
 8051TIP3   OH245643   6.596   5.141  12.409 -0.2752 -0.0136  0.4059
 8051TIP3    H145644   6.517   5.135  12.356 -0.3459 -0.6879  0.5802
 8051TIP3    H245645   6.565   5.155  12.498 -0.1554  1.1042  0.2924
 8052TIP3   OH245646   4.566   5.030  12.991 -0.4646 -0.0369  0.1890
 8052TIP3    H145647   4.510   5.098  12.953 -0.9804 -0.0385  0.9290
 8052TIP3    H245648   4.641   5.077  13.026 -0.1295 -0.0037 -0.5578
 8053TIP3   OH245649   1.195   1.343  13.190 -0.4981  0.1827 -0.1668
 8053TIP3    H145650   1.120   1.292  13.160  0.1137 -1.2000  0.5777
 8053TIP3    H245651   1.264   1.278  13.204  0.9421  1.4425 -1.1041
 8054TIP3   OH245652   5.906   6.206   0.443  0.4223 -0.2717 -0.1962
 8054TIP3    H145653   5.815   6.182   0.458  0.5720 -0.9563 -0.3391
 8054TIP3    H245654   5.956   6.138   0.487  0.8616 -0.4821 -0.9918
 8055TIP3   OH245655   2.745   5.853  12.966 -0.0147 -0.3766  0.2408
 8055TIP3    H145656   2.709   5.843  13.054 -0.0004 -1.8296  0.1036
 8055TIP3    H245657   2.814   5.919  12.976 -0.4619 -0.0347  1.1777
 8056TIP3   OH245658   1.089   4.478  13.845  0.9247 -0.5912  0.9140
 8056TIP3    H145659   1.064   4.526  13.767  1.1289 -0.5709  0.8601
 8056TIP3    H245660   1.072   4.386  13.823 -0.3864 -0.4755  1.3667
 8057TIP3   OH245661   3.350   1.701   1.947  0.1710 -0.0585  0.0052
 8057TIP3    H145662   3.293   1.726   2.020  0.5720  0.7015  0.0641
 8057TIP3    H245663   3.294   1.705   1.870 -0.5515 -1.9345  0.3766
 8058TIP3   OH245664   1.012   1.851  16.302 -0.8064  0.3547 -0.1133
 8058TIP3    H145665   0.987   1.805  16.382 -1.1562 -0.7837 -0.8580
 8058TIP3    H245666   1.010   1.784  16.234  2.6201  0.5291 -0.5532
 8059TIP3   OH245667   5.899   0.111  16.741 -0.3802  0.4281  0.7019
 8059TIP3    H145668   5.949   0.103  16.822 -0.5896 -0.8701  0.7141
 8059TIP3    H245669   5.807   0.105  16.769 -0.4400 -0.5008  0.3223
 8060TIP3   OH245670   6.797   5.703   4.220  0.5999 -0.1414 -0.1987
 8060TIP3    H145671   6.825   5.711   4.311 -0.2417 -0.3009  0.0890
 8060TIP3    H245672   6.747   5.784   4.204  0.2142 -0.3969 -0.3123
 8061TIP3   OH245673   1.912   4.717  12.295  0.1252  0.9005  0.8385
 8061TIP3    H145674   1.910   4.693  12.388 -1.2251  0.6029  0.7477
 8061TIP3    H245675   1.984   4.665  12.259  0.3142  0.6086  1.6112
 8062TIP3   OH245676   2.883   5.837  14.358  0.3620 -0.1211 -0.0690
 8062TIP3    H145677   2.876   5.890  14.279 -0.3929  0.0528  0.1077
 8062TIP3    H245678   2.853   5.750  14.331 -2.6891  0.5928  0.6555
 8063TIP3   OH245679   0.172   3.663   1.325  0.1439  0.7076 -0.1652
 8063TIP3    H145680   0.124   3.619   1.254 -1.4218  0.6524  0.8738
 8063TIP3    H245681   0.214   3.593   1.373 -0.5025  0.5288  0.1578
 8064TIP3   OH245682   2.373   1.718  13.563  0.0061 -0.2277 -0.0298
 8064TIP3    H145683   2.301   1.717  13.626  0.0277  1.4747  0.0775
 8064TIP3    H245684   2.450   1.743  13.614 -0.0163  1.3850 -0.7165
 8065TIP3   OH245685   5.234   2.451   4.347  0.0317 -0.0312  0.1498
 8065TIP3    H145686   5.145   2.466   4.379 -0.3844  0.1452 -1.0503
 8065TIP3    H245687   5.286   2.518   4.391 -0.4388 -0.0701  0.7847
 8066TIP3   OH245688   4.148   4.116  14.804 -0.2430  0.0960  0.7129
 8066TIP3    H145689   4.195   4.198  14.817  1.4418 -0.8363  0.8238
 8066TIP3    H245690   4.167   4.065  14.883 -0.2650 -0.8629  0.1133
 8067TIP3   OH245691   2.394   1.433   3.799 -0.0076  0.0253  0.2234
 8067TIP3    H145692   2.299   1.442   3.808  0.2112  1.7324  1.2247
 8067TIP3    H245693   2.422   1.394   3.881  0.1911 -0.1918  0.0522
 8068TIP3   OH245694   1.207   5.890  15.142  0.0321 -0.5481  0.2049
 8068TIP3    H145695   1.229   5.910  15.233  0.7528 -1.0192  0.1427
 8068TIP3    H245696   1.143   5.819  15.147 -1.8189  1.0256  0.3961
 8069TIP3   OH245697   1.030   0.947   4.429  0.3459  0.8336 -0.3269
 8069TIP3    H145698   1.082   0.967   4.507  0.7954  0.3184 -0.4874
 8069TIP3    H245699   1.058   1.011   4.364  0.7343  0.6108 -0.3864
 8070TIP3   OH245700   5.348   6.284   2.504  0.5109 -0.0501 -0.5216
 8070TIP3    H145701   5.407   6.316   2.572  0.1797 -0.4595 -0.0262
 8070TIP3    H245702   5.281   6.236   2.553  0.8409 -1.2516 -1.2180
 8071TIP3   OH245703   0.238   4.887   4.515  0.2388  0.2785  0.4613
 8071TIP3    H145704   0.233   4.799   4.553  0.8340 -0.1158 -0.3556
 8071TIP3    H245705   0.331   4.906   4.509  0.1370  0.6099 -0.1644
 8072TIP3   OH245706   6.769   6.487  14.992 -0.0202 -0.1536 -0.4166
 8072TIP3    H145707   6.851   6.498  14.944  0.7475  0.1598  0.8884
 8072TIP3    H245708   6.731   6.575  14.994  1.4891  0.5430  2.0928
 8073TIP3   OH245709   1.063   1.447   5.954 -0.0733 -0.3676  0.6114
 8073TIP3    H145710   0.976   1.422   5.925 -0.3046  1.1575 -0.1378
 8073TIP3    H245711   1.077   1.398   6.035 -1.3075 -1.1970  0.3474
 8074TIP3   OH245712   2.004   0.174   1.792  0.3962  0.0665  0.5310
 8074TIP3    H145713   2.064   0.234   1.835  0.1466 -0.2028  1.2759
 8074TIP3    H245714   2.031   0.087   1.822 -0.3427 -0.0559  0.8649
 8075TIP3   OH245715   2.733   6.541  13.841  0.0212 -0.0136  0.2520
 8075TIP3    H145716   2.639   6.555  13.842 -0.2266 -1.4818 -0.2722
 8075TIP3    H245717   2.744   6.446  13.845  1.4452  0.0542 -0.9048
 8076TIP3   OH245718   6.068   0.535  15.696  0.2308 -0.0452  0.3921
 8076TIP3    H145719   6.127   0.572  15.761  1.2748 -1.6644  0.4361
 8076TIP3    H245720   5.983   0.574  15.715  1.0690  1.5651  0.9760
 8077TIP3   OH245721   4.252   6.691  17.021  0.3484 -0.0926 -0.2839
 8077TIP3    H145722   4.241   6.602  16.987  3.5455 -0.6763 -0.1611
 8077TIP3    H245723   4.253   6.746  16.942 -2.5255  0.0418 -0.3051
 8078TIP3   OH245724   0.540   3.024   1.452  0.2616  0.1219 -0.1212
 8078TIP3    H145725   0.522   3.112   1.485  1.7764 -0.0413  1.2707
 8078TIP3    H245726   0.519   2.966   1.526  1.4786 -0.4731 -0.2273
 8079TIP3   OH245727   2.943   3.656   0.078 -0.3418  0.2472 -0.0417
 8079TIP3    H145728   2.870   3.603   0.108  0.5752 -0.6909  0.6052
 8079TIP3    H245729   3.014   3.593   0.064  0.3208  1.1208 -0.7452
 8080TIP3   OH245730   3.943   4.934   6.384  0.2330  0.0573 -0.3092
 8080TIP3    H145731   3.859   4.971   6.357  0.2060  0.5297  0.3905
 8080TIP3    H245732   3.984   5.003   6.436  1.3113  0.0486 -1.1110
 8081TIP3   OH245733   4.300   4.570   0.913 -0.3492  0.4777 -0.4454
 8081TIP3    H145734   4.381   4.599   0.871 -0.0486  1.9985  1.0421
 8081TIP3    H245735   4.300   4.475   0.904  1.2534  0.5184 -1.0907
 8082TIP3   OH245736   4.814   2.324  13.902  0.5456 -0.2306  0.4706
 8082TIP3    H145737   4.895   2.343  13.856 -0.0201 -0.2266 -0.5470
 8082TIP3    H245738   4.834   2.342  13.994  1.2057  1.4567  0.0466
 8083TIP3   OH245739   6.536   3.816   2.029 -0.9448  0.2243  0.0701
 8083TIP3    H145740   6.623   3.797   1.993 -1.6090 -2.0663 -0.4929
 8083TIP3    H245741   6.554   3.862   2.111  0.8134 -0.2333 -0.0186
 8084TIP3   OH245742   4.521   2.747   3.670 -0.2987 -0.2886 -0.9380
 8084TIP3    H145743   4.440   2.783   3.705 -1.5043 -2.7848 -0.9394
 8084TIP3    H245744   4.523   2.776   3.578 -2.0550 -1.4658 -1.3906
 8085TIP3   OH245745   1.339   6.237   5.507  0.8311 -0.4963 -0.1312
 8085TIP3    H145746   1.269   6.212   5.567  0.5023 -0.5238 -0.5212
 8085TIP3    H245747   1.418   6.236   5.561  0.6161 -1.0016  0.1888
 8086TIP3   OH245748   5.873   6.644  13.186  0.3866  0.3580  0.5495
 8086TIP3    H145749   5.861   6.723  13.134  0.4451 -0.4151 -0.6957
 8086TIP3    H245750   5.796   6.639  13.242 -0.2124  0.6665 -0.2282
 8087TIP3   OH245751   2.921   3.682  10.588  0.3654  0.0650  0.3222
 8087TIP3    H145752   2.994   3.744  10.579  0.3198  0.2336  1.0596
 8087TIP3    H245753   2.843   3.737  10.596  0.1332 -0.1169 -0.5528
 8088TIP3   OH245754   0.990   0.734   1.106 -0.1230 -0.0093 -0.6953
 8088TIP3    H145755   1.018   0.815   1.064 -1.1232  0.2238 -0.9591
 8088TIP3    H245756   0.926   0.696   1.044 -1.8836  0.4981  0.7211
 8089TIP3   OH245757   0.712   4.982   6.306  0.3757  0.7146  0.1540
 8089TIP3    H145758   0.764   4.978   6.387 -1.3283  2.4542  1.4453
 8089TIP3    H245759   0.758   5.046   6.251  2.4506 -1.6480 -1.0756
 8090TIP3   OH245760   1.794   6.146  13.024 -0.4861  0.5497 -0.4455
 8090TIP3    H145761   1.880   6.108  13.009 -1.2723 -0.8956 -1.5048
 8090TIP3    H245762   1.749   6.083  13.079 -1.5419  0.2913 -1.5584
 8091TIP3   OH245763   1.379   0.138  11.623  0.0067 -0.1790  0.4267
 8091TIP3    H145764   1.328   0.097  11.693 -0.9257  0.3283  0.0489
 8091TIP3    H245765   1.315   0.185  11.570  0.9503  1.0432  0.3314
 8092TIP3   OH245766   4.323   0.724  12.059 -0.4181  0.3084  0.8105
 8092TIP3    H145767   4.290   0.659  11.996 -0.8313  1.7288 -0.5150
 8092TIP3    H245768   4.365   0.672  12.127 -1.2687 -1.3749  0.1231
 8093TIP3   OH245769   4.118   3.447  12.618 -0.0220 -0.2440  0.0186
 8093TIP3    H145770   4.091   3.473  12.706 -0.5208 -2.1453  0.4804
 8093TIP3    H245771   4.208   3.417  12.628  0.1442  0.1666 -0.2527
 8094TIP3   OH245772   1.975   1.448   2.701  0.0758  0.8075  0.1882
 8094TIP3    H145773   1.896   1.398   2.682 -0.0387  1.7469 -2.1080
 8094TIP3    H245774   1.944   1.537   2.717  0.6859  1.3607 -1.5399
 8095TIP3   OH245775   3.164   5.707   3.998 -0.2402 -0.3730 -0.5176
 8095TIP3    H145776   3.073   5.687   3.977 -0.3102 -0.3912 -0.1985
 8095TIP3    H245777   3.182   5.789   3.950  0.2171 -1.4514 -2.2869
 8096TIP3   OH245778   2.622   1.880  16.461 -0.1994 -0.1010 -0.1397
 8096TIP3    H145779   2.667   1.939  16.521 -1.0850 -0.4580  0.8938
 8096TIP3    H245780   2.680   1.876  16.384  0.9046  0.4305  0.6384
 8097TIP3   OH245781   4.814   5.149   4.866  0.1081  1.0007 -0.3322
 8097TIP3    H145782   4.720   5.141   4.851  0.0664 -0.5654  0.6004
 8097TIP3    H245783   4.854   5.124   4.783 -0.2829  2.3083 -0.9404
 8098TIP3   OH245784   2.858   5.766  14.639 -0.2865 -0.0553  0.4733
 8098TIP3    H145785   2.887   5.758  14.548 -1.2429  0.1771  0.1319
 8098TIP3    H245786   2.879   5.682  14.679  0.1695 -0.1454  0.0498
 8099TIP3   OH245787   6.590   0.549   2.435 -0.2130  0.5774 -0.0720
 8099TIP3    H145788   6.517   0.521   2.490  2.1630 -2.0207  2.0575
 8099TIP3    H245789   6.627   0.624   2.482 -0.5121  0.8290 -0.2381
 8100TIP3   OH245790   1.649   2.230   1.704  0.0839 -0.1189 -0.4479
 8100TIP3    H145791   1.595   2.175   1.762  0.3082 -0.2689 -0.3783
 8100TIP3    H245792   1.735   2.230   1.745 -0.2444  1.4066  0.2887
 8101TIP3   OH245793   4.486   0.835  12.595  0.0308 -0.5398  0.1561
 8101TIP3    H145794   4.532   0.814  12.676 -1.2738  0.0794  1.0914
 8101TIP3    H245795   4.394   0.845  12.621 -0.3528  0.0649 -1.3258
 8102TIP3   OH245796   0.207   3.125  16.246  0.2338 -0.0877 -0.5647
 8102TIP3    H145797   0.202   3.035  16.215  1.3622 -0.7492  1.0413
 8102TIP3    H245798   0.296   3.154  16.223 -0.1377  0.6467 -1.1243
 8103TIP3   OH245799   2.939   5.467   3.839  0.9933 -0.2947  0.4432
 8103TIP3    H145800   3.015   5.415   3.812 -0.5159 -1.9521 -0.7806
 8103TIP3    H245801   2.873   5.450   3.772  0.9118  4.6415 -1.1679
 8104TIP3   OH245802   6.664   4.864   5.055  0.0278 -0.4553 -0.9701
 8104TIP3    H145803   6.625   4.783   5.088 -1.0600 -0.2678 -1.7304
 8104TIP3    H245804   6.641   4.930   5.120  2.8258 -1.0791  0.8524
 8105TIP3   OH245805   2.298   2.990  15.699  0.7335  0.0249  0.3485
 8105TIP3    H145806   2.319   2.909  15.746  0.2774 -0.0499  0.4349
 8105TIP3    H245807   2.250   3.043  15.764  3.6009  1.6511  1.2987
 8106TIP3   OH245808   5.400   1.190   0.105 -0.3345  0.0338  0.0654
 8106TIP3    H145809   5.307   1.172   0.114 -0.0830 -0.7994  1.1421
 8106TIP3    H245810   5.426   1.142   0.026 -1.0311  1.2211 -0.9194
 8107TIP3   OH245811   3.371   2.921  13.696 -0.3773 -0.1695  0.2029
 8107TIP3    H145812   3.452   2.942  13.744  0.5488 -2.0937 -0.3853
 8107TIP3    H245813   3.384   2.831  13.667 -2.0637  0.0353 -1.3515
 8108TIP3   OH245814   1.642   2.105   3.715  0.0550  0.4943 -0.3884
 8108TIP3    H145815   1.647   2.174   3.781 -1.1100 -0.3266  0.6317
 8108TIP3    H245816   1.585   2.039   3.755  0.6465 -0.7789 -1.5689
 8109TIP3   OH245817   2.174   4.195   6.200 -0.5224 -0.3250  0.0034
 8109TIP3    H145818   2.090   4.185   6.245  0.6222 -1.0659  2.1460
 8109TIP3    H245819   2.195   4.288   6.208 -1.1767 -0.1093 -0.6671
 8110TIP3   OH245820   2.462   3.710   4.021 -0.0539 -0.0148  0.1166
 8110TIP3    H145821   2.505   3.795   4.025  0.1654 -0.1256  0.1372
 8110TIP3    H245822   2.522   3.655   3.970 -0.9080  0.2649 -1.2522
 8111TIP3   OH245823   6.692   4.111   0.770 -0.5761  0.5775 -0.2589
 8111TIP3    H145824   6.597   4.102   0.773 -0.6786  1.1643 -1.4801
 8111TIP3    H245825   6.712   4.132   0.679  0.6993  0.7778  0.0455
 8112TIP3   OH245826   3.111   1.203  16.189 -0.8209  0.0530 -0.1127
 8112TIP3    H145827   3.118   1.170  16.099 -0.0293 -2.4473  0.7869
 8112TIP3    H245828   3.147   1.292  16.185 -0.6266 -0.0763 -2.2278
 8113TIP3   OH245829   0.803   5.494   1.870  0.4697  0.3393 -0.0919
 8113TIP3    H145830   0.730   5.523   1.924 -0.7823 -0.8844 -1.0538
 8113TIP3    H245831   0.783   5.402   1.851  0.9189  0.6878 -2.5009
 8114TIP3   OH245832   6.538   5.542  15.490 -0.5858  0.1010 -0.1976
 8114TIP3    H145833   6.566   5.552  15.399 -0.5287 -2.2022 -0.4865
 8114TIP3    H245834   6.469   5.476  15.487 -1.4837  0.9002  1.3097
 8115TIP3   OH245835   3.658   4.989   5.605 -0.0499 -0.2645 -0.2677
 8115TIP3    H145836   3.693   5.044   5.675  1.9315 -2.9745  1.0606
 8115TIP3    H245837   3.724   4.994   5.536 -0.0159 -0.7092 -0.2686
 8116TIP3   OH245838   2.241   3.883   4.269 -0.2098 -0.1322  0.5751
 8116TIP3    H145839   2.190   3.906   4.347  0.5193 -0.3157  1.1119
 8116TIP3    H245840   2.331   3.877   4.299 -0.0329 -1.1143 -0.0897
 8117TIP3   OH245841   4.006   5.880   5.280 -0.6271 -0.4012 -0.0102
 8117TIP3    H145842   4.048   5.966   5.277 -0.3637 -0.5352 -0.2334
 8117TIP3    H245843   4.066   5.825   5.330 -1.0650 -0.3135  0.6202
 8118TIP3   OH245844   3.989   6.198  12.036 -0.2557 -0.4454 -0.0345
 8118TIP3    H145845   3.931   6.132  12.074 -2.0743  0.2835 -1.3913
 8118TIP3    H245846   3.981   6.273  12.095 -2.9962  0.6494 -1.6269
 8119TIP3   OH245847   5.583   1.965   4.517  0.2958  0.6892 -0.0342
 8119TIP3    H145848   5.579   2.005   4.430 -0.7142  1.0208  0.1514
 8119TIP3    H245849   5.666   1.917   4.517 -0.1399 -0.1454 -1.5342
 8120TIP3   OH245850   2.425   4.015  16.647 -0.7531  0.1953 -0.1963
 8120TIP3    H145851   2.500   4.048  16.597 -1.6596  1.5064 -0.7339
 8120TIP3    H245852   2.463   3.990  16.732  0.8040 -2.0618 -1.4580
 8121TIP3   OH245853   3.206   6.340  15.974  0.1617  0.1881  0.2798
 8121TIP3    H145854   3.190   6.431  16.001  0.4392  0.5352 -0.6676
 8121TIP3    H245855   3.142   6.324  15.905  0.6874 -0.0353 -0.1646
 8122TIP3   OH245856   2.176   5.085   1.011 -0.1195 -0.0765 -0.0239
 8122TIP3    H145857   2.206   5.015   0.954  2.6154  0.8345  0.1769
 8122TIP3    H245858   2.230   5.160   0.988  1.2952  0.3069  3.8405
 8123TIP3   OH245859   2.734   2.532  16.400 -0.2596 -0.3164  0.7744
 8123TIP3    H145860   2.645   2.568  16.405 -0.3195 -0.3674  0.2088
 8123TIP3    H245861   2.720   2.437  16.392 -0.1516 -0.3295  0.7469
 8124TIP3   OH245862   5.315   3.803  15.347  0.1231 -0.5136  0.0040
 8124TIP3    H145863   5.313   3.779  15.440 -0.1959 -0.2259  0.0754
 8124TIP3    H245864   5.383   3.748  15.309  0.7885 -0.0897  0.5619
 8125TIP3   OH245865   2.514   0.981  16.388  0.3137 -0.1443 -0.6498
 8125TIP3    H145866   2.516   1.021  16.475  0.2027  1.4645 -1.3610
 8125TIP3    H245867   2.438   1.018  16.345  0.7698 -0.3654 -1.6943
 8126TIP3   OH245868   4.962   4.892   0.736  0.0230  0.5765 -0.1787
 8126TIP3    H145869   5.021   4.932   0.672  2.0272  0.4013  1.4297
 8126TIP3    H245870   4.874   4.909   0.703  0.9543  0.8311 -2.7354
 8127TIP3   OH245871   2.835   0.374  12.406  0.0475 -0.2351 -0.0153
 8127TIP3    H145872   2.920   0.332  12.418  1.0115  1.2806 -1.1782
 8127TIP3    H245873   2.794   0.370  12.493  1.6993 -0.1696  0.8071
 8128TIP3   OH245874   0.024   5.023  16.255  0.3425  0.3809  0.8551
 8128TIP3    H145875  -0.055   5.075  16.241 -0.5084 -0.7494  1.2637
 8128TIP3    H245876   0.083   5.081  16.303  0.0210  1.4532 -0.0220
 8129TIP3   OH245877   2.841   1.741   2.921 -0.3411 -0.0650 -0.9749
 8129TIP3    H145878   2.781   1.753   2.847  0.8323 -3.5203 -2.7644
 8129TIP3    H245879   2.922   1.784   2.893 -0.3535 -0.1101 -1.0843
 8130TIP3   OH245880   5.275   4.926  15.871  0.3386 -0.0455  1.0842
 8130TIP3    H145881   5.202   4.909  15.930 -0.3944 -0.5358  0.0785
 8130TIP3    H245882   5.275   4.851  15.811  1.5342  0.0556  0.9189
 8131TIP3   OH245883   2.207   1.770  11.870  0.5045  0.0625 -0.2898
 8131TIP3    H145884   2.256   1.849  11.890  0.3825  0.1690 -0.4131
 8131TIP3    H245885   2.232   1.748  11.781  1.1380 -0.4783  0.0097
 8132TIP3   OH245886   1.580   1.221   6.279 -0.3703 -0.0607  0.3306
 8132TIP3    H145887   1.567   1.315   6.264 -0.7629 -0.2397 -0.4631
 8132TIP3    H245888   1.511   1.197   6.340 -0.5438  0.0741  0.1879
 8133TIP3   OH245889   2.775   4.444   1.696  0.3032 -0.0886 -0.2313
 8133TIP3    H145890   2.842   4.493   1.743 -0.3450  0.1944  0.4281
 8133TIP3    H245891   2.718   4.512   1.659  0.3423 -0.3233 -0.7238
 8134TIP3   OH245892   5.619   0.970  16.356 -0.1337 -0.3145 -0.1924
 8134TIP3    H145893   5.563   0.893  16.365 -0.4493  0.1026  2.2008
 8134TIP3    H245894   5.670   0.954  16.277 -2.1771 -1.6541 -1.3135
 8135TIP3   OH245895   2.505   6.320   4.787  0.3099 -0.1938  0.4392
 8135TIP3    H145896   2.504   6.246   4.727  0.8246 -0.6199  0.9464
 8135TIP3    H245897   2.569   6.296   4.854  0.6028  0.7711  0.5284
 8136TIP3   OH245898   5.712   1.115  12.510 -0.2950  0.6307  0.0012
 8136TIP3    H145899   5.728   1.045  12.573 -2.2525 -0.9684 -1.1483
 8136TIP3    H245900   5.671   1.071  12.435 -0.7151  2.8794 -1.1785
 8137TIP3   OH245901   2.079   1.304  12.833  0.0307  0.0695 -0.3004
 8137TIP3    H145902   2.073   1.350  12.917  0.3786  1.1528 -0.8534
 8137TIP3    H245903   2.004   1.337  12.782 -0.4831 -0.9647 -0.2525
 8138TIP3   OH245904   2.666   0.552   6.369 -0.1808 -0.1481 -0.3509
 8138TIP3    H145905   2.604   0.588   6.433 -1.1395 -2.7490  0.3265
 8138TIP3    H245906   2.625   0.471   6.339  1.4886 -0.3646 -2.3052
 8139TIP3   OH245907   1.265   6.782   3.542 -1.0690  0.0433 -0.7722
 8139TIP3    H145908   1.297   6.796   3.631 -1.5641 -0.8773 -0.4397
 8139TIP3    H245909   1.250   6.870   3.508  0.2304  0.4522 -0.3698
 8140TIP3   OH245910   1.350   2.062   3.798  0.1846  0.3750 -0.0776
 8140TIP3    H145911   1.305   2.128   3.745 -0.6666 -0.1850 -0.0674
 8140TIP3    H245912   1.393   2.113   3.867 -0.9348  0.8884  0.2692
 8141TIP3   OH245913   3.422   1.421  12.607  0.1326  0.1127  0.4726
 8141TIP3    H145914   3.495   1.400  12.548  0.0400  1.1089 -0.0164
 8141TIP3    H245915   3.425   1.352  12.674 -0.1066 -1.3693 -0.9895
 8142TIP3   OH245916   2.264   0.031  12.358  0.0099  0.3391  0.4698
 8142TIP3    H145917   2.265  -0.062  12.339 -0.3549  0.5794 -0.7938
 8142TIP3    H245918   2.298   0.073  12.279  1.8730  1.2013  1.6462
 8143TIP3   OH245919   1.142   2.006   4.625 -0.3124  0.0165 -0.5907
 8143TIP3    H145920   1.128   2.052   4.708 -2.9905  0.4764 -1.2032
 8143TIP3    H245921   1.115   2.069   4.558 -1.5395 -1.5043 -1.5865
 8144TIP3   OH245922   1.134   1.086   5.477  0.3348  0.3527 -0.0799
 8144TIP3    H145923   1.061   1.033   5.510  1.4403 -0.8117  0.6170
 8144TIP3    H245924   1.138   1.160   5.537 -0.5607  0.6690 -0.4036
 8145TIP3   OH245925   5.437   5.814  15.555 -0.5412 -0.2093 -0.1682
 8145TIP3    H145926   5.469   5.903  15.544  1.1795 -0.5546  1.3651
 8145TIP3    H245927   5.516   5.763  15.576 -1.8237 -1.5334  1.8131
 8146TIP3   OH245928   6.620   3.637   4.667  0.3000  0.3235  0.1331
 8146TIP3    H145929   6.692   3.660   4.726  0.6300 -2.0838  0.7526
 8146TIP3    H245930   6.616   3.542   4.669 -2.5156  0.3334 -0.3656
 8147TIP3   OH245931   6.726   4.532  13.732  0.4105  0.0513  0.3078
 8147TIP3    H145932   6.758   4.618  13.705  1.6616  0.0375  1.6676
 8147TIP3    H245933   6.795   4.471  13.704  1.4299 -0.0402  2.7593
 8148TIP3   OH245934   3.118   0.026  14.882 -0.0648 -0.3305  0.4480
 8148TIP3    H145935   3.117   0.121  14.884 -0.3837 -0.3336  0.5600
 8148TIP3    H245936   3.065  -0.000  14.957 -1.5007 -0.5650 -0.5924
 8149TIP3   OH245937   5.505   5.852   6.117 -0.1496 -0.2861  0.1253
 8149TIP3    H145938   5.428   5.811   6.158 -0.4537 -0.7736 -0.8946
 8149TIP3    H245939   5.575   5.789   6.127  0.1242  0.1564  1.0510
 8150TIP3   OH245940   4.560   0.135   1.952  0.2656 -0.1148 -0.2659
 8150TIP3    H145941   4.559   0.173   2.040 -2.2828 -2.2621  0.7746
 8150TIP3    H245942   4.468   0.133   1.926  0.9075  0.0176 -2.8516
 8151TIP3   OH245943   5.148   6.348  14.138 -0.0739  0.3923  0.0423
 8151TIP3    H145944   5.180   6.437  14.153 -2.1072  1.4139 -1.2127
 8151TIP3    H245945   5.145   6.308  14.225  4.3166  0.1908  0.3017
 8152TIP3   OH245946   0.629   6.481   2.305 -0.1670  0.0037  0.1270
 8152TIP3    H145947   0.588   6.566   2.320  0.2150  0.1381  0.4240
 8152TIP3    H245948   0.720   6.501   2.283 -0.4146 -0.2524 -1.2457
 8153TIP3   OH245949   0.973   2.317  12.968 -0.3129  0.0051  0.1234
 8153TIP3    H145950   0.909   2.247  12.980  0.7389 -1.0704 -0.2978
 8153TIP3    H245951   0.968   2.338  12.875  0.8562 -1.0492 -0.2136
 8154TIP3   OH245952   0.512   0.600   0.263  0.6706 -0.2181  0.0541
 8154TIP3    H145953   0.510   0.657   0.339 -1.3347 -1.3030  0.8725
 8154TIP3    H245954   0.445   0.635   0.204  0.0406 -1.1582  0.1784
 8155TIP3   OH245955   4.625   3.351   2.954 -0.3997 -0.0830  0.3295
 8155TIP3    H145956   4.654   3.433   2.995 -1.2706  0.7038 -0.5885
 8155TIP3    H245957   4.541   3.332   2.995 -0.2382 -0.4835  0.4793
 8156TIP3   OH245958   1.334   6.767   2.152  0.0723 -0.4430  0.0488
 8156TIP3    H145959   1.411   6.819   2.128 -0.9529  1.3595  0.4713
 8156TIP3    H245960   1.336   6.763   2.248 -0.9301  0.5902  0.1345
 8157TIP3   OH245961   1.503   4.436  15.148  0.7678  0.3466 -0.0998
 8157TIP3    H145962   1.434   4.489  15.187  1.0647  1.3274 -0.8640
 8157TIP3    H245963   1.503   4.461  15.055  2.9365  1.3081  0.0904
 8158TIP3   OH245964   2.349   2.790   4.070 -0.0511 -0.6990  0.4327
 8158TIP3    H145965   2.296   2.863   4.038  2.7514  1.7951  0.9462
 8158TIP3    H245966   2.322   2.778   4.161  0.1280  0.4506  0.6569
 8159TIP3   OH245967   4.339   4.827   0.170  0.3822 -0.2571  0.5776
 8159TIP3    H145968   4.388   4.881   0.109 -1.6887 -0.4249 -1.3683
 8159TIP3    H245969   4.268   4.883   0.201 -0.6186 -1.1938  0.0777
 8160TIP3   OH245970   5.527   1.286   2.066 -0.4932 -0.5625  0.3950
 8160TIP3    H145971   5.510   1.269   2.158 -0.5601  0.9657  0.6970
 8160TIP3    H245972   5.471   1.361   2.045  1.1046  0.4774 -0.3117
 8161TIP3   OH245973   0.219   3.536   3.167  0.4794 -0.3214 -0.2044
 8161TIP3    H145974   0.168   3.613   3.192  1.1276 -0.2147  0.8575
 8161TIP3    H245975   0.236   3.491   3.250  1.0554 -1.0095 -0.6853
 8162TIP3   OH245976   0.063   5.061  15.121 -0.2032  0.7317 -0.4689
 8162TIP3    H145977   0.116   5.131  15.158  2.1671 -1.2155  0.0399
 8162TIP3    H245978  -0.015   5.057  15.177 -0.0811  2.4570 -0.1163
 8163TIP3   OH245979   1.370   0.363   5.442 -0.4335 -0.0391 -0.3043
 8163TIP3    H145980   1.382   0.405   5.357 -1.9553  1.1992  0.0502
 8163TIP3    H245981   1.368   0.270   5.423 -1.4244  0.2460 -1.7282
 8164TIP3   OH245982   0.181   3.664  12.897 -0.8180 -0.3529 -0.0296
 8164TIP3    H145983   0.106   3.608  12.878 -0.3921 -0.8662 -0.2213
 8164TIP3    H245984   0.256   3.605  12.897 -0.5768 -0.0909  1.6229
 8165TIP3   OH245985   5.809   0.273   0.652 -0.0724 -0.3990  0.4361
 8165TIP3    H145986   5.827   0.358   0.691  0.1713  0.1279 -0.7866
 8165TIP3    H245987   5.881   0.257   0.592 -1.6653  0.0326 -1.7352
 8166TIP3   OH245988   5.685   1.841   2.218 -0.0352  0.3855  0.6183
 8166TIP3    H145989   5.713   1.750   2.213 -1.9772 -0.2041 -0.7426
 8166TIP3    H245990   5.706   1.868   2.307  0.7737 -1.3194  0.9756
 8167TIP3   OH245991   4.491   3.415   1.439  0.1384  0.1367 -0.1946
 8167TIP3    H145992   4.561   3.383   1.496 -0.9658 -0.4314  0.8638
 8167TIP3    H245993   4.513   3.379   1.353  2.2067  1.5764 -0.3585
 8168TIP3   OH245994   4.433   6.171  10.783 -0.4503 -0.4882 -0.1624
 8168TIP3    H145995   4.412   6.258  10.817  0.4831  0.5987 -2.1658
 8168TIP3    H245996   4.524   6.156  10.808 -0.2022 -0.2978 -0.9216
 8169TIP3   OH245997   2.569   0.298  12.287  0.1815  0.6863 -0.1850
 8169TIP3    H145998   2.653   0.268  12.323 -0.7100 -0.4532  1.0434
 8169TIP3    H245999   2.544   0.372  12.343 -0.1284  0.3459  0.1339
 8170TIP3   OH246000   3.028   3.236  13.254  0.1990  0.2695  0.0335
 8170TIP3    H146001   2.959   3.285  13.210  0.2589 -0.4884 -0.9461
 8170TIP3    H246002   3.110   3.273  13.220  0.3184  1.5404  1.6040
 8171TIP3   OH246003   6.614   3.385  12.491 -0.4398 -0.1960  0.3547
 8171TIP3    H146004   6.602   3.476  12.464  0.3730 -0.4261 -0.8538
 8171TIP3    H246005   6.581   3.333  12.418  0.4133 -0.8505  0.4084
 8172TIP3   OH246006   6.812   0.730   1.173 -0.2315  0.4282 -0.3190
 8172TIP3    H146007   6.743   0.713   1.108  1.9371 -0.0641 -2.6793
 8172TIP3    H246008   6.853   0.645   1.187  0.4825  0.8676  0.3310
 8173TIP3   OH246009   4.127   1.169   1.220  0.1634  0.2322 -0.4519
 8173TIP3    H146010   4.105   1.174   1.313  0.5211  0.3119 -0.3701
 8173TIP3    H246011   4.044   1.182   1.175 -0.1101 -0.3427 -0.1364
 8174TIP3   OH246012   4.988   4.415   0.542  0.1948  0.5811  0.1913
 8174TIP3    H146013   5.079   4.404   0.515  0.4563  1.6153  0.6113
 8174TIP3    H246014   4.983   4.374   0.628 -0.2255 -1.1836 -0.6180
 8175TIP3   OH246015   0.625   5.164   3.639 -0.3838  0.8485  0.4944
 8175TIP3    H146016   0.675   5.141   3.560  0.4246 -0.3996  1.3430
 8175TIP3    H246017   0.543   5.200   3.605 -0.7594 -1.1836 -0.9413
 8176TIP3   OH246018   1.983   4.134  12.540  0.2391  0.5891 -0.2253
 8176TIP3    H146019   1.891   4.108  12.546 -0.1249  2.0176  0.8406
 8176TIP3    H246020   2.002   4.137  12.446 -0.6858 -0.0673 -0.4408
 8177TIP3   OH246021   5.037   0.194  16.354 -0.4371  0.4261  0.1683
 8177TIP3    H146022   5.071   0.257  16.417  0.3266  1.1376 -0.9367
 8177TIP3    H246023   5.092   0.204  16.277  0.1284 -2.0263  0.1476
 8178TIP3   OH246024   0.418   1.673   3.240 -0.2795 -0.6041 -0.0048
 8178TIP3    H146025   0.450   1.763   3.251  0.6532 -1.1071  1.9608
 8178TIP3    H246026   0.332   1.683   3.199 -1.6163  1.4648  2.8796
 8179TIP3   OH246027   3.316   1.872  15.020 -0.6457 -0.4626  0.3864
 8179TIP3    H146028   3.261   1.797  15.041  2.4584 -2.6070  1.6084
 8179TIP3    H246029   3.350   1.853  14.933 -2.3501  1.2928 -0.7508
 8180TIP3   OH246030   5.395   1.036   1.454  0.3987 -0.7870  0.0066
 8180TIP3    H146031   5.333   1.021   1.526 -0.5610 -1.4629 -0.9317
 8180TIP3    H246032   5.428   1.125   1.469 -1.8164  0.1308 -0.1804
 8181TIP3   OH246033   3.366   2.426  12.185 -0.3181  0.1243  0.6635
 8181TIP3    H146034   3.313   2.393  12.113  4.1934 -0.7754 -2.7184
 8181TIP3    H246035   3.377   2.351  12.244  1.6223 -1.5745 -1.6491
 8182TIP3   OH246036   0.640   0.524   2.833  0.4011  0.3430  0.1032
 8182TIP3    H146037   0.711   0.585   2.850  1.0091  0.2124 -1.7669
 8182TIP3    H246038   0.661   0.447   2.885  1.7326  0.2524 -0.5311
 8183TIP3   OH246039   4.333   4.207   4.117 -0.2311 -0.8581  0.4945
 8183TIP3    H146040   4.311   4.297   4.139 -1.5419 -1.4128  1.5620
 8183TIP3    H246041   4.373   4.213   4.029 -1.4984  0.5945 -0.0246
 8184TIP3   OH246042   4.223   0.558  11.880  0.6989 -0.4760 -0.1322
 8184TIP3    H146043   4.216   0.463  11.875  0.9439 -0.5888  1.3814
 8184TIP3    H246044   4.156   0.590  11.820  0.3051 -1.6021 -0.3084
 8185TIP3   OH246045   1.906   2.130   1.231  0.2778 -0.6316 -0.3181
 8185TIP3    H146046   1.835   2.194   1.224 -0.1871 -1.3031 -2.4781
 8185TIP3    H246047   1.925   2.125   1.325 -0.3435  1.9069  0.0159
 8186TIP3   OH246048   3.014   6.106   1.949  0.2963  0.4745 -0.3391
 8186TIP3    H146049   3.087   6.063   1.905 -0.6765  0.6166 -2.1986
 8186TIP3    H246050   3.000   6.186   1.898 -1.0826  0.4931  0.0502
 8187TIP3   OH246051   6.627   6.409  13.640  0.2559  0.4119  0.1838
 8187TIP3    H146052   6.625   6.452  13.726  1.3764  1.9725 -0.5206
 8187TIP3    H246053   6.720   6.403  13.620  0.0521 -1.0696 -0.4055
 8188TIP3   OH246054   3.968   1.175  12.533  0.3189  0.3435  0.1578
 8188TIP3    H146055   4.022   1.254  12.535  2.6709 -1.1796  0.8388
 8188TIP3    H246056   3.956   1.156  12.440  0.1626  1.2341 -0.0035
 8189TIP3   OH246057   5.820   0.180   5.078 -0.2680 -0.3407  0.0116
 8189TIP3    H146058   5.899   0.145   5.118 -1.0185 -0.8914  1.0622
 8189TIP3    H246059   5.793   0.112   5.016 -2.3016 -2.3059  2.7808
 8190TIP3   OH246060   3.572   4.623  11.825  0.6649  0.8247 -0.1037
 8190TIP3    H146061   3.553   4.664  11.741 -0.0010  2.0130  0.5973
 8190TIP3    H246062   3.529   4.537  11.820  1.7204  0.3437 -1.4308
 8191TIP3   OH246063   3.566   5.776  16.693 -0.5323  0.5527  0.3830
 8191TIP3    H146064   3.643   5.776  16.636 -0.3164  1.9504  0.6268
 8191TIP3    H246065   3.492   5.767  16.632 -0.2211 -3.8713  0.3156
 8192TIP3   OH246066   6.577   2.591  16.344 -0.3969  1.1806 -0.3775
 8192TIP3    H146067   6.642   2.550  16.400 -0.8436 -0.2036 -0.8392
 8192TIP3    H246068   6.598   2.685  16.348  0.9444  0.8790  0.3191
 8193TIP3   OH246069   1.365   3.096   1.860 -0.0768 -0.3175 -0.3499
 8193TIP3    H146070   1.400   3.158   1.924 -0.1214 -0.3533 -0.2906
 8193TIP3    H246071   1.426   3.023   1.861  0.5070  0.1477 -1.1231
 8194TIP3   OH246072   5.512   5.982   0.832 -0.3717  0.4023 -0.2690
 8194TIP3    H146073   5.430   6.017   0.867 -0.4422 -0.6249  0.6659
 8194TIP3    H246074   5.491   5.956   0.743 -1.3984 -0.8857  0.3153
 8195TIP3   OH246075   4.205   2.016   5.096  0.1327 -0.3049  0.2326
 8195TIP3    H146076   4.223   2.092   5.152 -1.6706  0.0694  0.3577
 8195TIP3    H246077   4.285   2.006   5.043  1.2078  0.3820  1.6478
 8196TIP3   OH246078   3.837   2.482   0.032 -0.4954 -0.7346 -0.4403
 8196TIP3    H146079   3.910   2.485  -0.030  0.7255 -1.2149  0.8835
 8196TIP3    H246080   3.813   2.573   0.045  1.4073 -0.3329  0.7476
 8197TIP3   OH246081   4.164   4.677   0.394 -0.2876 -0.1333 -0.4055
 8197TIP3    H146082   4.171   4.772   0.386  1.2813 -0.1348  0.4854
 8197TIP3    H246083   4.182   4.659   0.486 -2.8877 -1.1575 -0.0270
 8198TIP3   OH246084   1.658   0.630  14.505  0.0670  0.1975  0.5494
 8198TIP3    H146085   1.676   0.662  14.417  2.2245  0.4044  1.0034
 8198TIP3    H246086   1.705   0.547  14.510 -0.9976 -0.3916  1.1541
 8199TIP3   OH246087   2.416   0.556  12.710  0.7124 -0.3512  0.3983
 8199TIP3    H146088   2.335   0.513  12.685  1.4467 -0.6671 -1.5637
 8199TIP3    H246089   2.391   0.647  12.725  0.3217  0.1318 -2.5822
 8200TIP3   OH246090   1.848   5.905   4.526 -0.2571  0.4024 -0.2572
 8200TIP3    H146091   1.826   5.829   4.471  0.6099  0.6831 -1.0307
 8200TIP3    H246092   1.886   5.968   4.465 -0.2471  1.1538  0.5098
 8201TIP3   OH246093   4.513   3.843   4.762 -0.0557  0.6329 -0.1426
 8201TIP3    H146094   4.432   3.895   4.760 -1.6078 -1.4372  2.2483
 8201TIP3    H246095   4.510   3.791   4.682 -1.2601  0.4011  0.0328
 8202TIP3   OH246096   1.853   0.659  11.880  0.1271 -0.3947 -0.2922
 8202TIP3    H146097   1.868   0.582  11.826 -1.1386 -0.7169 -0.2237
 8202TIP3    H246098   1.772   0.698  11.845  1.4908  1.7424 -1.2793
 8203TIP3   OH246099   0.373   0.784  14.004 -0.2551 -0.6748 -0.0348
 8203TIP3    H146100   0.403   0.868  13.970 -0.3963 -0.8720 -0.6748
 8203TIP3    H246101   0.298   0.805  14.059  0.0771 -0.3263  0.2864
 8204TIP3   OH246102   4.988   1.186  12.056  0.1703 -0.3706 -0.2900
 8204TIP3    H146103   4.929   1.140  11.997 -0.5128  0.4910 -0.3055
 8204TIP3    H246104   4.947   1.178  12.142  1.4640 -2.1292  0.2014
 8205TIP3   OH246105   5.025   6.589   1.337 -0.1018  0.5837  0.4137
 8205TIP3    H146106   5.100   6.646   1.354  0.2674  0.4154 -0.5658
 8205TIP3    H246107   4.991   6.619   1.253 -0.9222  0.4257  0.6843
 8206TIP3   OH246108   0.574   6.039   6.643 -0.1638 -0.4176  0.3269
 8206TIP3    H146109   0.554   6.051   6.550  3.7993 -0.8553 -0.7335
 8206TIP3    H246110   0.548   5.949   6.661 -1.2010 -0.2530 -0.2116
 8207TIP3   OH246111   5.470   2.569  14.657 -0.1878  0.1881  0.0330
 8207TIP3    H146112   5.429   2.640  14.607  0.8738 -0.3204 -1.6116
 8207TIP3    H246113   5.558   2.561  14.621  0.4073 -0.6555  1.5570
 8208TIP3   OH246114   5.552   4.530  15.952  0.2158 -0.4010 -0.8399
 8208TIP3    H146115   5.532   4.465  15.883  1.1401 -0.5687 -0.9576
 8208TIP3    H246116   5.576   4.609  15.904  0.5688 -0.4273 -0.7047
 8209TIP3   OH246117   0.410   3.036  14.198 -0.7720  0.3186 -0.7681
 8209TIP3    H146118   0.489   2.982  14.203 -1.5474 -0.8853 -1.2238
 8209TIP3    H246119   0.387   3.037  14.105 -3.0516 -1.9960 -0.3215
 8210TIP3   OH246120   1.431   1.820   0.738  0.2397 -0.5871 -0.2992
 8210TIP3    H146121   1.469   1.812   0.651 -2.2646 -3.1174 -1.3382
 8210TIP3    H246122   1.462   1.742   0.785 -0.2203 -0.4327  0.2861
 8211TIP3   OH246123   0.713   2.904   0.155  0.4319 -0.6246  0.1139
 8211TIP3    H146124   0.802   2.896   0.191  0.4006 -0.7673  0.1613
 8211TIP3    H246125   0.720   2.971   0.087  0.6148 -0.7669 -0.0080
 8212TIP3   OH246126   2.672   4.613   4.894  0.3960 -0.3121 -0.1615
 8212TIP3    H146127   2.624   4.605   4.976  0.1087  0.8416 -0.1955
 8212TIP3    H246128   2.762   4.591   4.917  0.5186  0.9763  0.7162
 8213TIP3   OH246129   6.321   3.097  13.062 -0.4358 -0.2866 -0.4447
 8213TIP3    H146130   6.266   3.151  13.119  3.1888  0.6035  2.5801
 8213TIP3    H246131   6.311   3.008  13.097 -0.8650 -0.3419 -0.7035
 8214TIP3   OH246132   2.681   5.254   0.397 -0.1651 -0.1890 -0.2025
 8214TIP3    H146133   2.734   5.332   0.378 -1.8651  1.7371  2.1525
 8214TIP3    H246134   2.661   5.217   0.312 -0.4910  2.8720 -1.6080
 8215TIP3   OH246135   5.740   3.853   2.924  0.1689 -0.0206  0.2521
 8215TIP3    H146136   5.743   3.879   3.016 -0.5781  1.9198 -0.2316
 8215TIP3    H246137   5.647   3.834   2.908  0.1608  0.5089 -0.3223
 8216TIP3   OH246138   3.656   1.039  15.872  0.0903  0.0098  0.5538
 8216TIP3    H146139   3.722   1.090  15.825 -1.1601  0.6203 -0.5843
 8216TIP3    H246140   3.575   1.056  15.826 -1.2706  0.8094  3.0383
 8217TIP3   OH246141   3.297   5.835   2.270 -0.1021  0.2190  0.6107
 8217TIP3    H146142   3.218   5.888   2.275 -0.7202 -0.7494  1.3259
 8217TIP3    H246143   3.279   5.759   2.325  1.0979 -0.3111  0.3039
 8218TIP3   OH246144   1.753   6.158   5.158 -0.3330  0.0917  0.2437
 8218TIP3    H146145   1.683   6.095   5.172  0.4646 -0.4750  1.9619
 8218TIP3    H246146   1.833   6.107   5.169  0.3822  0.7681 -1.4868
 8219TIP3   OH246147   5.510   1.942   4.225  0.2291 -0.3804 -0.0005
 8219TIP3    H146148   5.525   1.859   4.181  2.4845  0.1027 -0.2830
 8219TIP3    H246149   5.541   2.008   4.163 -2.4962  0.7956 -0.2197
 8220TIP3   OH246150   3.533   2.861  13.412  0.4975  0.2574  0.0882
 8220TIP3    H146151   3.489   2.798  13.355 -0.9365  1.4502 -0.1847
 8220TIP3    H246152   3.497   2.945  13.386  1.4530  1.0597  1.2922
 8221TIP3   OH246153   4.155   1.411  11.645 -1.0494 -0.0903 -0.5503
 8221TIP3    H146154   4.125   1.468  11.574 -1.7227  0.2714  0.0076
 8221TIP3    H246155   4.132   1.322  11.616 -1.6499  0.0878 -0.6429
 8222TIP3   OH246156   5.046   1.778   1.042  0.6337  0.0325 -0.1590
 8222TIP3    H146157   5.068   1.691   1.075  2.6513  0.8378  0.7601
 8222TIP3    H246158   5.057   1.771   0.947 -0.0595 -0.9045 -0.1906
 8223TIP3   OH246159   2.323   6.059   5.831  0.3874  0.5912 -0.0599
 8223TIP3    H146160   2.248   6.093   5.783 -0.4477  0.8821  1.4035
 8223TIP3    H246161   2.374   6.137   5.854  0.7368  0.4587 -0.3599
 8224TIP3   OH246162   6.465   3.369  16.035  0.2422  0.6839  1.4692
 8224TIP3    H146163   6.524   3.431  16.078 -0.8001  1.1599  2.2457
 8224TIP3    H246164   6.449   3.301  16.100  2.5435 -1.2966  0.1625
 8225TIP3   OH246165   2.565   0.958  15.092 -0.3523  0.0479  0.1942
 8225TIP3    H146166   2.648   0.977  15.047 -0.0218  0.8925  1.1210
 8225TIP3    H246167   2.498   0.978  15.027  0.1424  0.1167 -0.3079
 8226TIP3   OH246168   5.038   5.856  13.365 -0.1156  0.0942 -0.9453
 8226TIP3    H146169   5.084   5.774  13.383  0.0752  0.0939 -1.4098
 8226TIP3    H246170   4.970   5.862  13.433 -0.8551 -0.9893 -1.5789
 8227TIP3   OH246171   4.560   2.944  17.083 -0.3841  0.1269 -0.1346
 8227TIP3    H146172   4.638   2.913  17.037  0.9914 -1.2408  2.8434
 8227TIP3    H246173   4.487   2.903  17.036  0.6017  1.0872 -2.7376
 8228TIP3   OH246174   0.442   1.140  14.431 -0.6718  0.5805  0.5402
 8228TIP3    H146175   0.357   1.146  14.475 -1.3400  0.6003 -0.7206
 8228TIP3    H246176   0.428   1.183  14.347  1.6527  4.2053  1.7665
 8229TIP3   OH246177   3.075   5.764   4.858  0.0201 -0.2388 -0.3396
 8229TIP3    H146178   3.027   5.757   4.776 -0.8031  1.8051 -0.0798
 8229TIP3    H246179   3.126   5.845   4.850  0.8618 -0.6367  0.7004
 8230TIP3   OH246180   5.798   2.135  15.840 -0.6638  0.8208 -0.0396
 8230TIP3    H146181   5.829   2.115  15.751 -1.2987  0.1160 -0.1132
 8230TIP3    H246182   5.837   2.067  15.895 -1.3448  0.4570  0.0043
 8231TIP3   OH246183   4.944   2.083  15.679 -0.3251  0.0343  0.1492
 8231TIP3    H146184   5.002   2.142  15.632 -0.2840  1.2050  1.6002
 8231TIP3    H246185   4.859   2.093  15.636 -0.1928  0.7716  0.0593
 8232TIP3   OH246186   4.173   0.320  12.286 -0.4108  0.5916 -0.1028
 8232TIP3    H146187   4.224   0.288  12.212  1.1171 -0.0612  1.1731
 8232TIP3    H246188   4.112   0.249  12.306 -0.6403  0.6596 -0.5594
 8233TIP3   OH246189   3.959   0.248   0.778 -0.1732 -0.3742 -0.1508
 8233TIP3    H146190   3.953   0.273   0.870  0.2516 -2.2472  0.4344
 8233TIP3    H246191   4.051   0.227   0.765 -0.4044 -1.0857 -0.7182
 8234TIP3   OH246192   3.335   2.599  13.377  0.3276 -0.0537 -0.6457
 8234TIP3    H146193   3.329   2.672  13.316 -0.4829 -0.1856 -0.7413
 8234TIP3    H246194   3.376   2.529  13.326  1.5249  0.4653 -0.4172
 8235TIP3   OH246195   1.577   1.213   5.638  0.1076 -0.2774  0.6022
 8235TIP3    H146196   1.540   1.262   5.712 -0.1172  0.0696  0.2638
 8235TIP3    H246197   1.564   1.121   5.661 -1.0975 -0.1628  0.4273
 8236TIP3   OH246198   2.581   4.282   1.035 -0.3419 -0.0761  0.7888
 8236TIP3    H146199   2.535   4.350   1.085 -2.4232 -0.0033 -1.0950
 8236TIP3    H246200   2.660   4.325   1.003 -1.3400  1.3065  0.1050
 8237TIP3   OH246201   4.260   3.604  12.859  0.3502  0.3527  0.4486
 8237TIP3    H146202   4.290   3.695  12.860  3.4939 -0.3388 -3.7713
 8237TIP3    H246203   4.166   3.610  12.840  0.3188  2.6664  1.0505
 8238TIP3   OH246204   0.172   3.518   0.462  0.3065 -0.4869 -0.1357
 8238TIP3    H146205   0.189   3.607   0.493  0.9126 -1.0676  1.2556
 8238TIP3    H246206   0.206   3.517   0.372  6.6208 -1.0450  1.7604
 8239TIP3   OH246207   2.027   2.055   1.466  0.1167  0.4550 -0.2492
 8239TIP3    H146208   2.044   2.029   1.556  0.0986 -0.8314 -0.6073
 8239TIP3    H246209   2.104   2.106   1.441  1.9219 -2.2879 -0.6810
 8240TIP3   OH246210   1.149   5.726  13.995  0.1055 -0.2890  0.2579
 8240TIP3    H146211   1.092   5.802  13.993 -0.7050 -0.8637  0.9481
 8240TIP3    H246212   1.199   5.735  14.076  1.0396  0.2234 -0.3509
 8241TIP3   OH246213   1.990   0.290   3.222  0.0277 -0.0573  0.0394
 8241TIP3    H146214   2.059   0.341   3.265  1.0837 -0.7861 -0.7099
 8241TIP3    H246215   2.031   0.205   3.206 -0.2891  0.1843 -2.3981
 8242TIP3   OH246216   4.939   4.704   4.348  0.2873 -0.7955  0.3058
 8242TIP3    H146217   4.983   4.755   4.416  0.4191 -1.3233  0.6195
 8242TIP3    H246218   4.853   4.745   4.339  0.0174 -1.1347  1.2704
 8243TIP3   OH246219   1.114   3.097   5.723  0.3170 -0.2516  0.3308
 8243TIP3    H146220   1.072   3.146   5.652  1.0067 -0.4484 -0.2234
 8243TIP3    H246221   1.046   3.089   5.790  0.2306  1.6075  0.5105
 8244TIP3   OH246222   4.769   1.566   0.331  0.0580 -0.2123 -0.6151
 8244TIP3    H146223   4.730   1.523   0.407  0.1788  0.0889 -0.3775
 8244TIP3    H246224   4.845   1.512   0.309  1.2564  0.8193  0.7833
 8245TIP3   OH246225   3.336   2.420  14.721  0.3825 -0.3964  0.7689
 8245TIP3    H146226   3.384   2.436  14.640 -1.5921 -1.7333 -0.7513
 8245TIP3    H246227   3.359   2.330  14.745  3.4165  0.8816  3.5915
 8246TIP3   OH246228   5.192   6.092   3.994  0.4193  0.1565  0.7889
 8246TIP3    H146229   5.226   6.120   3.909 -1.2011 -0.9498 -0.2858
 8246TIP3    H246230   5.125   6.156   4.015  0.6448  0.2870  1.1182
 8247TIP3   OH246231   6.803   3.304   0.822  0.7900 -0.1120  0.1110
 8247TIP3    H146232   6.825   3.396   0.811  0.2062  0.2203  1.4898
 8247TIP3    H246233   6.847   3.278   0.903  1.1610 -1.1184 -0.4015
 8248TIP3   OH246234   6.600   3.899   3.581 -0.3558 -0.2281 -0.0243
 8248TIP3    H146235   6.686   3.858   3.594 -1.1530 -1.8449  0.4867
 8248TIP3    H246236   6.616   3.993   3.593  1.3941 -0.4499 -0.3166
 8249TIP3   OH246237   1.582   6.500  14.579 -0.1096  0.2572 -0.4502
 8249TIP3    H146238   1.547   6.453  14.654 -0.6775  0.4460 -0.5891
 8249TIP3    H246239   1.644   6.440  14.539  0.1070  0.1117  0.0995
 8250TIP3   OH246240   0.826   1.727  15.549 -0.2396  0.6193  0.1970
 8250TIP3    H146241   0.784   1.789  15.608 -2.6608 -0.6247 -0.1174
 8250TIP3    H246242   0.755   1.674  15.513  1.5537 -1.3706 -0.7035
 8251TIP3   OH246243   2.690   2.922  15.481  0.2635 -0.4641 -0.5789
 8251TIP3    H146244   2.778   2.945  15.453  0.9237  0.8638  2.2530
 8251TIP3    H246245   2.640   3.003  15.471  0.2596 -0.2563  0.9404
 8252TIP3   OH246246   3.710   4.720  12.858 -0.1502  0.5237  0.0698
 8252TIP3    H146247   3.670   4.635  12.876 -0.8286  0.6701 -0.6772
 8252TIP3    H246248   3.735   4.716  12.766 -1.0430  1.4453 -0.2436
 8253TIP3   OH246249   1.397   3.383  16.098  0.4671 -0.0270  0.8632
 8253TIP3    H146250   1.465   3.319  16.118 -0.4562 -1.2113  0.3259
 8253TIP3    H246251   1.327   3.332  16.058 -0.0245  1.4191 -0.2069
 8254TIP3   OH246252   2.443   5.481   5.479  0.1676  0.1511  0.0564
 8254TIP3    H146253   2.399   5.420   5.419 -1.2170  0.0302  1.1451
 8254TIP3    H246254   2.488   5.425   5.542  0.2774  0.2742  0.0892
 8255TIP3   OH246255   1.252   6.104  16.749  0.6481 -0.3625 -0.5027
 8255TIP3    H146256   1.192   6.030  16.749  0.4728 -0.2263  0.0607
 8255TIP3    H246257   1.230   6.154  16.670  1.7948 -1.7177 -1.7549
 8256TIP3   OH246258   0.340   5.170   1.582  0.0484 -0.0051 -0.5708
 8256TIP3    H146259   0.391   5.112   1.639  1.5676  1.2862 -0.5686
 8256TIP3    H246260   0.272   5.206   1.639  0.9042  0.4533  0.1824
 8257TIP3   OH246261   3.713   6.757  13.284  0.7037 -0.1322 -0.0902
 8257TIP3    H146262   3.782   6.790  13.341  1.0832 -2.4652  0.9120
 8257TIP3    H246263   3.679   6.835  13.240  1.4542  1.5504  2.1361
 8258TIP3   OH246264   0.554   2.290   3.988  0.1121  0.4119  0.0261
 8258TIP3    H146265   0.601   2.210   4.010 -1.1402 -0.4768 -0.4215
 8258TIP3    H246266   0.527   2.277   3.897  1.0085  1.9163 -0.4915
 8259TIP3   OH246267   4.779   0.665  14.299 -0.2686  0.1593 -0.2846
 8259TIP3    H146268   4.864   0.674  14.342 -0.1716 -2.1592  0.1704
 8259TIP3    H246269   4.791   0.593  14.237 -1.0777  1.8686 -2.5794
 8260TIP3   OH246270   4.691   0.293  16.546 -0.3981 -0.4689 -0.0930
 8260TIP3    H146271   4.672   0.372  16.597 -3.9612 -1.3083  0.1765
 8260TIP3    H246272   4.745   0.239  16.604 -0.2582  0.6127  0.8235
 8261TIP3   OH246273   6.449   1.774   0.003 -0.0669 -0.0447  0.2020
 8261TIP3    H146274   6.383   1.779   0.072 -0.6482  0.9253 -0.3983
 8261TIP3    H246275   6.439   1.856  -0.046  1.6138  0.1385  0.1161
 8262TIP3   OH246276   3.470   2.836   4.738  0.0717  0.4497  0.0536
 8262TIP3    H146277   3.456   2.742   4.725  0.9864  0.3282 -0.0937
 8262TIP3    H246278   3.490   2.869   4.650  0.7847  0.5979  0.2721
 8263TIP3   OH246279   4.269   3.138  13.244  1.1909 -0.0043  0.4892
 8263TIP3    H146280   4.266   3.054  13.198 -2.6159 -0.2463  0.8757
 8263TIP3    H246281   4.343   3.129  13.304  1.0798 -2.9938  0.3352
 8264TIP3   OH246282   2.759   6.441  12.018 -0.4499 -0.2501  0.0996
 8264TIP3    H146283   2.844   6.424  12.059  0.8294  0.4465 -2.0809
 8264TIP3    H246284   2.695   6.405  12.079  1.4230 -1.2106  1.6077
 8265TIP3   OH246285   3.037   5.628  11.890 -0.3000 -0.3351  0.0855
 8265TIP3    H146286   3.053   5.588  11.805 -1.7594  0.8846 -0.8234
 8265TIP3    H246287   3.113   5.603  11.943  1.7570  0.6343 -2.1924
 8266TIP3   OH246288   3.275   4.795   3.541 -0.1896 -0.0710 -0.8283
 8266TIP3    H146289   3.257   4.850   3.465 -0.1220 -0.3438 -1.0423
 8266TIP3    H246290   3.342   4.734   3.511  0.3956  0.3117 -0.3208
 8267TIP3   OH246291   0.593   6.473  11.645 -0.1645  0.0566 -0.0230
 8267TIP3    H146292   0.586   6.384  11.609  1.1535  1.2933 -3.8678
 8267TIP3    H246293   0.687   6.490  11.651 -0.3701  0.7427  2.1443
 8268TIP3   OH246294   5.463   2.513  11.629  0.0728  0.1176 -0.2353
 8268TIP3    H146295   5.443   2.453  11.702  2.2612 -1.7560 -1.0527
 8268TIP3    H246296   5.379   2.554  11.608 -1.3447 -1.9277  1.0609
 8269TIP3   OH246297   4.287   3.821  11.670  0.0897 -1.1110  0.1863
 8269TIP3    H146298   4.321   3.742  11.713  3.0062  0.7019  1.4851
 8269TIP3    H246299   4.347   3.890  11.696  0.0689  0.8428 -4.1428
 8270TIP3   OH246300   0.530   5.866   4.709 -0.2060 -0.1107 -0.6078
 8270TIP3    H146301   0.574   5.898   4.630  0.5512 -2.9616 -1.4788
 8270TIP3    H246302   0.601   5.826   4.760 -0.8963  0.5875  0.9630
 8271TIP3   OH246303   3.107   6.406   3.901  0.2243 -0.0546 -0.7958
 8271TIP3    H146304   3.113   6.409   3.805 -0.8044 -0.8639 -0.9099
 8271TIP3    H246305   3.089   6.497   3.927 -1.4955 -0.1367 -1.5605
 8272TIP3   OH246306   5.997   0.939  15.938 -0.2972  0.0593  0.2931
 8272TIP3    H146307   5.923   0.933  15.998 -1.2202  1.3199 -0.6487
 8272TIP3    H246308   5.966   0.997  15.868  1.2861 -0.0851 -0.5748
 8273TIP3   OH246309   1.509   4.852  12.321 -0.5617 -0.0933 -0.0802
 8273TIP3    H146310   1.523   4.839  12.228 -0.5472 -1.6359  0.1209
 8273TIP3    H246311   1.564   4.928  12.343 -0.5015  0.2254 -1.2942
 8274TIP3   OH246312   5.296   3.301   0.600  0.2046  0.1479 -0.5088
 8274TIP3    H146313   5.342   3.366   0.548  0.9882  1.2905  1.5186
 8274TIP3    H246314   5.347   3.220   0.588  2.3716  1.1791  1.0140
 8275TIP3   OH246315   4.860   4.410  11.501  0.4704  0.7565  0.6290
 8275TIP3    H146316   4.873   4.359  11.421  3.0614  1.3537  0.5766
 8275TIP3    H246317   4.869   4.346  11.572  2.1316  0.8298  0.5158
 8276TIP3   OH246318   5.784   2.771  11.781  0.6699  0.2124  0.2785
 8276TIP3    H146319   5.872   2.735  11.765  0.5530  0.3385 -0.7255
 8276TIP3    H246320   5.801   2.859  11.817  0.9778  0.5614 -0.6690
 8277TIP3   OH246321   0.246   4.611   5.840 -0.6880 -0.0606 -0.0367
 8277TIP3    H146322   0.175   4.659   5.882  0.5333  1.1990  0.6482
 8277TIP3    H246323   0.311   4.599   5.910  0.2593 -0.2123 -0.9303
 8278TIP3   OH246324   3.845   5.963   6.187 -0.1640  0.3399 -0.0400
 8278TIP3    H146325   3.885   6.046   6.214  0.1012 -0.0224  0.7208
 8278TIP3    H246326   3.899   5.896   6.228 -0.4757 -0.2118 -0.5112
 8279TIP3   OH246327   1.147   5.003   3.042  0.2610 -0.5280 -0.3894
 8279TIP3    H146328   1.071   4.982   2.988 -0.8917  1.1338  0.4982
 8279TIP3    H246329   1.111   5.013   3.131  1.3916  0.8155 -0.0448
 8280TIP3   OH246330   3.783   6.572   4.364 -0.3411 -0.0840 -0.6023
 8280TIP3    H146331   3.810   6.571   4.456  1.1052 -3.5435 -0.8885
 8280TIP3    H246332   3.798   6.662   4.335  0.5870  0.7481  2.1445
 8281TIP3   OH246333   3.744   0.466  13.875  0.4279 -0.2802  0.1022
 8281TIP3    H146334   3.800   0.543  13.888  1.6930 -1.1823  0.0890
 8281TIP3    H246335   3.657   0.496  13.902  0.9766  1.0343  0.5057
 8282TIP3   OH246336   4.784   0.888   4.486 -0.2244  0.0528  0.0455
 8282TIP3    H146337   4.827   0.972   4.468 -1.0270  0.4500 -0.0887
 8282TIP3    H246338   4.690   0.908   4.481 -0.5415 -0.1361  3.2362
 8283TIP3   OH246339   0.073   4.206   1.734  0.4483 -0.6753  0.0077
 8283TIP3    H146340  -0.017   4.238   1.722  0.9493  0.4212 -0.9837
 8283TIP3    H246341   0.112   4.266   1.797  1.2760  0.5129 -1.5748
 8284TIP3   OH246342   5.361   1.873   5.734 -0.6011  0.3446 -0.0824
 8284TIP3    H146343   5.320   1.870   5.820 -0.6388  0.4179 -0.0980
 8284TIP3    H246344   5.452   1.847   5.750 -0.8895 -0.7758 -0.1950
 8285TIP3   OH246345   6.684   3.222   2.235  0.1956  0.3196  0.5964
 8285TIP3    H146346   6.648   3.143   2.276  0.7204  0.3306  1.0891
 8285TIP3    H246347   6.653   3.294   2.290 -1.1844  0.5701 -0.4670
 8286TIP3   OH246348   0.977   5.190  12.230  0.0541  0.0216  0.8545
 8286TIP3    H146349   0.928   5.242  12.294 -2.7812  0.4382 -1.4641
 8286TIP3    H246350   0.942   5.101  12.240 -0.1213  0.0121  0.1825
 8287TIP3   OH246351   0.403   4.328  13.489  0.8810  0.1077  0.0440
 8287TIP3    H146352   0.407   4.371  13.404  0.1591 -0.5096 -0.3198
 8287TIP3    H246353   0.490   4.291  13.501  0.2949 -2.0806 -1.6978
 8288TIP3   OH246354   0.774   1.862   4.916 -0.4296  0.5098  0.0404
 8288TIP3    H146355   0.832   1.828   4.847 -0.8285 -1.4441  0.6025
 8288TIP3    H246356   0.687   1.862   4.877 -0.4877  0.5065  0.1695
 8289TIP3   OH246357   2.464   6.028  15.939 -0.2996  0.4956 -0.2391
 8289TIP3    H146358   2.425   5.953  15.985  0.1405 -0.3104 -1.1315
 8289TIP3    H246359   2.557   6.023  15.960 -0.1260  0.2372 -1.0258
 8290TIP3   OH246360   3.477   0.566  13.948  0.4610 -0.5108  0.3921
 8290TIP3    H146361   3.510   0.598  14.033  3.0340  1.0900 -1.0736
 8290TIP3    H246362   3.419   0.636  13.918 -1.1953 -1.4937  1.1540
 8291TIP3   OH246363   5.770   6.550   3.650  0.6467  0.6218  0.0970
 8291TIP3    H146364   5.749   6.465   3.612 -1.9815  0.4076  1.7581
 8291TIP3    H246365   5.743   6.613   3.583  0.0409  0.1829 -0.0843
 8292TIP3   OH246366   1.138   6.230   5.715  0.0064 -0.0570 -0.2900
 8292TIP3    H146367   1.055   6.191   5.687 -0.4002  0.3204  0.3659
 8292TIP3    H246368   1.157   6.189   5.799 -0.1462  0.7494  0.1471
 8293TIP3   OH246369   2.045   1.199   4.881 -0.1052 -0.0590 -0.3673
 8293TIP3    H146370   2.010   1.225   4.966 -1.5688  0.2981 -1.0475
 8293TIP3    H246371   1.969   1.199   4.823  0.8414 -0.4343 -1.6453
 8294TIP3   OH246372   4.486   0.353   5.440  0.9890  0.8566  0.3345
 8294TIP3    H146373   4.410   0.384   5.490  0.3809  0.2528 -0.1947
 8294TIP3    H246374   4.524   0.433   5.403  1.2883  1.2845  1.5262
 8295TIP3   OH246375   0.808   4.838   5.381 -0.6608 -0.2103  0.2986
 8295TIP3    H146376   0.723   4.878   5.401  0.0857  1.9231 -0.4441
 8295TIP3    H246377   0.866   4.913   5.366  0.7298 -1.6056 -1.8274
 8296TIP3   OH246378   1.736   1.751  12.250  0.5085  0.0568 -0.4753
 8296TIP3    H146379   1.669   1.784  12.311 -0.1627  0.8324 -1.6085
 8296TIP3    H246380   1.742   1.817  12.182  0.4616 -1.2885 -1.8461
 8297TIP3   OH246381   4.068   5.554   0.033  0.3984  0.1171  0.6738
 8297TIP3    H146382   4.015   5.578  -0.044 -1.4331 -1.4785  1.3562
 8297TIP3    H246383   4.157   5.547  -0.002 -0.3301 -0.3081 -1.2871
 8298TIP3   OH246384   5.489   1.894   1.795  0.3044  0.5286  0.3252
 8298TIP3    H146385   5.543   1.841   1.735  0.4267  0.4244  0.5259
 8298TIP3    H246386   5.478   1.838   1.872  0.2304  0.7026  0.4403
 8299TIP3   OH246387   3.579   6.594  10.551 -0.3681  0.2080 -0.2273
 8299TIP3    H146388   3.552   6.539  10.477 -0.1830  0.4299 -0.4653
 8299TIP3    H246389   3.498   6.633  10.583 -0.5242 -0.3643  0.0727
 8300TIP3   OH246390   6.237   6.817   6.620  0.1549  0.0700 -0.6490
 8300TIP3    H146391   6.243   6.724   6.598  1.3823  0.4883 -2.2718
 8300TIP3    H246392   6.145   6.831   6.642 -0.2720 -1.2932 -1.4763
 8301TIP3   OH246393   5.182   1.856   0.513  0.0702 -0.3005  0.2742
 8301TIP3    H146394   5.168   1.851   0.607  0.9409  1.1572  0.5228
 8301TIP3    H246395   5.261   1.909   0.503  0.7137 -1.4673 -1.2489
 8302TIP3   OH246396   3.822   2.422  12.767  0.2635 -0.0805 -0.0912
 8302TIP3    H146397   3.823   2.363  12.691 -2.3600 -0.9738  0.4729
 8302TIP3    H246398   3.759   2.491  12.742  1.6649  1.3413  0.1245
 8303TIP3   OH246399   0.742   1.134  13.710  0.1859  0.5669 -0.2929
 8303TIP3    H146400   0.713   1.044  13.724 -0.5996  0.0573 -4.0640
 8303TIP3    H246401   0.832   1.124  13.677 -0.0658  1.0936 -1.1580
 8304TIP3   OH246402   2.371   5.343  15.189  0.4383  0.1783  0.0083
 8304TIP3    H146403   2.335   5.342  15.100  0.1119 -1.5067  0.1300
 8304TIP3    H246404   2.296   5.321  15.245  0.3536  2.3915  0.8518
 8305TIP3   OH246405   5.081   2.805   2.936  0.4806 -0.3670  1.0162
 8305TIP3    H146406   5.092   2.734   2.873 -0.6696  1.4930 -1.4897
 8305TIP3    H246407   4.987   2.821   2.939  0.7871  1.9690  0.3029
 8306TIP3   OH246408   4.509   3.193   6.274  0.1303 -0.4366  0.3768
 8306TIP3    H146409   4.501   3.211   6.368 -0.8007  0.9900  0.0537
 8306TIP3    H246410   4.427   3.150   6.250 -0.6606  1.3405 -0.2181
 8307TIP3   OH246411   2.586   0.256   3.740  0.1441 -0.6160  0.4970
 8307TIP3    H146412   2.658   0.309   3.706  1.0673 -0.7485  2.1384
 8307TIP3    H246413   2.570   0.192   3.672  2.1677 -1.1030  0.4080
 8308TIP3   OH246414   5.209   1.160   4.908  0.1907  0.3774 -0.5125
 8308TIP3    H146415   5.202   1.078   4.957  0.6957  0.5216 -0.1905
 8308TIP3    H246416   5.278   1.210   4.953  1.6758 -0.0565 -2.1595
 8309TIP3   OH246417   1.442   5.843  16.983  0.6196  0.1305 -0.2200
 8309TIP3    H146418   1.488   5.831  17.066  0.2522 -0.0586 -0.0377
 8309TIP3    H246419   1.421   5.936  16.980  1.3974  0.3045 -0.5137
 8310TIP3   OH246420   3.455   4.703  13.327 -0.0927  0.3123 -0.0756
 8310TIP3    H146421   3.374   4.653  13.325  1.0058 -1.5653 -0.7693
 8310TIP3    H246422   3.474   4.722  13.235 -0.0309  1.2308  0.1204
 8311TIP3   OH246423   4.936   3.755  16.196 -0.3754 -0.0084 -0.0193
 8311TIP3    H146424   5.012   3.775  16.251 -1.5384  0.6283  1.4101
 8311TIP3    H246425   4.955   3.800  16.113  0.3941  0.8925  0.6212
 8312TIP3   OH246426   1.536   1.548   2.572  0.2716  0.6753 -0.3275
 8312TIP3    H146427   1.617   1.520   2.615 -0.2420  1.1880  1.0429
 8312TIP3    H246428   1.525   1.640   2.599 -1.6274  0.1383  0.9622
 8313TIP3   OH246429   5.156   2.526   0.778  0.4386  0.1334 -1.2020
 8313TIP3    H146430   5.085   2.499   0.835  0.9388 -1.2953 -1.2224
 8313TIP3    H246431   5.125   2.608   0.738 -0.8273 -0.0253 -0.5860
 8314TIP3   OH246432   4.807   5.146   0.040 -0.3945  0.3135 -0.2184
 8314TIP3    H146433   4.746   5.073   0.032 -0.7511  0.4713  0.9084
 8314TIP3    H246434   4.837   5.162  -0.050  0.1808 -1.6223 -0.4163
 8315TIP3   OH246435   4.494   2.945   1.950 -0.5739  0.5728 -0.1058
 8315TIP3    H146436   4.549   2.964   1.874  0.4229  3.7467  1.2660
 8315TIP3    H246437   4.545   2.883   2.002  0.7431  1.7921  0.0859
 8316TIP3   OH246438   2.660   0.881  16.801 -0.4117 -0.3836 -0.1440
 8316TIP3    H146439   2.599   0.884  16.875  0.4231  1.2015  0.5233
 8316TIP3    H246440   2.726   0.816  16.827  1.0117  1.5951  1.4859
 8317TIP3   OH246441   4.384   0.526  14.995  0.2902 -0.1235 -0.0952
 8317TIP3    H146442   4.329   0.581  15.052  1.0368 -0.1278  0.6471
 8317TIP3    H246443   4.424   0.463  15.055 -0.4128 -1.3807 -0.9076
 8318TIP3   OH246444   1.110   3.794   1.463  0.4579  0.1490  0.0119
 8318TIP3    H146445   1.146   3.718   1.509 -0.6222 -0.3197  0.1107
 8318TIP3    H246446   1.168   3.805   1.387 -0.2372 -1.7491 -0.8785
 8319TIP3   OH246447   5.307   4.797  13.544 -0.3454 -0.1276  0.2170
 8319TIP3    H146448   5.237   4.805  13.479 -0.7185  0.9144  0.7337
 8319TIP3    H246449   5.320   4.702  13.553 -0.1144 -0.2984 -1.5375
 8320TIP3   OH246450   3.687   2.251   3.851 -0.2257 -0.2624 -0.0614
 8320TIP3    H146451   3.781   2.248   3.836 -0.0000  2.3548  0.2856
 8320TIP3    H246452   3.671   2.187   3.920  1.9620  1.7259  2.5407
 8321TIP3   OH246453   5.800   4.262  13.731  0.1092 -0.1275 -0.2719
 8321TIP3    H146454   5.773   4.218  13.651 -1.0596 -0.8972  0.5054
 8321TIP3    H246455   5.854   4.198  13.776 -0.2149 -0.1500  0.0916
 8322TIP3   OH246456   4.158   6.419   1.629 -0.0608 -0.2426  0.3633
 8322TIP3    H146457   4.158   6.515   1.623  1.8588 -0.2881 -1.8494
 8322TIP3    H246458   4.251   6.396   1.640 -0.4818 -1.8621  0.7420
 8323TIP3   OH246459   2.319   1.572   5.882 -0.2372 -0.4071 -0.1292
 8323TIP3    H146460   2.256   1.500   5.886 -0.1458 -0.5182 -0.6434
 8323TIP3    H246461   2.331   1.588   5.788 -0.8188  0.7645 -0.0331
 8324TIP3   OH246462   6.346   3.091   1.330  0.6664  0.3825 -0.2320
 8324TIP3    H146463   6.412   3.152   1.363 -1.2016  1.7554  1.1676
 8324TIP3    H246464   6.305   3.055   1.408 -0.7766  0.1780 -1.0527
 8325TIP3   OH246465   1.105   0.969   0.993 -0.3690 -0.1829 -0.5305
 8325TIP3    H146466   1.083   1.020   1.072 -1.0723 -0.1589 -0.7287
 8325TIP3    H246467   1.177   1.017   0.953 -0.7917  0.4773 -0.5297
 8326TIP3   OH246468   3.886   1.946  15.975 -0.0622  0.5649 -0.2573
 8326TIP3    H146469   3.938   1.870  16.003 -1.7184 -0.1931  0.9859
 8326TIP3    H246470   3.804   1.907  15.944 -1.5731  1.8690  1.8707
 8327TIP3   OH246471   3.679   3.095   2.276 -0.5349 -0.3584 -0.3380
 8327TIP3    H146472   3.692   3.049   2.359  0.2764 -0.7534 -0.6721
 8327TIP3    H246473   3.756   3.073   2.224  1.1772  3.2657  0.3234
 8328TIP3   OH246474   5.239   4.669   5.401 -0.2497 -0.2255 -0.5892
 8328TIP3    H146475   5.152   4.632   5.409 -1.4179  2.4531  0.1300
 8328TIP3    H246476   5.274   4.669   5.490  0.4096 -1.0449 -0.8333
 8329TIP3   OH246477   2.024   3.187   6.111 -0.1984 -0.0541 -0.4248
 8329TIP3    H146478   1.982   3.241   6.044  0.2445 -0.1149 -0.7542
 8329TIP3    H246479   1.952   3.141   6.153 -0.5824  0.7750 -0.1551
 8330TIP3   OH246480   3.600   6.617   1.003  0.3724  0.1344  0.4338
 8330TIP3    H146481   3.608   6.711   0.987  0.5171  0.1037  0.3298
 8330TIP3    H246482   3.667   6.599   1.070 -0.4969  0.3408  1.3856
 8331TIP3   OH246483   0.103   2.540   4.692  0.2679  0.2423  0.0237
 8331TIP3    H146484   0.070   2.582   4.772 -2.8080 -1.9727  0.0563
 8331TIP3    H246485   0.038   2.474   4.670  2.9758 -1.9935 -2.1132
 8332TIP3   OH246486   1.780   3.822   5.272  0.0233 -0.3551  0.0924
 8332TIP3    H146487   1.696   3.797   5.309 -0.3747  0.6905 -0.0766
 8332TIP3    H246488   1.820   3.877   5.340  0.9321 -1.4770  0.5069
 8333TIP3   OH246489   5.744   1.139   1.435  0.0504 -0.0032  0.1511
 8333TIP3    H146490   5.748   1.162   1.342 -1.3951  0.9035  0.2976
 8333TIP3    H246491   5.734   1.044   1.435 -0.2205  0.0210 -0.6238
 8334TIP3   OH246492   2.221   4.777  16.395 -0.0922  0.0914 -0.1374
 8334TIP3    H146493   2.267   4.701  16.359 -0.5891 -0.2824  0.0038
 8334TIP3    H246494   2.188   4.747  16.479  1.4872  1.1024  0.9005
 8335TIP3   OH246495   5.764   4.350  16.007  0.0171 -0.4781 -0.5112
 8335TIP3    H146496   5.770   4.316  16.097 -0.5699 -0.3992 -0.4367
 8335TIP3    H246497   5.691   4.412  16.010 -1.5155 -2.1230 -1.5533
 8336TIP3   OH246498   1.722   1.094   3.048 -0.0299  0.4532  0.0193
 8336TIP3    H146499   1.805   1.050   3.065 -0.3650  0.1253  0.8447
 8336TIP3    H246500   1.744   1.188   3.048  0.4310  0.3507 -0.3390
 8337TIP3   OH246501   1.293   4.595  15.262  0.2867 -0.1078 -0.3437
 8337TIP3    H146502   1.215   4.650  15.249  0.8732  1.0924  0.9287
 8337TIP3    H246503   1.367   4.654  15.245  0.9353 -0.5288  0.9041
 8338TIP3   OH246504   6.802   3.105  11.817  0.0281  0.1299  0.0768
 8338TIP3    H146505   6.756   3.021  11.818  0.8354 -0.3426 -0.8974
 8338TIP3    H246506   6.893   3.082  11.796  0.2602  1.2428 -0.1726
 8339TIP3   OH246507   5.415   2.586  14.124 -0.2032  0.5576  0.7378
 8339TIP3    H146508   5.323   2.601  14.101  0.1222 -0.3571 -1.4611
 8339TIP3    H246509   5.439   2.661  14.177 -1.9495  1.3423  0.4850
 8340TIP3   OH246510   5.735   0.723  17.101 -0.0660  0.2263 -0.2887
 8340TIP3    H146511   5.787   0.711  17.180 -1.5028 -1.6455  0.4389
 8340TIP3    H246512   5.796   0.760  17.038  1.3921  0.7715  1.3581
 8341TIP3   OH246513   0.367   0.863   0.729 -0.3733 -0.4444 -0.2926
 8341TIP3    H146514   0.424   0.939   0.716  0.8738 -0.9244  1.7877
 8341TIP3    H246515   0.278   0.896   0.718  0.0664  1.6306  1.6582
 8342TIP3   OH246516   3.583   2.166   0.867 -0.3056 -0.3163  0.4564
 8342TIP3    H146517   3.514   2.107   0.894 -1.4597  1.1354  0.7943
 8342TIP3    H246518   3.591   2.153   0.772 -1.8137  0.2505  0.2275
 8343TIP3   OH246519   0.007   1.029   5.155  0.3537 -0.5370 -0.5883
 8343TIP3    H146520  -0.018   1.066   5.240  0.8649 -0.7833 -0.3238
 8343TIP3    H246521   0.042   0.943   5.176 -0.5901 -1.0699 -1.1752
 8344TIP3   OH246522   1.911   5.113   1.702  0.0223  0.9816  0.3201
 8344TIP3    H146523   1.863   5.082   1.780  0.7348  0.0052  0.3882
 8344TIP3    H246524   1.891   5.206   1.698 -1.7253  0.6515  0.4635
 8345TIP3   OH246525   0.527   3.072   3.750  0.3697  0.3081 -0.1229
 8345TIP3    H146526   0.531   2.989   3.703  1.4430  1.6451 -2.6307
 8345TIP3    H246527   0.440   3.106   3.731  0.8214  0.8730 -1.3166
 8346TIP3   OH246528   1.452   3.178  11.164 -0.4324 -0.4292 -0.1149
 8346TIP3    H146529   1.522   3.189  11.100 -0.0038 -1.0996  0.2307
 8346TIP3    H246530   1.493   3.200  11.248 -0.9843  0.4188 -0.0489
 8347TIP3   OH246531   5.301   0.912  15.571 -0.0076 -0.4294  0.0822
 8347TIP3    H146532   5.307   1.006  15.587 -0.2947 -0.7174  2.1244
 8347TIP3    H246533   5.263   0.905  15.484  1.7336  1.3283 -0.9165
 8348TIP3   OH246534   3.161   3.539  14.094 -0.3052  0.5604 -0.4172
 8348TIP3    H146535   3.086   3.506  14.044 -0.0539  2.6290 -2.3196
 8348TIP3    H246536   3.214   3.585  14.029  1.1749  1.5546  1.4158
 8349TIP3   OH246537   5.510   1.572   5.311  0.4315  0.3550 -0.5195
 8349TIP3    H146538   5.573   1.530   5.252  0.1431 -0.6680 -0.1153
 8349TIP3    H246539   5.478   1.501   5.366 -0.2678  1.0689  0.0096
 8350TIP3   OH246540   5.821   6.209   1.851  0.5420 -0.5880  0.0933
 8350TIP3    H146541   5.801   6.126   1.808  0.3446 -0.7893  0.5608
 8350TIP3    H246542   5.816   6.188   1.945  1.0205 -0.1786  0.2157
 8351TIP3   OH246543   3.702   1.545  12.789 -0.3499 -0.2096  0.8941
 8351TIP3    H146544   3.722   1.504  12.873  3.9382  0.1100  0.2667
 8351TIP3    H246545   3.737   1.485  12.724 -0.7161  1.0174 -0.4921
 8352TIP3   OH246546   0.077   5.870  11.884  0.0692  0.2808 -0.0693
 8352TIP3    H146547   0.125   5.869  11.801  1.7739 -0.0708  0.8548
 8352TIP3    H246548   0.140   5.833  11.947 -1.9912 -1.7263  0.9450
 8353TIP3   OH246549   3.359   5.870   1.226  0.2646  0.2192 -1.0362
 8353TIP3    H146550   3.315   5.951   1.202  0.9165  0.7510 -0.4908
 8353TIP3    H246551   3.363   5.871   1.322  1.3979  0.1689 -1.0624
 8354TIP3   OH246552   6.663   4.469  15.986  0.5586 -0.3032  0.1732
 8354TIP3    H146553   6.676   4.563  16.001 -0.7533 -0.4602  3.1292
 8354TIP3    H246554   6.577   4.451  16.023 -0.6514 -2.2036 -3.1567
 8355TIP3   OH246555   3.809   0.467   5.095 -0.5895  0.5340 -0.4087
 8355TIP3    H146556   3.887   0.493   5.045 -0.6608 -0.4820 -1.0897
 8355TIP3    H246557   3.838   0.465   5.186 -0.1751  1.4300 -0.5130
 8356TIP3   OH246558   5.954   2.930  16.977 -0.4182 -0.8036  0.4517
 8356TIP3    H146559   5.987   2.843  17.002 -2.5859 -2.7074 -2.5750
 8356TIP3    H246560   5.967   2.935  16.882  0.4568  2.6599  0.6158
 8357TIP3   OH246561   5.937   6.467  15.536 -0.5941  0.3796 -0.4523
 8357TIP3    H146562   5.883   6.539  15.504 -0.9084  0.3093 -0.0923
 8357TIP3    H246563   5.990   6.506  15.606 -1.4483  0.0605  0.3994
 8358TIP3   OH246564   3.015   0.324  15.001  0.2386 -0.3117  0.3322
 8358TIP3    H146565   3.023   0.351  15.092  0.5084  0.5998  0.0437
 8358TIP3    H246566   3.105   0.323  14.968  0.0263  0.7548 -0.3104
 8359TIP3   OH246567   0.750   6.474  12.263  0.2616 -0.0253  0.1886
 8359TIP3    H146568   0.684   6.502  12.325 -0.0808  0.8435 -0.5574
 8359TIP3    H246569   0.738   6.530  12.187  2.1555  0.4830  0.2133
 8360TIP3   OH246570   4.506   1.359   3.247 -0.0865 -0.2096  0.3034
 8360TIP3    H146571   4.448   1.418   3.199 -0.7146 -1.0517  0.0000
 8360TIP3    H246572   4.580   1.414   3.272 -0.8217  0.7974  0.3602
 8361TIP3   OH246573   1.487   5.852   5.639  0.3893 -0.4194 -0.3252
 8361TIP3    H146574   1.507   5.916   5.708  1.5657 -1.0536 -0.0515
 8361TIP3    H246575   1.394   5.865   5.620  0.0863 -0.1146  1.2554
 8362TIP3   OH246576   4.386   1.623  15.469 -0.8255  0.4103  0.0518
 8362TIP3    H146577   4.367   1.717  15.476 -1.2571  0.2091  2.1691
 8362TIP3    H246578   4.411   1.597  15.557  1.2160 -1.1024 -0.9105
 8363TIP3   OH246579   5.937   1.376   4.650 -0.5391 -0.2156  0.1867
 8363TIP3    H146580   5.909   1.286   4.669  1.8911 -0.8100  1.3325
 8363TIP3    H246581   5.997   1.368   4.576  0.4603  0.2997  0.9192
 8364TIP3   OH246582   4.585   2.620  17.018 -0.5302 -0.0032 -0.2182
 8364TIP3    H146583   4.549   2.652  17.101 -1.6324 -1.9503  0.1099
 8364TIP3    H246584   4.509   2.607  16.962 -0.0503 -1.2513 -0.5978
 8365TIP3   OH246585   4.849   3.483   6.412 -0.1611  0.2512  0.2198
 8365TIP3    H146586   4.944   3.476   6.397  0.0010  2.0074  0.1771
 8365TIP3    H246587   4.820   3.546   6.346 -1.3270 -0.0943  0.3973
 8366TIP3   OH246588   6.211   5.930  15.691 -0.1481  0.0392 -0.4649
 8366TIP3    H146589   6.122   5.922  15.726 -0.1767  2.0419  0.0306
 8366TIP3    H246590   6.200   5.915  15.597 -1.0139  0.2063 -0.4064
 8367TIP3   OH246591   2.372   6.298   0.404 -0.3481  0.6066  0.1265
 8367TIP3    H146592   2.384   6.282   0.497  1.2605 -1.1521 -0.2997
 8367TIP3    H246593   2.353   6.211   0.367  0.1558  1.0747 -1.3066
 8368TIP3   OH246594   0.803   3.034  15.572 -0.3935  0.0079  0.1511
 8368TIP3    H146595   0.709   3.047  15.559 -0.3414 -1.1692 -1.9090
 8368TIP3    H246596   0.844   3.080  15.498  0.5546 -0.5736  0.2923
 8369TIP3   OH246597   1.088   0.377   1.697 -0.0014  0.3024 -0.2601
 8369TIP3    H146598   1.128   0.321   1.764 -1.4348  1.5158  1.7007
 8369TIP3    H246599   1.149   0.450   1.687 -0.0048  0.3553  0.0824
 8370TIP3   OH246600   3.506   0.826   3.461  0.2506 -0.6997  0.3446
 8370TIP3    H146601   3.442   0.886   3.423 -1.9889 -2.4992  1.0330
 8370TIP3    H246602   3.550   0.878   3.528 -0.4317  0.6469 -0.2111
 8371TIP3   OH246603   1.701   5.711  16.190  0.3867  0.2355  0.2219
 8371TIP3    H146604   1.774   5.661  16.152  1.0481 -0.1661  1.9308
 8371TIP3    H246605   1.701   5.686  16.283 -0.6241  1.8156  0.6738
 8372TIP3   OH246606   0.252   4.065   1.066  0.2809 -0.0651  0.2204
 8372TIP3    H146607   0.341   4.038   1.090 -0.3297 -3.2671 -0.6237
 8372TIP3    H246608   0.256   4.160   1.062  3.2348 -0.0026  1.8001
 8373TIP3   OH246609   0.657   4.947  15.436  0.1718 -0.8162 -0.7511
 8373TIP3    H146610   0.717   4.879  15.468  0.2162 -0.2218  0.4625
 8373TIP3    H246611   0.582   4.941  15.494  0.9170  1.3319  0.5331
 8374TIP3   OH246612   0.211   5.614   1.472  0.1116  0.0655 -0.1726
 8374TIP3    H146613   0.141   5.664   1.513  1.0448  0.3791  1.1229
 8374TIP3    H246614   0.178   5.525   1.468 -0.8002  0.4124 -0.6701
 8375TIP3   OH246615   0.005   1.244   4.987  0.2246 -0.6329  0.3314
 8375TIP3    H146616  -0.015   1.154   5.013 -1.1008 -0.4715 -0.0157
 8375TIP3    H246617   0.085   1.238   4.936 -1.0123 -1.9469 -1.5585
 8376TIP3   OH246618   4.977   6.598  16.960 -0.1651 -0.0355 -0.2627
 8376TIP3    H146619   5.004   6.559  16.877 -0.3166  0.9197 -0.7716
 8376TIP3    H246620   5.016   6.542  17.027 -1.6201 -1.9703 -0.9321
 8377TIP3   OH246621   1.700   2.424  14.206  0.0582  0.4526 -0.2550
 8377TIP3    H146622   1.661   2.496  14.256 -1.1845 -1.2806  1.4490
 8377TIP3    H246623   1.630   2.359  14.199  1.6450 -1.3940 -0.0279
 8378TIP3   OH246624   0.924   1.707  10.787  0.4421 -0.3573 -0.0888
 8378TIP3    H146625   0.979   1.658  10.849  1.1152 -1.0819 -1.2239
 8378TIP3    H246626   0.893   1.641  10.725 -1.2829  0.1408  0.1881
 8379TIP3   OH246627   5.845   3.896  11.417  0.1533  0.1483  0.0413
 8379TIP3    H146628   5.905   3.916  11.489  0.1751 -1.9891  0.6787
 8379TIP3    H246629   5.902   3.867  11.346 -0.0423 -0.8639  0.2878
 8380TIP3   OH246630   1.889   6.602   1.398 -0.3230  0.2071  0.4034
 8380TIP3    H146631   1.794   6.591   1.397 -0.1501 -1.6235  0.0554
 8380TIP3    H246632   1.915   6.590   1.307  0.3880 -1.1189  0.7610
 8381TIP3   OH246633   6.739   5.484   1.370  0.2473 -0.2181  0.5005
 8381TIP3    H146634   6.814   5.527   1.331 -0.2669  1.9787  1.7677
 8381TIP3    H246635   6.689   5.451   1.296  0.5981  1.5561 -0.5771
 8382TIP3   OH246636   3.187   0.823   5.053  0.1168 -0.2556 -0.5204
 8382TIP3    H146637   3.162   0.773   5.130 -2.0776  0.7159 -0.5327
 8382TIP3    H246638   3.115   0.810   4.991  0.1832  1.7311 -1.0693
 8383TIP3   OH246639   1.714   0.403   6.284  1.2999  0.5507  0.4917
 8383TIP3    H146640   1.702   0.495   6.262 -1.9359 -0.2670 -2.1099
 8383TIP3    H246641   1.781   0.373   6.222  0.7179  0.7398 -0.2535
 8384TIP3   OH246642   3.274   1.663  14.208 -0.2179  0.0974 -0.2508
 8384TIP3    H146643   3.359   1.664  14.251  0.0532 -0.1256 -0.7775
 8384TIP3    H246644   3.241   1.752  14.218 -0.0272  0.1237  0.1598
 8385TIP3   OH246645   2.952   0.960   0.756 -0.0563 -0.6885 -0.7066
 8385TIP3    H146646   2.868   0.949   0.800 -0.9699  1.2635 -1.9081
 8385TIP3    H246647   2.965   0.878   0.708 -0.2306 -1.8381  1.1061
 8386TIP3   OH246648   1.941   3.336  12.819  0.2936  0.1990 -0.4398
 8386TIP3    H146649   1.922   3.420  12.861 -0.3242  0.4359 -1.1710
 8386TIP3    H246650   2.036   3.335  12.809  0.1960  1.6095 -2.0096
 8387TIP3   OH246651   0.171   0.393   0.607 -0.5566 -0.4329  0.0880
 8387TIP3    H146652   0.169   0.488   0.595 -0.2901 -0.0973  2.2081
 8387TIP3    H246653   0.253   0.364   0.567  0.3742  0.5649  1.1917
 8388TIP3   OH246654   3.701   0.559  10.318 -0.4207 -0.1378 -0.2867
 8388TIP3    H146655   3.624   0.550  10.262 -0.7673 -2.8625  0.4574
 8388TIP3    H246656   3.676   0.516  10.399  1.6537 -0.4738  0.2261
 8389TIP3   OH246657   3.521   1.429   2.617 -0.0419  0.2483  0.3320
 8389TIP3    H146658   3.432   1.435   2.651 -0.0785 -3.0967  1.1785
 8389TIP3    H246659   3.512   1.390   2.530  0.5588  0.8739 -0.0260
 8390TIP3   OH246660   4.479   0.398   1.174  0.0512  0.0322  0.4856
 8390TIP3    H146661   4.414   0.466   1.192 -0.5045 -0.3581  0.0153
 8390TIP3    H246662   4.451   0.323   1.227 -0.7392 -0.6237 -0.8168
 8391TIP3   OH246663   4.890   2.405  16.951 -0.0026  0.2864 -0.0786
 8391TIP3    H146664   4.848   2.384  17.034  0.5439 -0.7478 -0.0534
 8391TIP3    H246665   4.833   2.470  16.911 -1.1442 -0.4199  0.3616
 8392TIP3   OH246666   0.678   3.993   0.830  0.2790 -0.1847 -0.7956
 8392TIP3    H146667   0.612   3.937   0.790  0.3192 -0.4105 -0.5464
 8392TIP3    H246668   0.659   4.081   0.796  0.0630 -0.3059 -0.9892
 8393TIP3   OH246669   2.637   5.149  16.279 -0.4240  0.7849  0.2416
 8393TIP3    H146670   2.635   5.198  16.197 -0.6208  0.0242 -0.2119
 8393TIP3    H246671   2.545   5.130  16.298 -0.4015  1.2047  0.7931
 8394TIP3   OH246672   4.761   5.325  12.635 -0.4917  0.2802  0.0414
 8394TIP3    H146673   4.820   5.274  12.690 -0.4639 -1.0283 -1.1266
 8394TIP3    H246674   4.810   5.403  12.611  2.3348 -2.2670 -3.7108
 8395TIP3   OH246675   3.090   1.716  13.400 -0.9411  0.0983  0.1229
 8395TIP3    H146676   3.155   1.698  13.468  0.7021 -0.9979 -1.6476
 8395TIP3    H246677   3.065   1.629  13.367 -0.6266  0.6323 -1.6132
 8396TIP3   OH246678   2.513   6.539   3.008 -0.0564  0.7990  0.2733
 8396TIP3    H146679   2.553   6.489   2.937  1.1887  2.5619 -0.3313
 8396TIP3    H246680   2.564   6.515   3.086 -1.6616 -1.4241  0.7397
 8397TIP3   OH246681   2.842   2.675  12.759 -0.0093  0.1407  0.0517
 8397TIP3    H146682   2.927   2.701  12.725  0.0566 -1.9906 -1.6637
 8397TIP3    H246683   2.787   2.666  12.681 -1.2560 -0.3210  0.9591
 8398TIP3   OH246684   1.717   6.416  11.222 -0.2258  0.0590  0.6169
 8398TIP3    H146685   1.656   6.370  11.279  1.8569 -0.3911  2.6157
 8398TIP3    H246686   1.696   6.508  11.233 -1.6769 -0.1414 -0.1629
 8399TIP3   OH246687   1.308   1.004  11.574  0.3539 -0.5602 -0.2607
 8399TIP3    H146688   1.308   1.094  11.607  2.7769 -0.7491  0.4555
 8399TIP3    H246689   1.274   1.012  11.485  0.1093  0.9968 -0.0692
 8400TIP3   OH246690   5.370   0.976  12.430 -0.1565 -0.1898  0.5476
 8400TIP3    H146691   5.405   1.052  12.384 -0.8829 -0.4789 -0.5236
 8400TIP3    H246692   5.289   1.007  12.470 -1.3818 -0.7778 -1.3439
 8401TIP3   OH246693   4.168   1.759  10.549  0.3487  0.0891 -0.2924
 8401TIP3    H146694   4.084   1.725  10.518  0.7873 -0.9231 -0.4325
 8401TIP3    H246695   4.220   1.680  10.567  2.0401  0.6509 -2.3323
 8402TIP3   OH246696   5.440   2.307   0.127 -0.3893  0.4187 -0.0921
 8402TIP3    H146697   5.462   2.397   0.103 -1.7092  0.0332 -3.2316
 8402TIP3    H246698   5.345   2.301   0.115 -0.5573 -1.0324  1.5305
 8403TIP3   OH246699   1.746   1.076  14.698  0.4552 -0.3336  0.3563
 8403TIP3    H146700   1.743   1.083  14.603 -0.0599 -0.1384  0.3826
 8403TIP3    H246701   1.819   1.017  14.716  1.8243  1.1550 -0.0682
 8404TIP3   OH246702   6.477   6.340   4.677 -0.2595  0.4935 -0.0930
 8404TIP3    H146703   6.559   6.377   4.710 -0.6970  0.1249  1.4973
 8404TIP3    H246704   6.466   6.259   4.727  0.3013 -1.4768 -2.9273
 8405TIP3   OH246705   4.143   5.945  16.981  0.6655  0.5595  0.8696
 8405TIP3    H146706   4.137   5.940  17.077 -1.2744  0.1458  0.7759
 8405TIP3    H246707   4.063   5.902  16.951  0.8998  1.3338 -0.9357
 8406TIP3   OH246708   5.399   1.525   1.548  0.1520 -0.2644 -0.0146
 8406TIP3    H146709   5.458   1.516   1.623  0.4105  2.6425  0.2713
 8406TIP3    H246710   5.437   1.469   1.480  0.9184 -1.5866  1.4540
 8407TIP3   OH246711   5.213   3.119  11.878 -0.0414 -0.8087 -0.2176
 8407TIP3    H146712   5.220   3.208  11.843 -1.7037 -0.9414 -1.0158
 8407TIP3    H246713   5.288   3.072  11.841 -0.6138 -0.4066 -1.9817
 8408TIP3   OH246714   1.721   4.167   5.540 -0.7419  0.2477 -0.1868
 8408TIP3    H146715   1.635   4.142   5.575 -0.7005  0.9132  0.4035
 8408TIP3    H246716   1.744   4.247   5.588 -1.5694  2.3744 -3.0013
 8409TIP3   OH246717   5.493   4.678   2.591  0.2278 -0.2678 -0.8043
 8409TIP3    H146718   5.496   4.615   2.663 -0.4306  1.5551  0.9318
 8409TIP3    H246719   5.409   4.661   2.548  0.8773 -1.7424 -1.5453
 8410TIP3   OH246720   4.916   4.173  14.187 -0.3348 -0.0553  0.4016
 8410TIP3    H146721   4.884   4.262  14.171 -0.0215 -0.0576 -0.3006
 8410TIP3    H246722   5.002   4.170  14.143 -0.1507 -0.5711  0.7846
 8411TIP3   OH246723   6.476   2.979  12.499  0.0589 -0.3401 -0.3717
 8411TIP3    H146724   6.443   3.042  12.435  0.8885  0.4010 -0.0943
 8411TIP3    H246725   6.397   2.936  12.533 -0.4712  0.0895 -1.0389
 8412TIP3   OH246726   5.109   1.818   1.981 -0.3240 -0.1481  0.3377
 8412TIP3    H146727   5.066   1.746   2.028  0.9135 -0.1287  1.5470
 8412TIP3    H246728   5.086   1.896   2.031  0.2395 -0.0063  0.3806
 8413TIP3   OH246729   5.151   0.525   0.900  0.2529  0.8206  0.0653
 8413TIP3    H146730   5.166   0.432   0.917  0.6421  0.9726  0.5623
 8413TIP3    H246731   5.065   0.527   0.857 -0.6812  0.3814  1.8082
 8414TIP3   OH246732   4.548   1.216  13.350  0.2868 -0.6951  0.1555
 8414TIP3    H146733   4.544   1.121  13.357  2.7964 -0.7577  1.9302
 8414TIP3    H246734   4.615   1.232  13.283 -0.5190 -0.1398 -0.5404
 8415TIP3   OH246735   2.409   0.626   5.184 -0.0200 -0.8417  0.1973
 8415TIP3    H146736   2.493   0.664   5.159  0.2477 -1.3695  0.2748
 8415TIP3    H246737   2.362   0.698   5.226 -0.9578  0.4591 -2.7724
 8416TIP3   OH246738   1.455   1.979  17.024  0.6162 -0.4409 -0.6451
 8416TIP3    H146739   1.408   1.958  16.943 -1.8601 -0.0769  0.6118
 8416TIP3    H246740   1.449   2.074  17.031 -2.1310 -0.6430  1.5011
 8417TIP3   OH246741   3.962   5.435  12.097  0.2248  0.3056  0.3949
 8417TIP3    H146742   3.974   5.342  12.076  0.7033  0.1431  1.3430
 8417TIP3    H246743   4.045   5.462  12.137 -0.1170  0.9870  0.6660
 8418TIP3   OH246744   3.002   0.449  14.366 -0.1945  0.0240 -0.7530
 8418TIP3    H146745   2.926   0.394  14.346  1.9741 -3.5756  0.1093
 8418TIP3    H246746   3.036   0.474  14.280  0.6541 -2.9578 -1.3898
 8419TIP3   OH246747   0.108   1.005   5.766  0.7117 -0.2445  0.1408
 8419TIP3    H146748   0.133   1.098   5.770  0.9026 -0.2932  0.0846
 8419TIP3    H246749   0.099   0.979   5.858  2.9230 -0.7789  0.2549
 8420TIP3   OH246750   4.905   2.233  13.532 -0.5373  0.4387  0.3349
 8420TIP3    H146751   4.840   2.302  13.522 -1.3926 -0.3043  0.6107
 8420TIP3    H246752   4.989   2.276  13.516 -1.2063  0.9963 -1.9808
 8421TIP3   OH246753   6.275   0.246   1.437 -0.5360  0.3660 -0.3091
 8421TIP3    H146754   6.270   0.180   1.506  0.1140  1.9569  1.3500
 8421TIP3    H246755   6.189   0.243   1.394 -0.3897 -1.7697 -0.5430
 8422TIP3   OH246756   3.151   5.344   1.989 -0.1789 -0.1730  0.0343
 8422TIP3    H146757   3.223   5.393   1.948 -0.5034 -1.4083 -2.1337
 8422TIP3    H246758   3.082   5.410   2.001 -0.0571  0.2643 -1.4145
 8423TIP3   OH246759   5.658   4.705   3.338 -0.3579 -0.1374  0.1304
 8423TIP3    H146760   5.626   4.648   3.407  1.1164  0.0251  0.9923
 8423TIP3    H246761   5.683   4.786   3.383  0.5073  0.0174 -0.5921
 8424TIP3   OH246762   0.520   2.370   2.065 -0.0131 -0.3682  0.0989
 8424TIP3    H146763   0.471   2.288   2.072 -0.4809 -0.1998 -1.0485
 8424TIP3    H246764   0.576   2.370   2.142 -0.5424 -1.4107  0.5123
 8425TIP3   OH246765   4.324   6.091  10.045 -0.2273  0.1569  0.2145
 8425TIP3    H146766   4.279   6.174  10.062 -0.7495  0.3471 -1.8060
 8425TIP3    H246767   4.267   6.025  10.085 -0.7326  0.6429  0.3176
 8426TIP3   OH246768   1.294   6.555  16.874  0.4920 -0.2034 -0.1969
 8426TIP3    H146769   1.386   6.532  16.868  0.6380 -0.1333  1.3784
 8426TIP3    H246770   1.285   6.596  16.961 -1.0086 -0.1919 -0.3317
 8427TIP3   OH246771   2.348   6.607  14.466  0.7003  0.0607 -0.1023
 8427TIP3    H146772   2.414   6.637  14.403 -0.2702  0.0424 -1.1462
 8427TIP3    H246773   2.382   6.635  14.551  0.7393  2.4830 -0.8592
 8428TIP3   OH246774   2.938   0.817   1.300  0.3886  0.1687  0.8486
 8428TIP3    H146775   3.009   0.776   1.350  0.0211  0.1572  1.3775
 8428TIP3    H246776   2.865   0.756   1.308 -0.0666  0.7609  1.3789
 8429TIP3   OH246777   0.503   0.182   1.248  0.1844 -0.9486 -0.2619
 8429TIP3    H146778   0.560   0.181   1.171  0.7384  1.5473  0.0395
 8429TIP3    H246779   0.434   0.244   1.226  0.0863 -0.5680  1.0520
 8430TIP3   OH246780   5.014   3.498  16.122  0.1965  0.0485 -0.1329
 8430TIP3    H146781   5.061   3.581  16.127 -0.2695  0.3235 -0.2541
 8430TIP3    H246782   4.945   3.513  16.058  0.3381 -0.5528 -0.4302
 8431TIP3   OH246783   6.569   0.244  16.208 -0.4266 -0.2004  0.3042
 8431TIP3    H146784   6.608   0.295  16.279  1.2950 -2.7941  1.3569
 8431TIP3    H246785   6.612   0.276  16.129 -0.0798  0.5918  0.8040
 8432TIP3   OH246786   4.145   1.089   2.764 -0.1445 -0.9487  0.6728
 8432TIP3    H146787   4.195   1.010   2.781 -1.1899 -1.9529 -0.6733
 8432TIP3    H246788   4.179   1.153   2.825  1.0802 -2.2944  1.4481
 8433TIP3   OH246789   1.192   3.196  14.115 -0.3981  0.1208  0.0383
 8433TIP3    H146790   1.124   3.130  14.106  0.0778 -0.3297 -0.3252
 8433TIP3    H246791   1.169   3.243  14.195  0.3728 -1.8476  1.5121
 8434TIP3   OH246792   0.920   4.665   0.654  0.3671  0.6915 -0.2385
 8434TIP3    H146793   0.961   4.663   0.741 -0.5728  1.0125  0.2269
 8434TIP3    H246794   0.960   4.740   0.611  1.1505  0.2761 -0.2447
 8435TIP3   OH246795   1.475   0.214  16.089 -0.0651  0.3090  0.1710
 8435TIP3    H146796   1.513   0.225  16.002  1.4224 -1.0160  0.6069
 8435TIP3    H246797   1.386   0.182  16.072 -0.1312  1.0184 -0.8610
 8436TIP3   OH246798   4.986   5.150   4.661  0.2248 -0.5465  0.4989
 8436TIP3    H146799   5.073   5.116   4.685  0.5479 -0.3522 -0.3685
 8436TIP3    H246800   4.962   5.102   4.582  0.5488  0.9761 -0.5671
 8437TIP3   OH246801   6.219   0.011   3.402 -0.6175  0.1378  0.4296
 8437TIP3    H146802   6.235  -0.076   3.365 -1.3872 -0.3069  1.0996
 8437TIP3    H246803   6.253   0.072   3.337  0.0832 -0.6715  0.0262
 8438TIP3   OH246804   0.019   4.293   3.849  0.5585  0.5348 -0.4654
 8438TIP3    H146805   0.082   4.231   3.812  1.0849  0.6754  0.1723
 8438TIP3    H246806   0.049   4.379   3.818 -0.1773  0.4776 -1.3592
 8439TIP3   OH246807   6.572   3.891  16.255  0.3887  0.3645  0.6803
 8439TIP3    H146808   6.500   3.950  16.277 -1.6281 -1.9455  0.7110
 8439TIP3    H246809   6.551   3.860  16.166  2.1801  0.7527  0.0835
 8440TIP3   OH246810   4.373   3.492  16.539 -0.4794  0.6096 -0.1924
 8440TIP3    H146811   4.355   3.554  16.610  0.7074  0.5891  0.1319
 8440TIP3    H246812   4.329   3.411  16.566 -1.2316  1.0100 -0.1713
 8441TIP3   OH246813   3.480   2.966   2.752  0.3444  0.2354  0.7120
 8441TIP3    H146814   3.406   2.907   2.761  0.1583 -0.0412 -1.8457
 8441TIP3    H246815   3.549   2.929   2.807 -0.9993 -0.1617  2.1795
 8442TIP3   OH246816   6.461   1.486   0.111  0.5330  0.3364  0.3883
 8442TIP3    H146817   6.483   1.569   0.069 -2.4668  0.9665 -0.2121
 8442TIP3    H246818   6.396   1.446   0.053  2.2820 -2.7758  0.3798
 8443TIP3   OH246819   2.396   2.632   0.309  0.3128 -0.0459 -0.5902
 8443TIP3    H146820   2.399   2.722   0.276  0.4220  0.4868  0.8176
 8443TIP3    H246821   2.304   2.608   0.304  0.4540 -0.3531 -2.2051
 8444TIP3   OH246822   2.097   4.544  12.155 -0.2359 -0.7401 -0.5697
 8444TIP3    H146823   2.188   4.574  12.149 -0.3522 -0.5821 -2.2730
 8444TIP3    H246824   2.102   4.458  12.195  0.4079  0.2306  1.5394
 8445TIP3   OH246825   1.075   3.667  12.758 -0.1324  0.3314  0.8969
 8445TIP3    H146826   1.020   3.611  12.813 -0.7248  1.3310  1.3513
 8445TIP3    H246827   1.106   3.609  12.689 -2.4637 -0.1092  0.1120
 8446TIP3   OH246828   4.685   5.373   2.567  0.3826  0.1126 -0.4435
 8446TIP3    H146829   4.756   5.368   2.630  0.5184 -0.2694 -0.6255
 8446TIP3    H246830   4.607   5.390   2.620  0.1286 -2.3636  0.0876
 8447TIP3   OH246831   6.156   5.383  16.104  0.2335 -0.3427  0.5667
 8447TIP3    H146832   6.099   5.350  16.034  0.3688 -0.5321  0.5436
 8447TIP3    H246833   6.152   5.315  16.171  0.4386 -0.3621  0.5608
 8448TIP3   OH246834   4.026   5.110   5.349 -0.1995 -0.0086 -0.5565
 8448TIP3    H146835   4.114   5.101   5.385 -0.7795 -1.9800  0.5410
 8448TIP3    H246836   4.038   5.149   5.263  1.9084 -1.6928 -1.0929
 8449TIP3   OH246837   4.652   1.472   3.655 -0.2538  0.2794  0.0991
 8449TIP3    H146838   4.602   1.543   3.694 -3.0170 -0.6854 -1.3919
 8449TIP3    H246839   4.621   1.393   3.699  1.8531 -0.2076  0.8512
 8450TIP3   OH246840   3.131   4.099  15.641  0.0584  0.1259 -0.1563
 8450TIP3    H146841   3.047   4.061  15.667  0.3690  0.2097  1.0202
 8450TIP3    H246842   3.122   4.193  15.657 -0.0394  0.3124 -1.2203
 8451TIP3   OH246843   2.610   3.728   4.573 -0.3842 -0.4121 -0.1345
 8451TIP3    H146844   2.560   3.703   4.651 -0.0960  2.5944  1.1507
 8451TIP3    H246845   2.546   3.770   4.516 -0.2766 -1.1787 -0.8387
 8452TIP3   OH246846   1.769   5.158   6.239  0.0299 -0.1080 -0.7906
 8452TIP3    H146847   1.789   5.205   6.321  1.0733 -1.1950 -0.3876
 8452TIP3    H246848   1.855   5.128   6.208 -0.0634  1.8743 -3.3246
 8453TIP3   OH246849   3.983   3.547   1.982 -0.0337 -0.3617  0.3001
 8453TIP3    H146850   4.044   3.618   1.966 -0.4863 -0.6186 -3.2089
 8453TIP3    H246851   4.036   3.479   2.024  1.0051  1.0176  1.3085
 8454TIP3   OH246852   3.856   1.772   5.222  0.0393 -0.0356 -0.3728
 8454TIP3    H146853   3.764   1.787   5.242  0.5259  0.1993  1.9981
 8454TIP3    H246854   3.890   1.727   5.300  2.2098  1.1226 -0.5808
 8455TIP3   OH246855   2.703   2.808   6.140  0.0520 -0.0189  0.2669
 8455TIP3    H146856   2.629   2.749   6.131  0.9213 -1.4933  1.9914
 8455TIP3    H246857   2.667   2.895   6.127 -1.4858 -0.8331 -1.2737
 8456TIP3   OH246858   4.094   5.913  11.953  0.4861 -0.0301 -0.7734
 8456TIP3    H146859   4.071   6.000  11.920  1.5450  0.0853 -1.2624
 8456TIP3    H246860   4.027   5.855  11.918 -1.3527  0.8331  1.1179
 8457TIP3   OH246861   0.811   0.100  16.540  0.1669 -0.1408  0.0712
 8457TIP3    H146862   0.771   0.058  16.616 -0.4485 -1.5195 -0.9858
 8457TIP3    H246863   0.892   0.050  16.525  1.3337  1.3717  0.9764
 8458TIP3   OH246864   3.265   1.410  16.098 -0.2388 -0.4132  0.3167
 8458TIP3    H146865   3.344   1.377  16.055  0.0201 -0.2105  0.6383
 8458TIP3    H246866   3.222   1.464  16.031 -0.2539 -0.7575  0.0488
 8459TIP3   OH246867   5.101   3.442  16.980 -0.0015  0.2127 -0.7160
 8459TIP3    H146868   5.191   3.460  16.952 -0.0246 -0.4800 -1.2598
 8459TIP3    H246869   5.063   3.395  16.906 -0.7912  0.4347 -0.4521
 8460TIP3   OH246870   2.354   1.956  16.357 -0.1605  0.0657 -0.3615
 8460TIP3    H146871   2.270   1.914  16.376  0.0528  0.4833  1.7324
 8460TIP3    H246872   2.407   1.940  16.435 -0.0969  4.2340  0.6710
 8461TIP3   OH246873   5.665   5.436  15.597  0.2728  0.0924  0.4364
 8461TIP3    H146874   5.662   5.530  15.580  0.6158  0.0431  0.0844
 8461TIP3    H246875   5.596   5.421  15.661  0.3723  0.6218  0.6774
 8462TIP3   OH246876   3.084   6.353  15.481 -0.3105 -0.7028  0.1585
 8462TIP3    H146877   3.042   6.413  15.420 -0.0067 -1.4215 -0.7937
 8462TIP3    H246878   3.145   6.303  15.426  1.6418  0.1676  1.4455
 8463TIP3   OH246879   0.246   1.916  11.307  0.3502 -0.1974 -0.0381
 8463TIP3    H146880   0.183   1.956  11.367 -0.5768  1.6498 -2.1079
 8463TIP3    H246881   0.192   1.868  11.244  0.8861  1.4295 -1.8517
 8464TIP3   OH246882   5.234   1.999  12.438 -0.6315 -0.4317 -0.0928
 8464TIP3    H146883   5.171   2.056  12.394 -1.4229 -1.8201 -0.8235
 8464TIP3    H246884   5.203   1.993  12.528 -0.7808 -0.0662 -0.1155
 8465TIP3   OH246885   4.293   6.647   4.578  0.4146 -0.0690  0.1163
 8465TIP3    H146886   4.341   6.630   4.497  0.2810  0.3615 -0.0584
 8465TIP3    H246887   4.249   6.565   4.598  0.4744 -0.1874 -0.2302
 8466TIP3   OH246888   5.346   2.973   6.681 -0.5068  0.3495 -0.5078
 8466TIP3    H146889   5.385   2.891   6.710 -0.3287  0.1023 -1.4121
 8466TIP3    H246890   5.253   2.965   6.702 -0.2560  0.5124  0.7113
 8467TIP3   OH246891   5.048   1.392  14.707 -0.0503 -0.0089 -0.1938
 8467TIP3    H146892   5.120   1.424  14.653  0.1511  0.4367  0.3396
 8467TIP3    H246893   5.022   1.309  14.665  0.5434 -0.0028 -0.5798
 8468TIP3   OH246894   2.036   0.047   5.800  0.7707  0.3902  0.5335
 8468TIP3    H146895   2.031  -0.026   5.862  3.1356  0.6184  1.0977
 8468TIP3    H246896   1.949   0.053   5.762 -0.2963 -0.8364  2.6219
 8469TIP3   OH246897   3.787   4.051   0.200 -0.5145 -0.2825  0.6440
 8469TIP3    H146898   3.881   4.052   0.220 -0.1109  0.9096 -1.0971
 8469TIP3    H246899   3.755   3.969   0.238  2.0155 -2.6733 -1.8607
 8470TIP3   OH246900   4.957   4.413  13.269 -0.2670  0.2663  0.8833
 8470TIP3    H146901   4.917   4.329  13.246 -0.6010  0.7493 -0.4008
 8470TIP3    H246902   5.042   4.390  13.306  0.1392 -0.6172 -0.5234
 8471TIP3   OH246903   0.702   1.593  13.104  0.3617 -0.2455  0.0477
 8471TIP3    H146904   0.626   1.591  13.163 -0.2088  1.5581 -0.5579
 8471TIP3    H246905   0.670   1.555  13.022 -0.1031  1.0421 -0.3956
 8472TIP3   OH246906   0.033   5.751  11.578 -0.0482  0.0233  0.0985
 8472TIP3    H146907   0.059   5.721  11.490  1.1458 -0.1539  0.4915
 8472TIP3    H246908  -0.022   5.827  11.562  0.0072 -0.1167 -0.8117
 8473TIP3   OH246909   0.725   2.301  16.633  0.0175 -0.0983 -0.2856
 8473TIP3    H146910   0.782   2.236  16.675 -0.5005  0.7594  1.8641
 8473TIP3    H246911   0.651   2.250  16.599 -0.0146 -0.7286  0.7004
 8474TIP3   OH246912   2.546   4.421  15.864 -0.2152  0.2804  0.6900
 8474TIP3    H146913   2.564   4.331  15.889  0.6773  0.1943 -0.2084
 8474TIP3    H246914   2.492   4.456  15.935  0.2237 -0.6715  1.5023
 8475TIP3   OH246915   5.766   5.802   0.309  0.1359 -0.4401 -0.2597
 8475TIP3    H146916   5.686   5.757   0.282  0.4256 -1.4281  0.4790
 8475TIP3    H246917   5.832   5.733   0.314  1.0535  0.3662 -0.8955
 8476TIP3   OH246918   6.357   2.525   3.278  0.5306  0.2049  0.3368
 8476TIP3    H146919   6.403   2.558   3.355  0.0945 -0.9523  1.1267
 8476TIP3    H246920   6.265   2.545   3.296  0.5697  1.4402 -0.6836
 8477TIP3   OH246921   1.003   2.929   1.179 -0.7422 -0.6056  0.4306
 8477TIP3    H146922   1.042   2.984   1.112 -1.1340 -1.4760 -0.5453
 8477TIP3    H246923   0.954   2.862   1.130 -1.0972 -1.2209  1.5784
 8478TIP3   OH246924   4.131   1.149  11.543 -0.0950  0.3711  0.0866
 8478TIP3    H146925   4.053   1.134  11.597 -0.0204 -0.0517  0.0852
 8478TIP3    H246926   4.144   1.066  11.497  1.8948 -0.5053  2.0737
 8479TIP3   OH246927   1.099   4.108  14.483 -0.3224 -0.2230  0.3612
 8479TIP3    H146928   1.135   4.064  14.406 -1.8222 -1.9615  0.5890
 8479TIP3    H246929   1.038   4.173  14.448 -0.8079 -0.8359  0.0540
 8480TIP3   OH246930   3.079   0.327  13.114 -0.0529  0.0481  0.0435
 8480TIP3    H146931   3.021   0.373  13.053  0.5671  0.9989  0.1334
 8480TIP3    H246932   3.051   0.357  13.200  0.2554  0.1505  0.1118
 8481TIP3   OH246933   0.517   3.520  15.800  0.2056  0.3621  0.5032
 8481TIP3    H146934   0.540   3.482  15.885 -1.7827 -0.9059  0.5222
 8481TIP3    H246935   0.541   3.453  15.736  0.7104  0.8760  0.1505
 8482TIP3   OH246936   4.945   3.432  14.391 -0.3616 -0.2785  0.6464
 8482TIP3    H146937   4.950   3.525  14.415 -0.4491  0.2478 -1.1896
 8482TIP3    H246938   4.854   3.420  14.362  0.0609 -0.4889 -0.6775
 8483TIP3   OH246939   5.328   6.433   2.865 -0.1623  0.6756 -0.0509
 8483TIP3    H146940   5.249   6.451   2.814  0.1332  0.6597 -0.5161
 8483TIP3    H246941   5.295   6.397   2.947 -0.6233  0.2966 -0.3978
 8484TIP3   OH246942   1.108   4.667   4.171 -0.2243 -0.0984  0.2828
 8484TIP3    H146943   1.094   4.645   4.264 -0.0690 -2.0808 -0.1141
 8484TIP3    H246944   1.127   4.583   4.130  2.5786  1.0664 -1.0728
 8485TIP3   OH246945   4.533   3.316  15.346 -0.2309 -0.0078 -0.0284
 8485TIP3    H146946   4.439   3.329  15.346 -0.2056  0.2497  0.6382
 8485TIP3    H246947   4.546   3.240  15.403 -0.0396 -0.0487 -0.1261
 8486TIP3   OH246948   1.627   4.114   3.157 -0.2988  0.4915 -0.8998
 8486TIP3    H146949   1.541   4.152   3.136 -0.8748  0.4129  1.0890
 8486TIP3    H246950   1.639   4.133   3.251  2.0203  0.7985 -1.2019
 8487TIP3   OH246951   6.294   1.091  10.313 -0.0939 -0.0322 -0.1816
 8487TIP3    H146952   6.365   1.055  10.366 -1.5313 -1.2863  0.9678
 8487TIP3    H246953   6.231   1.124  10.376 -1.7731 -1.3997 -1.0577
 8488TIP3   OH246954   5.947   1.154  12.365 -0.0237  0.3147 -0.7225
 8488TIP3    H146955   5.997   1.153  12.446  1.5484 -1.3518 -1.6545
 8488TIP3    H246956   5.855   1.147  12.394  0.4156  0.8922  0.9236
 8489TIP3   OH246957   5.350   1.837   1.429 -0.0785 -0.5261  0.5471
 8489TIP3    H146958   5.259   1.820   1.454 -0.6269 -2.2125 -2.1145
 8489TIP3    H246959   5.401   1.772   1.476 -0.1106  0.8163  2.5270
 8490TIP3   OH246960   4.191   4.134  11.750 -0.3203  0.3183  0.6509
 8490TIP3    H146961   4.282   4.104  11.747 -0.3247  0.2170  1.2793
 8490TIP3    H246962   4.191   4.202  11.818 -1.2817 -1.7471  2.8673
 8491TIP3   OH246963   1.431   5.026  12.663  0.1691 -0.1806  0.0996
 8491TIP3    H146964   1.384   5.013  12.745 -0.4885 -2.8237 -0.5783
 8491TIP3    H246965   1.523   5.025  12.688 -0.0252 -0.7604  0.8440
 8492TIP3   OH246966   1.177   6.013  13.535 -0.4343 -0.4449 -0.0679
 8492TIP3    H146967   1.217   6.099  13.546 -2.2340  0.3786  0.4057
 8492TIP3    H246968   1.236   5.966  13.476  0.4630  1.1907 -0.5234
 8493TIP3   OH246969   6.201   2.562  13.362 -0.1701  0.2639 -0.1618
 8493TIP3    H146970   6.174   2.506  13.435 -1.0683 -1.1040 -1.4804
 8493TIP3    H246971   6.229   2.643  13.403 -0.0698 -0.6847  1.7382
 8494TIP3   OH246972   3.024   4.883  12.133  0.3466 -0.1298  0.0252
 8494TIP3    H146973   3.002   4.813  12.072  1.6949 -0.3707 -0.2096
 8494TIP3    H246974   3.110   4.914  12.104 -0.0080  1.2949  0.4231
 8495TIP3   OH246975   2.757   6.229  13.559  0.5738 -0.3021 -0.0424
 8495TIP3    H146976   2.755   6.160  13.626  1.9918 -1.2690 -0.9532
 8495TIP3    H246977   2.849   6.253  13.552  0.2100  1.0266 -0.4198
 8496TIP3   OH246978   2.779   0.576  14.725 -0.3176 -0.5241  0.2813
 8496TIP3    H146979   2.773   0.659  14.771 -0.1182 -0.5745  0.3983
 8496TIP3    H246980   2.757   0.510  14.791 -0.1167 -0.5905  0.2831
 8497TIP3   OH246981   5.616   4.157   5.207  0.2585 -0.2837 -0.4380
 8497TIP3    H146982   5.527   4.123   5.223 -0.4190  0.7618 -1.8217
 8497TIP3    H246983   5.648   4.104   5.134  0.7197 -0.5454 -0.0482
 8498TIP3   OH246984   6.630   3.520  11.857  0.5131 -0.2418 -0.3389
 8498TIP3    H146985   6.723   3.535  11.841  0.3860  2.6424  0.9809
 8498TIP3    H246986   6.586   3.566  11.786  0.0639 -1.2758 -0.7433
 8499TIP3   OH246987   3.988   2.765  13.026 -0.1102 -0.9366 -0.2693
 8499TIP3    H146988   4.012   2.857  13.033  0.0208 -0.4124 -4.5415
 8499TIP3    H246989   4.061   2.717  13.065  0.6376  0.7373  0.4511
 8500TIP3   OH246990   6.169   5.446  13.526 -0.0206  0.2345  0.4295
 8500TIP3    H146991   6.262   5.451  13.507 -0.4148  0.6775 -1.5770
 8500TIP3    H246992   6.145   5.534  13.553  0.1976  0.0183  1.3764
 8501TIP3   OH246993   0.737   2.009   0.960  0.0053 -0.2634  0.1839
 8501TIP3    H146994   0.735   2.100   0.928  0.0874 -0.7092 -1.1204
 8501TIP3    H246995   0.799   2.012   1.033 -2.1168  1.2915  2.0669
 8502TIP3   OH246996   2.959   3.825  13.484 -0.5617  0.2819  0.0366
 8502TIP3    H146997   3.001   3.836  13.569 -1.7600 -2.9307  1.1733
 8502TIP3    H246998   2.870   3.857  13.497 -1.3407 -1.9537  0.6886
 8503TIP3   OH246999   0.714   4.349   1.648  0.4955 -0.2148 -0.1947
 8503TIP3    H147000   0.784   4.338   1.583  0.8843  0.3426  0.1146
 8503TIP3    H247001   0.760   4.353   1.732 -0.0429 -1.4815  0.1906
 8504TIP3   OH247002   5.231   3.968   2.914  0.3823  0.6021  0.2738
 8504TIP3    H147003   5.178   3.950   2.991  0.7425  2.1590  0.9114
 8504TIP3    H247004   5.321   3.968   2.946  0.5773  0.6923 -0.2607
 8505TIP3   OH247005   1.730   4.957   4.716 -0.1035 -0.4478  0.6167
 8505TIP3    H147006   1.745   5.036   4.767 -4.0980  0.8879  0.0719
 8505TIP3    H247007   1.738   4.886   4.779  0.6589  0.6547  1.8083
 8506TIP3   OH247008   0.514   1.556  10.940  0.2105 -0.3890 -0.2208
 8506TIP3    H147009   0.526   1.465  10.912 -0.0493 -0.3525 -0.4539
 8506TIP3    H247010   0.467   1.598  10.868 -0.0765 -0.1827  0.0807
 8507TIP3   OH247011   2.200   0.057  13.334  0.1806  0.1839  0.0406
 8507TIP3    H147012   2.118   0.107  13.341 -0.0736  0.0803 -1.6438
 8507TIP3    H247013   2.252   0.105  13.270  0.3390 -1.1459 -0.8763
 8508TIP3   OH247014   2.322   4.652  13.014 -0.2177 -0.0489 -0.2960
 8508TIP3    H147015   2.261   4.578  13.007  1.3264 -1.2427 -2.0678
 8508TIP3    H247016   2.375   4.633  13.092 -0.2714 -0.4584 -0.3597
 8509TIP3   OH247017   2.473   1.875   3.863 -0.1359 -0.4868 -0.2660
 8509TIP3    H147018   2.462   1.926   3.944  0.2358 -2.9737  1.4963
 8509TIP3    H247019   2.513   1.936   3.801  1.2213  1.1019  2.0024
 8510TIP3   OH247020   4.111   3.276  11.834 -0.4529 -0.2866  0.3916
 8510TIP3    H147021   4.195   3.264  11.791 -0.7743 -0.7893 -0.1158
 8510TIP3    H247022   4.132   3.279  11.927  0.2921  1.2429  0.1986
 8511TIP3   OH247023   0.737   3.553   2.524 -0.0730  0.2380 -0.7140
 8511TIP3    H147024   0.748   3.516   2.612 -1.0100 -0.3066 -0.8193
 8511TIP3    H247025   0.667   3.501   2.485  1.0979 -0.2661 -2.2084
 8512TIP3   OH247026   4.157   2.615  16.678  0.1816 -0.3279 -0.6222
 8512TIP3    H147027   4.247   2.622  16.709  0.4110  0.7634 -1.4706
 8512TIP3    H247028   4.164   2.605  16.583 -0.4827 -4.4342 -0.4142
 8513TIP3   OH247029   1.546   1.230  11.582 -0.1652  0.2011 -0.1148
 8513TIP3    H147030   1.608   1.262  11.648 -0.4601 -1.9504  1.3253
 8513TIP3    H247031   1.460   1.245  11.622 -0.4423  0.7136 -0.9036
 8514TIP3   OH247032   2.899   2.606  13.993  0.2642  0.3266  0.1125
 8514TIP3    H147033   2.815   2.561  14.003  0.0746  0.8889  1.1762
 8514TIP3    H247034   2.957   2.540  13.956  0.2703 -1.1761  2.5710
 8515TIP3   OH247035   4.144   2.250   0.818  0.3690 -0.0022 -0.3287
 8515TIP3    H147036   4.228   2.203   0.824  0.1553 -0.2554  1.0342
 8515TIP3    H247037   4.083   2.185   0.784 -0.4360 -1.5593  3.5945
 8516TIP3   OH247038   5.473   0.946  13.345  0.7708  0.1266  0.0403
 8516TIP3    H147039   5.387   0.988  13.347 -1.0957 -3.3146 -0.1355
 8516TIP3    H247040   5.526   1.003  13.290 -1.8930  1.5468 -1.2726
 8517TIP3   OH247041   4.713   0.676   3.982  0.4914  0.1842  0.1508
 8517TIP3    H147042   4.783   0.742   3.987  0.6886 -0.0958  2.1991
 8517TIP3    H247043   4.737   0.611   4.049 -1.1520 -0.5142  0.1155
 8518TIP3   OH247044   3.930   4.275  15.061  0.0624 -0.1189  0.4789
 8518TIP3    H147045   3.914   4.287  14.967  0.3329  2.4598  0.6741
 8518TIP3    H247046   4.013   4.229  15.066 -0.6128 -1.5348 -0.5081
 8519TIP3   OH247047   2.029   2.105   3.728 -1.0412  0.0613 -0.1313
 8519TIP3    H147048   2.020   2.052   3.648 -1.3474 -0.0042 -0.0506
 8519TIP3    H247049   2.117   2.143   3.720 -0.5216 -1.0405  0.1658
 8520TIP3   OH247050   3.142   6.828  11.469  0.3099  0.2663 -0.0746
 8520TIP3    H147051   3.139   6.767  11.543  0.6367 -1.4109 -1.3705
 8520TIP3    H247052   3.097   6.782  11.398 -0.0974  1.8713 -0.8999
 8521TIP3   OH247053   5.882   4.372  15.752 -0.5128 -0.0629 -0.1002
 8521TIP3    H147054   5.840   4.333  15.675  1.0561 -0.7755 -0.6399
 8521TIP3    H247055   5.822   4.354  15.824 -0.9499 -1.4290 -0.7648
 8522TIP3   OH247056   3.241   0.427  16.146 -0.4682 -0.2037 -0.0584
 8522TIP3    H147057   3.258   0.396  16.057  3.0230 -1.0468  0.7591
 8522TIP3    H247058   3.218   0.348  16.195  1.3359 -0.4170  0.5126
 8523TIP3   OH247059   6.389   2.143   3.833 -0.4426 -0.3051 -0.0800
 8523TIP3    H147060   6.406   2.182   3.919  0.1532 -0.5598 -0.0774
 8523TIP3    H247061   6.296   2.156   3.819 -0.4562  0.1616  0.3978
 8524TIP3   OH247062   0.514   0.980  14.769  0.6073  0.2444 -0.0331
 8524TIP3    H147063   0.561   1.025  14.699  0.9050  0.1088  0.0759
 8524TIP3    H247064   0.472   0.906  14.726 -1.3881  1.6218 -0.5541
 8525TIP3   OH247065   6.770   3.604   2.811 -0.2704 -0.0874 -0.7662
 8525TIP3    H147066   6.839   3.539   2.822  0.8137  0.9801 -1.0213
 8525TIP3    H247067   6.706   3.583   2.879  1.7718  0.7317  1.5462
 8526TIP3   OH247068   5.174   0.744   2.600 -0.3376 -0.5391  0.5418
 8526TIP3    H147069   5.205   0.726   2.688  3.2866 -1.3918 -0.7189
 8526TIP3    H247070   5.205   0.670   2.548 -1.6577  0.3103 -1.5959
 8527TIP3   OH247071   0.653   0.591   6.438 -0.0442  0.1816  0.3698
 8527TIP3    H147072   0.562   0.591   6.411 -0.1111  1.8586  0.4991
 8527TIP3    H247073   0.668   0.679   6.474  1.6527  0.0028  0.2017
 8528TIP3   OH247074   2.109   6.837   0.237  0.2254  0.4000  0.0996
 8528TIP3    H147075   2.108   6.745   0.261  0.7913  0.1760 -0.6878
 8528TIP3    H247076   2.052   6.880   0.301  0.8946 -0.3081  1.1999
 8529TIP3   OH247077   1.571   0.866  12.267 -0.4006 -0.1836 -0.1338
 8529TIP3    H147078   1.651   0.813  12.257 -1.1253 -1.3490  0.0271
 8529TIP3    H247079   1.513   0.812  12.320 -2.0182 -0.2140 -1.8183
 8530TIP3   OH247080   5.186   5.640   4.081  0.2152  0.2249  0.7254
 8530TIP3    H147081   5.132   5.630   4.160 -2.8075 -0.5349 -1.2918
 8530TIP3    H247082   5.142   5.708   4.030  0.8557 -0.7500 -1.2214
 8531TIP3   OH247083   5.653   6.631   0.950  0.4102 -0.1794 -0.7499
 8531TIP3    H147084   5.661   6.623   1.045  0.9935 -2.7972 -0.9479
 8531TIP3    H247085   5.559   6.621   0.933  0.5771 -2.7110 -0.5763
 8532TIP3   OH247086   1.681   3.671  13.363 -0.3732 -0.0453 -0.3735
 8532TIP3    H147087   1.756   3.621  13.332 -0.8123 -1.5039  0.8107
 8532TIP3    H247088   1.653   3.722  13.287  1.0492 -0.3952 -1.1715
 8533TIP3   OH247089   0.929   2.360  15.158  0.4196 -0.1439 -0.1471
 8533TIP3    H147090   0.915   2.450  15.187 -1.8529 -0.8611  1.2482
 8533TIP3    H247091   0.916   2.307  15.237  2.2028 -1.6950 -0.8247
 8534TIP3   OH247092   4.039   2.966   2.660 -0.0827  0.1593 -0.0752
 8534TIP3    H147093   4.082   2.908   2.723 -2.6871 -0.3967  1.3445
 8534TIP3    H247094   4.001   3.036   2.714 -1.2662  0.3992 -1.1730
 8535TIP3   OH247095   5.007   1.083   2.715  0.8143  0.1601 -0.0647
 8535TIP3    H147096   4.985   1.175   2.696  1.1500  0.4490  0.8993
 8535TIP3    H247097   5.095   1.072   2.681  0.1788 -0.2876 -1.6604
 8536TIP3   OH247098   0.427   2.909  11.270 -0.6508  0.0355  0.1356
 8536TIP3    H147099   0.367   2.926  11.197  2.7158  1.2564 -2.6481
 8536TIP3    H247100   0.486   2.842  11.237  1.0276  0.6485  1.7084
 8537TIP3   OH247101   1.777   4.089  11.692  0.2595 -0.2001  0.4091
 8537TIP3    H147102   1.845   4.032  11.657  0.2404  0.7000 -1.2115
 8537TIP3    H247103   1.780   4.075  11.786  1.9087 -1.0291  0.2730
 8538TIP3   OH247104   3.467   1.152  16.979  0.0367 -0.8525  0.0101
 8538TIP3    H147105   3.558   1.127  16.996  0.2923 -0.1943 -0.3514
 8538TIP3    H247106   3.466   1.178  16.887 -0.2084  0.4205  0.3538
 8539TIP3   OH247107   0.404   5.388   0.878 -0.1551  0.4418 -0.0168
 8539TIP3    H147108   0.474   5.336   0.916  1.1538  1.8058 -0.4695
 8539TIP3    H247109   0.449   5.458   0.831 -1.8209  1.5461 -0.0566
 8540TIP3   OH247110   3.794   6.650   1.183  0.5860  0.1301 -0.0027
 8540TIP3    H147111   3.797   6.620   1.274 -0.7727 -0.2098 -0.0464
 8540TIP3    H247112   3.881   6.685   1.167  0.8623  0.1847  1.4280
 8541TIP3   OH247113   0.770   0.860   4.747  0.1221 -0.1290 -0.1321
 8541TIP3    H147114   0.708   0.847   4.676  0.3986  0.0043 -0.4006
 8541TIP3    H247115   0.740   0.802   4.817 -0.4569  0.1350 -0.1613
 8542TIP3   OH247116   5.025   0.965  11.592  0.0873 -0.5803  0.1834
 8542TIP3    H147117   5.081   1.043  11.594  1.4490 -1.5169 -0.2717
 8542TIP3    H247118   5.066   0.908  11.527 -1.4943 -1.2457 -0.2569
 8543TIP3   OH247119   6.090   4.595  11.516 -0.1187  0.2624  0.3189
 8543TIP3    H147120   6.052   4.507  11.517  1.9958 -0.7212 -0.5614
 8543TIP3    H247121   6.027   4.648  11.466 -0.3186 -1.3233 -1.1996
 8544TIP3   OH247122   5.238   4.003  11.762  0.0173  0.9939 -0.5119
 8544TIP3    H147123   5.221   4.096  11.775  0.5089  1.2429 -1.5818
 8544TIP3    H247124   5.332   3.998  11.745  0.4364  0.0381  1.7098
 8545TIP3   OH247125   5.276   4.311   5.475  0.0049  0.1959  0.2299
 8545TIP3    H147126   5.268   4.361   5.394  0.4660  0.1798  0.1688
 8545TIP3    H247127   5.366   4.328   5.504  0.6391 -1.6358 -0.5012
 8546TIP3   OH247128   3.485   0.089  14.741  0.2293 -0.2119 -0.0398
 8546TIP3    H147129   3.568   0.074  14.787  1.4426  1.9044 -1.3693
 8546TIP3    H247130   3.496   0.175  14.700 -3.3261  1.0084  1.2115
 8547TIP3   OH247131   6.838   1.942   4.968  0.4406  0.5317 -0.5272
 8547TIP3    H147132   6.842   1.902   5.054  0.5084 -0.4054 -0.9479
 8547TIP3    H247133   6.757   1.993   4.968  0.3146  0.3318  0.0017
 8548TIP3   OH247134   4.740   2.743  12.710  0.7002  0.0590  0.5997
 8548TIP3    H147135   4.680   2.811  12.741 -1.3281 -1.7945  1.0277
 8548TIP3    H247136   4.692   2.699  12.639  1.6608 -1.2936  0.7518
 8549TIP3   OH247137   5.132   5.923  13.981 -0.0922  0.3425 -0.0131
 8549TIP3    H147138   5.093   5.926  13.894  1.1547 -0.7261 -0.6413
 8549TIP3    H247139   5.219   5.962  13.970  0.4590 -0.6923  0.5224
 8550TIP3   OH247140   1.404   2.760   2.483 -0.2432  0.5546 -0.2174
 8550TIP3    H147141   1.359   2.682   2.452 -0.6557  0.3606  0.8114
 8550TIP3    H247142   1.381   2.828   2.420  0.3366 -0.2034 -1.2771
 8551TIP3   OH247143   2.728   4.480   0.498 -0.0322 -0.1094 -0.0235
 8551TIP3    H147144   2.763   4.523   0.576  1.4611  1.9353 -1.6973
 8551TIP3    H247145   2.768   4.393   0.498  0.9589  0.3252  0.8337
 8552TIP3   OH247146   3.809   4.122  10.984 -0.2220 -0.1101  0.0421
 8552TIP3    H147147   3.733   4.121  10.925  0.4491 -1.9361 -0.8895
 8552TIP3    H247148   3.883   4.145  10.928 -0.0463  1.7508  0.9635
 8553TIP3   OH247149   2.954   0.164  16.996 -0.8837  0.2026  0.3898
 8553TIP3    H147150   3.013   0.240  16.992  1.6709 -1.6289  0.8458
 8553TIP3    H247151   2.988   0.104  16.930 -2.7798 -0.6088  0.1111
 8554TIP3   OH247152   1.678   3.605  16.280 -0.1133 -0.2254  0.9653
 8554TIP3    H147153   1.585   3.586  16.269 -0.1462  0.4694 -0.1227
 8554TIP3    H247154   1.685   3.699  16.262  0.4248  0.2927  3.4999
 8555TIP3   OH247155   0.570   4.213   2.291  0.3075  0.5329 -0.1984
 8555TIP3    H147156   0.633   4.144   2.270 -0.1601  0.3461 -1.0361
 8555TIP3    H247157   0.521   4.178   2.366  1.2654  0.7354  0.5455
 8556TIP3   OH247158   5.005   0.923  12.409  0.1472 -0.2386 -0.3900
 8556TIP3    H147159   4.971   0.912  12.320  0.9013 -1.3658 -0.5624
 8556TIP3    H247160   5.011   0.834  12.444  0.5325  0.1340  0.5336
 8557TIP3   OH247161   2.518   5.286  14.704  0.1933  0.7758 -0.0769
 8557TIP3    H147162   2.463   5.279  14.782  0.1047  1.1009 -0.1077
 8557TIP3    H247163   2.480   5.222  14.643  1.0877 -0.4416  0.6199
 8558TIP3   OH247164   3.209   2.495  12.767 -0.5672  1.0599 -0.1475
 8558TIP3    H147165   3.153   2.527  12.838 -3.0875  1.1460 -2.0400
 8558TIP3    H247166   3.155   2.430  12.721  0.7218  1.4163 -2.3077
 8559TIP3   OH247167   1.645   4.144  13.464  0.0688  0.8388 -0.3651
 8559TIP3    H147168   1.654   4.180  13.553  0.8965  1.1467 -0.5642
 8559TIP3    H247169   1.591   4.207  13.418 -0.8767  0.3730  0.0841
 8560TIP3   OH247170   6.261   0.878  14.575  0.1665  0.1279  0.1121
 8560TIP3    H147171   6.217   0.817  14.516  1.3927  0.6486 -1.3863
 8560TIP3    H247172   6.245   0.842  14.663 -3.1247  0.2386 -0.3278
 8561TIP3   OH247173   1.132   0.097  16.845  0.1279  0.1596  0.0079
 8561TIP3    H147174   1.078   0.168  16.810 -0.1556  0.0868  0.2969
 8561TIP3    H247175   1.076   0.053  16.909  1.0113  0.9672  1.3860
 8562TIP3   OH247176   1.227   4.304  17.088  0.9991  0.4589 -0.2872
 8562TIP3    H147177   1.213   4.379  17.146 -0.9627 -0.4507  0.5182
 8562TIP3    H247178   1.313   4.271  17.112  1.1705  1.4418  0.5429
 8563TIP3   OH247179   4.268   5.403   0.849  0.4407  0.0372 -0.4175
 8563TIP3    H147180   4.261   5.447   0.934  1.2627 -0.8471  0.1314
 8563TIP3    H247181   4.178   5.399   0.816 -0.4069 -2.2371  1.7937
 8564TIP3   OH247182   1.323   6.691  16.009  0.7087 -0.0784  0.2492
 8564TIP3    H147183   1.303   6.632  16.081  0.7362 -0.5336 -0.1125
 8564TIP3    H247184   1.245   6.746  16.000  0.2773 -0.7321 -0.0657
 8565TIP3   OH247185   0.700   1.055   5.057  0.6235 -0.3325  0.2074
 8565TIP3    H147186   0.784   1.016   5.031 -0.1832 -1.7035 -0.4740
 8565TIP3    H247187   0.693   1.135   5.005  1.8360  0.2101  0.8353
 8566TIP3   OH247188   5.590   3.479   2.548  0.2403 -0.0584 -0.1272
 8566TIP3    H147189   5.507   3.463   2.502  0.4416 -2.2419  0.1591
 8566TIP3    H247190   5.573   3.554   2.604 -0.9455  0.7346 -1.4871
 8567TIP3   OH247191   6.547   3.740   1.229 -0.2290 -0.1583 -0.0434
 8567TIP3    H147192   6.624   3.749   1.285  1.3755 -0.9239 -1.9754
 8567TIP3    H247193   6.517   3.650   1.244  1.3084 -1.0107 -1.5937
 8568TIP3   OH247194   5.247   4.795  15.237 -0.0842 -0.3329 -0.1702
 8568TIP3    H147195   5.178   4.781  15.302  2.9937 -0.4414  3.3820
 8568TIP3    H247196   5.270   4.887  15.246  2.0791 -0.8995  0.9325
 8569TIP3   OH247197   3.354   4.151  15.501  0.1161  0.2339  0.0151
 8569TIP3    H147198   3.278   4.121  15.551 -0.0961 -0.4268 -0.6782
 8569TIP3    H247199   3.423   4.089  15.525 -0.2661 -0.7244 -1.2650
 8570TIP3   OH247200   0.357   4.348  15.749  0.2263 -0.2409  0.0507
 8570TIP3    H147201   0.324   4.365  15.661  2.4228 -0.2589 -0.8470
 8570TIP3    H247202   0.313   4.412  15.805 -0.6898  0.2262 -1.1783
 8571TIP3   OH247203   3.082   4.364  14.526 -0.7585 -0.2707 -0.1889
 8571TIP3    H147204   3.099   4.403  14.612 -0.8274  0.2251 -0.4015
 8571TIP3    H247205   3.030   4.286  14.546 -0.5135 -0.3291  0.2429
 8572TIP3   OH247206   1.453   3.716   3.621 -0.1063 -0.0267  0.3887
 8572TIP3    H147207   1.402   3.785   3.579  0.0561  0.5350  1.0957
 8572TIP3    H247208   1.458   3.647   3.556  2.1326  1.7259 -1.4987
 8573TIP3   OH247209   1.616   0.716  13.275  0.0171 -0.6091  0.6877
 8573TIP3    H147210   1.582   0.651  13.213 -0.6991  0.6221 -0.2774
 8573TIP3    H247211   1.677   0.769  13.223 -0.0859  0.0260  1.1962
 8574TIP3   OH247212   0.824   2.414   2.441 -0.2031  0.6056 -0.2660
 8574TIP3    H147213   0.821   2.358   2.364 -0.8640 -1.5155  1.1950
 8574TIP3    H247214   0.736   2.407   2.479  0.0826  1.6226  0.6313
 8575TIP3   OH247215   1.797   4.754   2.010  0.0713  0.4190 -0.3339
 8575TIP3    H147216   1.728   4.813   2.039 -0.9374 -0.6067 -0.5456
 8575TIP3    H247217   1.824   4.788   1.925  0.4488  1.3339  0.1500
 8576TIP3   OH247218   0.004   3.456  15.873  0.4305 -0.2424  0.0020
 8576TIP3    H147219   0.028   3.369  15.905  2.2170  0.1186 -0.2092
 8576TIP3    H247220   0.076   3.512  15.902 -0.1986  0.9746 -0.7201
 8577TIP3   OH247221   4.579   1.699  12.418 -0.3052  0.6258  0.3009
 8577TIP3    H147222   4.573   1.605  12.436  1.1962  0.1268 -1.5215
 8577TIP3    H247223   4.508   1.717  12.357 -1.5094  1.0382  1.7472
 8578TIP3   OH247224   3.401   0.907  12.947 -0.0077 -0.3098 -0.1286
 8578TIP3    H147225   3.311   0.876  12.940 -0.1067  0.3192 -2.3564
 8578TIP3    H247226   3.403   0.959  13.027 -1.5220 -0.6206  0.1354
 8579TIP3   OH247227   1.669   1.380   1.376  0.4839 -0.6502  0.3153
 8579TIP3    H147228   1.594   1.326   1.401 -1.9139  1.9398 -0.7897
 8579TIP3    H247229   1.685   1.437   1.451  0.7486 -0.5614  0.1934
 8580TIP3   OH247230   5.352   1.280  15.415 -0.0866 -0.4671  0.5987
 8580TIP3    H147231   5.391   1.196  15.391 -0.6497 -0.3859 -0.6700
 8580TIP3    H247232   5.301   1.262  15.494 -1.5256 -1.7224 -0.5556
 8581TIP3   OH247233   3.090   3.727  16.930 -0.1328 -0.3934 -0.4231
 8581TIP3    H147234   3.058   3.805  16.886  0.5648 -0.4448 -1.0331
 8581TIP3    H247235   3.113   3.757  17.018  0.8639  0.2720 -0.8957
 8582TIP3   OH247236   3.203   4.334  12.026 -0.2381  0.2935 -0.6013
 8582TIP3    H147237   3.192   4.239  12.019 -0.7173  0.2787  0.3140
 8582TIP3    H247238   3.212   4.363  11.935  1.6734 -0.8174 -0.8201
 8583TIP3   OH247239   2.815   4.638   5.125  0.0912  0.1479 -0.0561
 8583TIP3    H147240   2.847   4.724   5.096  2.2246 -0.6790 -0.3420
 8583TIP3    H247241   2.882   4.577   5.096 -0.6151 -1.4564  1.5234
 8584TIP3   OH247242   6.098   3.108   3.577  0.0501  0.0406 -0.3041
 8584TIP3    H147243   6.159   3.035   3.576 -1.7049 -1.5072  0.1905
 8584TIP3    H247244   6.015   3.071   3.609 -0.8568  2.2901  0.2185
 8585TIP3   OH247245   2.915   5.002  12.337  0.3553  0.3559 -0.8841
 8585TIP3    H147246   2.954   4.956  12.263 -2.3771 -0.6640 -1.8189
 8585TIP3    H247247   2.880   4.931  12.393  0.7892  1.1655  0.4584
 8586TIP3   OH247248   0.847   1.722  12.235 -0.1901 -0.7525  0.0177
 8586TIP3    H147249   0.756   1.733  12.205 -0.8122 -1.6222  1.4803
 8586TIP3    H247250   0.839   1.680  12.321  1.5325  1.0488  1.1272
 8587TIP3   OH247251   4.618   3.548  15.490  0.1111 -0.5704  0.2033
 8587TIP3    H147252   4.577   3.480  15.437  2.0546 -0.6010 -1.3626
 8587TIP3    H247253   4.545   3.586  15.541 -1.6639 -1.2326 -1.7131
 8588TIP3   OH247254   4.350   4.583  16.243  1.0210  0.0750  0.6641
 8588TIP3    H147255   4.433   4.596  16.197  2.2179  1.1337  2.9335
 8588TIP3    H247256   4.329   4.491  16.228  3.1102 -0.4751  0.7727
 8589TIP3   OH247257   0.539   5.391   0.414  0.1270  0.6863  0.3312
 8589TIP3    H147258   0.595   5.469   0.416  0.1056  0.6932  2.1527
 8589TIP3    H247259   0.505   5.383   0.503 -1.2687 -0.4175 -0.2667
 8590TIP3   OH247260   1.642   4.644  14.533  0.7013 -0.7818 -0.2036
 8590TIP3    H147261   1.694   4.575  14.573  1.4082  1.0541  2.3229
 8590TIP3    H247262   1.704   4.692  14.477  0.9085 -0.6144  0.1622
 8591TIP3   OH247263   3.671   3.398  13.103 -0.0134  0.2346 -0.0586
 8591TIP3    H147264   3.644   3.488  13.090  0.2767  0.8323  2.7452
 8591TIP3    H247265   3.762   3.404  13.132 -0.0080 -0.9416  0.2535
 8592TIP3   OH247266   6.669   0.668   4.667  0.1805 -0.0184  0.4335
 8592TIP3    H147267   6.764   0.673   4.681  0.0428  2.5029  0.8346
 8592TIP3    H247268   6.658   0.681   4.573  0.2167 -0.4428  0.3666
 8593TIP3   OH247269   0.834   2.416   4.782  0.1248  0.0852  0.2131
 8593TIP3    H147270   0.863   2.325   4.791 -1.7954 -0.6772 -0.7842
 8593TIP3    H247271   0.885   2.450   4.708  0.3143 -0.4099  0.1105
 8594TIP3   OH247272   2.518   5.199   5.166 -0.2575 -0.4558 -0.1425
 8594TIP3    H147273   2.544   5.191   5.258 -2.5021  1.4017  0.7562
 8594TIP3    H247274   2.590   5.248   5.125  0.7442 -1.2590  0.6121
 8595TIP3   OH247275   4.001   2.633  12.748  0.2827 -0.5431  0.1192
 8595TIP3    H147276   3.942   2.559  12.763  1.1735 -0.8067  2.7958
 8595TIP3    H247277   3.997   2.683  12.829  2.9699 -0.0377  0.0080
 8596TIP3   OH247278   6.359   1.791  13.285 -0.1459 -0.3754 -0.4268
 8596TIP3    H147279   6.332   1.817  13.373 -1.1749  0.7294 -1.0344
 8596TIP3    H247280   6.374   1.697  13.291  0.5928 -0.1927  1.1109
 8597TIP3   OH247281   3.771   3.519   2.158  0.0751 -0.1463  0.1024
 8597TIP3    H147282   3.855   3.505   2.116 -0.2382  0.0962 -0.6171
 8597TIP3    H247283   3.715   3.556   2.090 -0.2825  0.7891  0.8704
 8598TIP3   OH247284   1.134   3.742   5.544 -0.2287 -0.6724 -0.3961
 8598TIP3    H147285   1.108   3.652   5.525 -0.6562 -0.5136 -0.5811
 8598TIP3    H247286   1.229   3.743   5.531  0.2006 -1.7362  2.1278
 8599TIP3   OH247287   0.524   4.571  15.164  0.7131  0.0837 -0.4220
 8599TIP3    H147288   0.463   4.599  15.232  1.8822  0.0938  0.6793
 8599TIP3    H247289   0.496   4.482  15.142  0.3207  0.0723  0.0930
 8600TIP3   OH247290   3.174   2.523   4.037  0.1494 -0.3912  0.5327
 8600TIP3    H147291   3.218   2.519   4.123  1.2105  0.1455  0.0360
 8600TIP3    H247292   3.229   2.582   3.985 -1.2393  0.3739 -0.0966
 8601TIP3   OH247293   2.979   5.209   0.631 -0.2186 -0.1204 -0.0312
 8601TIP3    H147294   2.909   5.199   0.566 -0.5984  0.6258  0.2401
 8601TIP3    H247295   2.934   5.240   0.710  0.4362  0.5668  0.0904
 8602TIP3   OH247296   5.426   1.201  12.250  0.2044 -0.2874  0.0797
 8602TIP3    H147297   5.404   1.145  12.176 -4.4587 -0.2812  1.1376
 8602TIP3    H247298   5.470   1.276  12.211 -0.0040 -1.3171 -2.3388
 8603TIP3   OH247299   6.136   5.225  17.072 -0.4863  0.0950  0.5992
 8603TIP3    H147300   6.161   5.284  17.001  1.0866 -1.3900 -0.1625
 8603TIP3    H247301   6.055   5.184  17.041  1.0921 -1.8528 -1.2704
 8604TIP3   OH247302   1.654   5.883  12.372 -0.1560  0.0186  0.0155
 8604TIP3    H147303   1.649   5.974  12.345  1.2652  0.0665 -0.1655
 8604TIP3    H247304   1.747   5.860  12.364 -0.7713 -2.1864 -2.3774
 8605TIP3   OH247305   5.849   1.129  10.188  0.1412 -0.2487  0.6429
 8605TIP3    H147306   5.856   1.170  10.275 -2.5146  0.9221  0.3943
 8605TIP3    H247307   5.850   1.203  10.127 -1.4490 -0.7733 -0.0576
 8606TIP3   OH247308   4.619   1.970   3.219  0.0879 -0.0786  0.0590
 8606TIP3    H147309   4.559   1.953   3.147  0.6039 -0.1271 -0.3707
 8606TIP3    H247310   4.638   2.063   3.213  0.8015 -0.2386 -0.4197
 8607TIP3   OH247311   3.734   3.272  11.803  0.0458  0.4816  0.3092
 8607TIP3    H147312   3.744   3.322  11.885 -1.5401  0.4574  0.5633
 8607TIP3    H247313   3.782   3.323  11.738  0.8069  0.8368  1.1264
 8608TIP3   OH247314   2.049   3.801  13.889  0.7017 -0.7881  0.2433
 8608TIP3    H147315   2.023   3.754  13.809  1.8754  0.5150 -0.9683
 8608TIP3    H247316   1.985   3.774  13.955 -0.6192 -1.5090 -1.2668
 8609TIP3   OH247317   4.275   2.660  12.623  0.1169 -0.9190  0.1906
 8609TIP3    H147318   4.196   2.654  12.676 -0.4053  2.5538  0.0754
 8609TIP3    H247319   4.248   2.707  12.544  1.7377 -2.2867 -1.2603
 8610TIP3   OH247320   0.933   3.102  11.122  0.0966 -0.3797 -0.0647
 8610TIP3    H147321   0.984   3.145  11.053  1.7394  0.5229  1.6127
 8610TIP3    H247322   0.972   3.015  11.130  2.7959  0.8926  2.4212
 8611TIP3   OH247323   1.217   1.267  10.985  0.6055  0.5182 -0.2285
 8611TIP3    H147324   1.158   1.199  11.016  0.1346  2.0009  2.4750
 8611TIP3    H247325   1.182   1.293  10.899 -0.8184 -0.7301 -0.0624
 8612TIP3   OH247326   0.552   2.793   3.752  0.3843  0.2610  0.3956
 8612TIP3    H147327   0.467   2.752   3.765 -0.3366  1.7330  0.5750
 8612TIP3    H247328   0.601   2.773   3.832 -0.1899  0.3209  0.7635
 8613TIP3   OH247329   1.311   5.362   1.704 -0.1746 -0.7263  0.0579
 8613TIP3    H147330   1.241   5.341   1.642  2.6357 -1.2435 -3.2714
 8613TIP3    H247331   1.362   5.430   1.661  2.7302 -2.0592  1.1339
 8614TIP3   OH247332   4.836   6.569   2.253 -0.1976  0.3468 -0.0192
 8614TIP3    H147333   4.857   6.497   2.194  2.3721  0.5616  0.5409
 8614TIP3    H247334   4.855   6.648   2.203  0.5189  0.5573  0.5791
 8615TIP3   OH247335   6.703   1.483  16.917 -0.2247 -0.0943  0.7757
 8615TIP3    H147336   6.624   1.513  16.872  0.9176 -0.0396 -1.2912
 8615TIP3    H247337   6.729   1.558  16.972 -0.6942  0.4844  0.2170
 8616TIP3   OH247338   4.744   1.102   1.353  0.2604  0.0388  0.6654
 8616TIP3    H147339   4.836   1.125   1.362 -0.0606  1.2746  1.0007
 8616TIP3    H247340   4.744   1.014   1.314  1.5596  0.8122 -1.2232
 8617TIP3   OH247341   4.993   6.087  15.940 -0.6143  0.3361  0.2231
 8617TIP3    H147342   4.978   6.002  15.897 -2.0222  1.1465 -0.9917
 8617TIP3    H247343   4.905   6.118  15.961 -0.0274  0.3830  3.0280
 8618TIP3   OH247344   4.321   5.350   2.464  0.1814 -0.2681  0.1859
 8618TIP3    H147345   4.250   5.404   2.429  0.9320  1.9381  1.8223
 8618TIP3    H247346   4.401   5.397   2.438  0.8923 -0.8748  1.2136
 8619TIP3   OH247347   3.509   3.170  15.320  0.4568  0.4019  0.1054
 8619TIP3    H147348   3.502   3.203  15.231  2.1925 -1.0083 -0.6101
 8619TIP3    H247349   3.550   3.084  15.311  1.6355  0.6443  2.3075
 8620TIP3   OH247350   2.666   3.243   4.286  0.5193  0.1101  0.4770
 8620TIP3    H147351   2.710   3.291   4.217 -0.1012  1.3917  0.9335
 8620TIP3    H247352   2.573   3.262   4.273 -0.0017 -2.5361 -0.4809
 8621TIP3   OH247353   4.123   3.173  13.485 -0.0825  0.4652 -0.0530
 8621TIP3    H147354   4.152   3.163  13.394  1.2993  0.9571  0.3006
 8621TIP3    H247355   4.129   3.084  13.521 -2.1955 -0.0382 -0.8438
 8622TIP3   OH247356   3.275   2.078  11.084  0.2956  0.2252 -0.4671
 8622TIP3    H147357   3.204   2.130  11.047  0.8114  1.7567  0.5784
 8622TIP3    H247358   3.355   2.113  11.044  0.6042 -0.2352 -0.2709
 8623TIP3   OH247359   3.805   3.741   5.000  0.5136 -0.3414  0.2537
 8623TIP3    H147360   3.755   3.660   4.995  1.8420 -1.2444  1.0616
 8623TIP3    H247361   3.892   3.715   5.033  0.5276  1.5696  2.0013
 8624TIP3   OH247362   4.534   5.366  13.233 -0.7949 -0.2414  0.0222
 8624TIP3    H147363   4.525   5.300  13.301 -1.3390 -1.2273 -0.9702
 8624TIP3    H247364   4.626   5.360  13.207 -1.0155 -1.2141 -0.6151
 8625TIP3   OH247365   2.101   1.764  13.642 -0.0937 -0.4943 -0.5223
 8625TIP3    H147366   2.032   1.826  13.666  0.3136  0.5232 -1.7903
 8625TIP3    H247367   2.078   1.683  13.687 -3.0288 -0.7054 -2.1330
 8626TIP3   OH247368   0.449   0.610  16.985  0.4651  0.6179 -0.3561
 8626TIP3    H147369   0.509   0.544  17.021 -1.3404 -0.4253  0.8885
 8626TIP3    H247370   0.411   0.652  17.062 -1.4772  0.2249 -1.0522
 8627TIP3   OH247371   1.283   1.117   4.519  0.4640 -0.0998 -0.1835
 8627TIP3    H147372   1.279   1.199   4.469 -0.2427  0.1805  0.3122
 8627TIP3    H247373   1.313   1.143   4.606 -1.5664 -0.0545  0.5560
 8628TIP3   OH247374   1.404   5.516   3.142  0.3302 -0.1042 -0.6997
 8628TIP3    H147375   1.361   5.436   3.174  1.8131 -0.5328  0.3278
 8628TIP3    H247376   1.367   5.586   3.196 -0.0035 -0.2877 -0.6886
 8629TIP3   OH247377   6.350   1.002  12.653 -0.3680 -0.3462 -0.1189
 8629TIP3    H147378   6.321   1.092  12.664 -0.5348 -0.5087  0.8333
 8629TIP3    H247379   6.426   1.008  12.594  0.4556  0.5549  0.9908
 8630TIP3   OH247380   4.895   5.175  15.813 -0.3757  0.2924  0.2593
 8630TIP3    H147381   4.879   5.099  15.868 -1.8622 -0.2912 -0.9122
 8630TIP3    H247382   4.976   5.153  15.765 -0.8571 -0.6103 -0.1523
 8631TIP3   OH247383   6.323   5.840  11.768 -0.4672  0.0404  0.2512
 8631TIP3    H147384   6.311   5.750  11.798  0.3060 -0.6207 -1.3306
 8631TIP3    H247385   6.381   5.833  11.692 -1.8883  1.6680 -1.0608
 8632TIP3   OH247386   2.920   2.785  12.404  0.4059  0.2553 -0.3110
 8632TIP3    H147387   2.878   2.710  12.447  1.4371 -0.5286 -0.6372
 8632TIP3    H247388   2.943   2.753  12.317 -0.4466  1.4143 -0.9927
 8633TIP3   OH247389   5.350   4.945  12.983 -0.2271 -0.2321 -0.8694
 8633TIP3    H147390   5.320   4.922  12.895 -2.5009  1.4571 -0.6206
 8633TIP3    H247391   5.282   4.911  13.041 -0.1715  1.0236 -0.0227
 8634TIP3   OH247392   1.722   0.687   4.285  0.3496  0.2867 -0.0324
 8634TIP3    H147393   1.770   0.605   4.272 -1.6833 -1.1361  0.7913
 8634TIP3    H247394   1.705   0.719   4.196  0.0671 -0.8951 -0.4244
 8635TIP3   OH247395   4.114   0.432   0.521 -0.4657 -0.2056  0.5558
 8635TIP3    H147396   4.172   0.359   0.539 -0.0818  0.3307  1.5373
 8635TIP3    H247397   4.115   0.485   0.601 -0.5972  0.9639 -0.1878
 8636TIP3   OH247398   3.430   6.239  16.978 -0.2487 -0.3306 -0.1474
 8636TIP3    H147399   3.477   6.321  16.964 -0.9738  0.3588  1.2284
 8636TIP3    H247400   3.479   6.174  16.927 -0.7626  1.2718 -2.8748
 8637TIP3   OH247401   5.339   6.504   4.568 -0.6570  0.9767  0.3122
 8637TIP3    H147402   5.327   6.538   4.657  0.1931 -0.9738  1.2222
 8637TIP3    H247403   5.433   6.487   4.562 -0.9047 -0.1813 -0.4788
 8638TIP3   OH247404   1.433   3.264  15.826 -0.5475  0.1573  0.6443
 8638TIP3    H147405   1.479   3.251  15.909 -1.9392  1.4166  1.6612
 8638TIP3    H247406   1.378   3.187  15.816  3.9860 -3.2560 -2.3492
 8639TIP3   OH247407   4.899   3.542  16.649  0.1697 -0.0340 -0.1234
 8639TIP3    H147408   4.925   3.634  16.646  0.3207 -0.0778 -0.1429
 8639TIP3    H247409   4.944   3.502  16.575 -0.2034 -0.0439 -0.3498
 8640TIP3   OH247410   6.099   0.220   2.420  0.2475  0.1025 -0.1942
 8640TIP3    H147411   6.142   0.275   2.355  0.0024 -0.4129 -0.8095
 8640TIP3    H247412   6.165   0.153   2.442  0.1376 -0.0571 -0.3427
 8641TIP3   OH247413   1.684   5.461   5.340  0.3506  0.1371 -0.8091
 8641TIP3    H147414   1.674   5.536   5.398 -0.9308  1.8921 -3.0935
 8641TIP3    H247415   1.774   5.465   5.310  0.6918 -0.1137  0.1438
 8642TIP3   OH247416   1.525   5.875  10.852 -0.2548 -0.0089  0.3485
 8642TIP3    H147417   1.439   5.861  10.812  0.3858 -2.5689 -0.3156
 8642TIP3    H247418   1.520   5.828  10.936  0.8911 -1.3269 -0.2987
 8643TIP3   OH247419   0.496   0.520   5.089  0.4424 -0.6252  0.1235
 8643TIP3    H147420   0.491   0.616   5.079  1.6223 -0.7193 -1.7562
 8643TIP3    H247421   0.587   0.503   5.114 -0.1736 -1.1937  2.2647
 8644TIP3   OH247422   2.048   6.400  14.004  0.2711  0.0436 -0.3167
 8644TIP3    H147423   2.042   6.376  13.911 -0.4992 -1.1050  0.0140
 8644TIP3    H247424   1.975   6.462  14.017 -2.6711 -3.2434  0.4854
 8645TIP3   OH247425   0.248   6.741  16.553  0.5382  0.0797  0.2335
 8645TIP3    H147426   0.159   6.722  16.523  0.6418 -1.1625  0.6682
 8645TIP3    H247427   0.300   6.666  16.525  1.1957  0.2031  1.0734
 8646TIP3   OH247428   4.954   1.106  12.944 -0.1946 -0.3999 -0.7494
 8646TIP3    H147429   4.890   1.134  13.010  1.8525  0.2421  1.0799
 8646TIP3    H247430   4.905   1.045  12.888 -2.3990  0.0961  0.5113
 8647TIP3   OH247431   2.922   4.146   4.514 -0.2021 -1.0323 -0.3164
 8647TIP3    H147432   2.964   4.102   4.440  1.5291 -1.2320  0.7422
 8647TIP3    H247433   2.868   4.079   4.554 -1.0159 -0.9720 -1.2634
 8648TIP3   OH247434   2.867   3.166   1.993  0.0468 -0.0939  0.3456
 8648TIP3    H147435   2.865   3.084   2.042 -0.9970  1.2057  2.6212
 8648TIP3    H247436   2.954   3.202   2.010  0.0682 -0.1504  0.3550
 8649TIP3   OH247437   4.668   2.114   0.029 -0.1306 -0.1351 -0.0923
 8649TIP3    H147438   4.720   2.036   0.006 -0.3490 -0.2222 -0.2982
 8649TIP3    H247439   4.604   2.083   0.092 -0.2742 -0.1422 -0.2406
 8650TIP3   OH247440   0.928   0.515   2.426 -0.2298 -0.1788  0.6781
 8650TIP3    H147441   0.892   0.448   2.368  1.7892 -1.6330  0.9836
 8650TIP3    H247442   0.901   0.487   2.514 -1.6104  0.9299  0.6449
 8651TIP3   OH247443   5.236   0.631  11.306 -0.2405 -0.8670  0.1779
 8651TIP3    H147444   5.141   0.621  11.301 -0.6357  1.2351  2.0371
 8651TIP3    H247445   5.249   0.703  11.367  2.5825 -1.3288  0.2300
 8652TIP3   OH247446   1.318   4.744  12.450  0.0334  0.2493 -0.2214
 8652TIP3    H147447   1.395   4.781  12.407  0.2427  1.4768  1.1120
 8652TIP3    H247448   1.250   4.744  12.382  1.3650 -1.6048 -1.6456
 8653TIP3   OH247449   0.872   3.189   0.432  0.5492  0.6574 -0.9773
 8653TIP3    H147450   0.781   3.210   0.413 -0.4833 -1.3148  1.1738
 8653TIP3    H247451   0.892   3.114   0.377 -0.1561 -0.7190  0.5547
 8654TIP3   OH247452   6.061   5.247   4.936  0.1829  0.6665 -0.3639
 8654TIP3    H147453   6.123   5.270   4.866 -0.1020  0.4964 -0.6713
 8654TIP3    H247454   6.011   5.327   4.951 -0.5721  0.3617 -1.1937
 8655TIP3   OH247455   2.444   1.260   6.160 -0.1150  0.1662 -0.7700
 8655TIP3    H147456   2.497   1.267   6.240 -0.3501  0.1660 -0.6137
 8655TIP3    H247457   2.354   1.271   6.190 -0.1538  0.9542 -1.1371
 8656TIP3   OH247458   6.643   1.735  13.064 -0.7111  0.4155 -0.0155
 8656TIP3    H147459   6.685   1.818  13.087 -0.2346 -0.1967  1.4680
 8656TIP3    H247460   6.595   1.753  12.984 -0.7456  2.1712  0.3677
 8657TIP3   OH247461   4.450   5.216   0.540  0.3475 -0.2814  0.0501
 8657TIP3    H147462   4.451   5.258   0.627  1.7884 -0.4444  0.1371
 8657TIP3    H247463   4.542   5.208   0.517 -0.0248  1.0575 -2.1458
 8658TIP3   OH247464   0.241   2.842  15.344 -0.2103  0.4734  0.0482
 8658TIP3    H147465   0.314   2.803  15.295 -0.9459 -1.9304  0.7100
 8658TIP3    H247466   0.165   2.829  15.287 -0.5673  0.3978  0.5327
 8659TIP3   OH247467   0.371   5.295  16.676  0.5396 -0.4219 -0.0189
 8659TIP3    H147468   0.463   5.270  16.670  0.2300 -1.6786  0.1491
 8659TIP3    H247469   0.369   5.368  16.738  1.2578 -1.3582  1.1357
 8660TIP3   OH247470   0.104   5.776  12.552  0.6331 -0.1944 -0.8047
 8660TIP3    H147471   0.101   5.745  12.461 -1.8321  0.2146 -0.9182
 8660TIP3    H247472   0.044   5.850  12.554  1.7717  0.7368  0.8612
 8661TIP3   OH247473   5.285   3.708   0.665 -0.0022 -0.2472  0.9552
 8661TIP3    H147474   5.346   3.711   0.739  0.5542  1.0301  0.4740
 8661TIP3    H247475   5.273   3.799   0.640 -0.5126 -0.6296 -0.2684
 8662TIP3   OH247476   6.131   1.663   5.618 -0.0317 -0.3879  0.4756
 8662TIP3    H147477   6.097   1.752   5.624  1.4709  0.2032  0.5658
 8662TIP3    H247478   6.127   1.631   5.709 -1.2592 -0.7123  0.3334
 8663TIP3   OH247479   6.644   0.197  14.054 -0.2392 -0.1459 -0.6951
 8663TIP3    H147480   6.598   0.268  14.008  0.9192  0.8844 -0.3176
 8663TIP3    H247481   6.700   0.158  13.987  2.0651  1.8805 -0.1077
 8664TIP3   OH247482   3.080   1.810  15.826 -0.2008  0.2292  0.0898
 8664TIP3    H147483   3.008   1.856  15.782 -0.1491 -0.1842 -0.4497
 8664TIP3    H247484   3.147   1.877  15.840  0.6174  0.0019 -2.3017
 8665TIP3   OH247485   5.824   5.154  14.781 -0.9772 -0.6500 -0.2475
 8665TIP3    H147486   5.906   5.205  14.784 -0.6990 -1.1099  2.2507
 8665TIP3    H247487   5.850   5.069  14.745 -0.3942 -0.7083  0.2981
 8666TIP3   OH247488   4.524   3.475  14.727  0.0495  0.1192  0.2225
 8666TIP3    H147489   4.561   3.389  14.708 -1.3817 -0.1939 -1.3771
 8666TIP3    H247490   4.596   3.536  14.710  0.3840 -0.5958 -1.0790
 8667TIP3   OH247491   0.728   3.528   1.737 -0.7870  0.2814  0.1245
 8667TIP3    H147492   0.651   3.583   1.725  0.8233  2.6375  0.0815
 8667TIP3    H247493   0.760   3.510   1.648 -0.8666 -0.0919  0.1683
 8668TIP3   OH247494   0.689   1.282   4.889 -1.1001 -0.3369  0.3524
 8668TIP3    H147495   0.598   1.304   4.866 -0.9710  0.4739  0.5857
 8668TIP3    H247496   0.734   1.366   4.890 -0.4976 -0.6626  0.9366
 8669TIP3   OH247497   6.741   3.937   4.330  0.2928  0.3492  0.7294
 8669TIP3    H147498   6.791   4.014   4.304 -1.4905  0.6117 -2.3727
 8669TIP3    H247499   6.803   3.864   4.321  1.0311  1.0127  0.3107
 8670TIP3   OH247500   6.756   1.689  11.635  0.3895  0.2805 -1.0824
 8670TIP3    H147501   6.825   1.746  11.669 -1.2957  0.5963  2.2460
 8670TIP3    H247502   6.690   1.749  11.602  0.7792  0.0355 -2.3596
 8671TIP3   OH247503   6.583   6.850   5.995  0.0091 -0.3326  0.4531
 8671TIP3    H147504   6.588   6.943   6.017 -3.5142  0.4897 -1.3906
 8671TIP3    H247505   6.617   6.845   5.905 -0.3967 -0.6935  0.3165
 8672TIP3   OH247506   1.094   2.266  14.374 -0.1110  0.3728 -0.5083
 8672TIP3    H147507   1.133   2.216  14.302 -0.4585  0.5888 -0.8478
 8672TIP3    H247508   1.169   2.304  14.420  0.0827  0.9914 -1.3090
 8673TIP3   OH247509   3.494   2.445   3.203  0.4820  0.1041 -0.1056
 8673TIP3    H147510   3.472   2.370   3.149  1.9322 -0.4260 -0.0160
 8673TIP3    H247511   3.410   2.481   3.231 -0.2399 -1.6756  0.1126
 8674TIP3   OH247512   3.953   3.863  10.960 -0.6171 -0.3233  0.2468
 8674TIP3    H147513   3.867   3.899  10.980 -1.4131 -2.8982  1.9760
 8674TIP3    H247514   4.001   3.864  11.043  1.2556  1.4588 -0.7600
 8675TIP3   OH247515   1.427   3.530  16.940  0.1045 -0.0136  0.1006
 8675TIP3    H147516   1.376   3.561  17.015 -2.5341 -0.1699 -1.4998
 8675TIP3    H247517   1.494   3.598  16.926 -0.4250  0.8472  1.5519
 8676TIP3   OH247518   6.523   3.843   4.478 -0.2044 -0.0331  0.5387
 8676TIP3    H147519   6.560   3.764   4.516  0.4772  0.1213  0.2152
 8676TIP3    H247520   6.587   3.870   4.412  0.7480  2.1021  2.2277
 8677TIP3   OH247521   3.495   0.571   4.326 -0.0640  0.6278  0.2708
 8677TIP3    H147522   3.431   0.601   4.390  0.4285 -0.4724  1.3081
 8677TIP3    H247523   3.537   0.495   4.366 -0.8006 -1.0713 -1.9574
 8678TIP3   OH247524   2.594   6.683   2.348  0.2654  0.2064  0.0507
 8678TIP3    H147525   2.579   6.735   2.269 -0.8276  1.1310  0.8115
 8678TIP3    H247526   2.661   6.732   2.396  2.0803 -1.1634 -0.9501
 8679TIP3   OH247527   6.155   6.840  16.192  0.0477  0.3832  0.0476
 8679TIP3    H147528   6.250   6.829  16.198 -0.0342  0.1826  1.1531
 8679TIP3    H247529   6.136   6.918  16.244 -0.4951 -0.1607  0.6864
 8680TIP3   OH247530   5.697   5.617   2.629  0.1467 -0.4595 -0.4416
 8680TIP3    H147531   5.674   5.582   2.543 -0.6946  0.7087 -0.7163
 8680TIP3    H247532   5.670   5.549   2.691 -2.3728  0.0513 -0.8822
 8681TIP3   OH247533   0.369   0.936   0.110 -0.5189  0.2574 -0.5018
 8681TIP3    H147534   0.283   0.895   0.102 -0.2467 -0.4389 -0.0118
 8681TIP3    H247535   0.361   0.995   0.185 -0.1230 -1.0436  0.6045
 8682TIP3   OH247536   5.144   0.187  13.245  0.4634  0.4209 -0.0346
 8682TIP3    H147537   5.119   0.210  13.155 -0.6211 -1.9006 -0.3898
 8682TIP3    H247538   5.093   0.247  13.299  0.2030  1.0524 -0.9509
 8683TIP3   OH247539   3.239   3.190   2.370 -0.2499  0.0741 -0.2902
 8683TIP3    H147540   3.184   3.155   2.441 -0.0936  0.1659 -0.1218
 8683TIP3    H247541   3.298   3.252   2.414 -0.4372  0.4490 -0.5688
 8684TIP3   OH247542   6.025   5.256   0.350  0.6359 -0.5199  0.2812
 8684TIP3    H147543   5.968   5.326   0.318  0.8702 -0.1955  0.5676
 8684TIP3    H247544   6.002   5.246   0.442  0.2789 -1.1438  0.1300
 8685TIP3   OH247545   3.112   3.878  10.593  0.5605 -0.4432  0.3901
 8685TIP3    H147546   3.198   3.844  10.568 -0.0397 -2.6826  1.0764
 8685TIP3    H247547   3.129   3.966  10.625  2.5798 -0.7728  0.3315
 8686TIP3   OH247548   2.943   2.999  14.326  0.0284 -0.1017 -0.1807
 8686TIP3    H147549   2.958   2.915  14.285  0.0903  0.5194 -1.4584
 8686TIP3    H247550   2.850   2.998  14.350 -0.5121  0.2699 -2.1209
 8687TIP3   OH247551   6.132   2.128   4.935 -0.0686  0.1441  0.2467
 8687TIP3    H147552   6.093   2.088   5.013  0.1841  0.4486  0.5350
 8687TIP3    H247553   6.184   2.059   4.896 -0.1188  0.0167  0.4028
 8688TIP3   OH247554   2.587   5.523   0.328  0.0348 -0.6339  0.5969
 8688TIP3    H147555   2.679   5.527   0.304 -0.2636 -1.2767 -0.7917
 8688TIP3    H247556   2.547   5.467   0.260 -1.3174 -0.5846  1.3144
 8689TIP3   OH247557   1.328   2.945   2.267  0.0167 -0.0704 -0.0436
 8689TIP3    H147558   1.342   3.034   2.235  1.4058  0.1744  1.1317
 8689TIP3    H247559   1.233   2.934   2.266 -0.1496  1.2382 -0.7011
 8690TIP3   OH247560   2.907   4.121   0.094  0.1255  0.1050  0.1609
 8690TIP3    H147561   2.907   4.205   0.046 -0.2238  0.2947  0.4885
 8690TIP3    H247562   2.856   4.139   0.173 -0.3309 -0.5451  0.0184
 8691TIP3   OH247563   2.510   4.214  15.071 -0.2281  0.2475  0.1677
 8691TIP3    H147564   2.433   4.159  15.061 -1.1238  1.6076 -0.8448
 8691TIP3    H247565   2.579   4.170  15.022 -1.0033  0.1518 -0.8680
 8692TIP3   OH247566   2.272   1.085  14.707 -0.1496  0.3051 -0.1407
 8692TIP3    H147567   2.263   1.043  14.621 -0.9447 -0.5593  0.3394
 8692TIP3    H247568   2.238   1.174  14.694 -1.3457 -0.1750 -0.4782
 8693TIP3   OH247569   5.314   5.823  16.986 -0.4454  0.5820 -0.2087
 8693TIP3    H147570   5.301   5.860  17.073 -1.3311 -0.3721  0.0957
 8693TIP3    H247571   5.225   5.804  16.955 -0.1416  0.9113 -1.3242
 8694TIP3   OH247572   6.593   0.457  16.648  0.1854  0.7757  0.3246
 8694TIP3    H147573   6.604   0.420  16.735 -1.4069  0.5710  0.4721
 8694TIP3    H247574   6.633   0.544  16.654  1.9113 -0.0102  0.6328
 8695TIP3   OH247575   4.917   6.620  13.362  0.0611  0.0207 -0.3088
 8695TIP3    H147576   4.841   6.608  13.419 -0.3988  0.8006 -0.7552
 8695TIP3    H247577   4.970   6.541  13.377 -0.6915 -0.4026  0.2086
 8696TIP3   OH247578   5.950   4.258   1.639 -0.0063 -0.5217 -0.0284
 8696TIP3    H147579   5.979   4.230   1.726  1.0363  0.2903 -0.0860
 8696TIP3    H247580   5.880   4.321   1.655  0.9554  0.4990  0.2915
 8697TIP3   OH247581   6.460   0.190   3.847  0.1510 -0.8592  0.3209
 8697TIP3    H147582   6.506   0.265   3.886 -1.4581  1.6052 -2.2162
 8697TIP3    H247583   6.517   0.161   3.775 -0.5494 -0.1757 -0.5187
 8698TIP3   OH247584   5.458   0.186  12.253 -0.1030 -0.3355  0.1043
 8698TIP3    H147585   5.390   0.152  12.194 -1.4880  1.6213  0.4714
 8698TIP3    H247586   5.426   0.273  12.279  1.1734 -0.5159  2.5640
 8699TIP3   OH247587   0.756   4.445   4.131 -0.0318  0.2605 -0.1577
 8699TIP3    H147588   0.824   4.397   4.085 -0.0502  1.0465 -1.0438
 8699TIP3    H247589   0.739   4.394   4.210 -0.5440 -1.5614 -1.3814
 8700TIP3   OH247590   2.849   5.654  12.768  0.3752 -0.0481 -0.0112
 8700TIP3    H147591   2.784   5.600  12.723 -0.0074  1.3100 -1.1429
 8700TIP3    H247592   2.801   5.697  12.838  0.5301 -0.6293  0.4607
 8701TIP3   OH247593   3.975   3.176   1.465  0.3760  0.1860 -0.2998
 8701TIP3    H147594   3.889   3.139   1.446  0.5281  0.3573 -1.4123
 8701TIP3    H247595   4.034   3.101   1.462  0.3697  0.1797 -0.2649
 8702TIP3   OH247596   1.209   3.628   2.661  0.0061 -0.0910  0.1759
 8702TIP3    H147597   1.132   3.598   2.707 -0.6857 -1.0856 -1.5172
 8702TIP3    H247598   1.180   3.705   2.612 -0.1795 -0.9355 -1.0972
 8703TIP3   OH247599   0.795   6.765  14.038 -0.1908  0.2511 -0.2991
 8703TIP3    H147600   0.829   6.817  14.111  0.7742 -0.4480 -0.2184
 8703TIP3    H247601   0.703   6.789  14.032 -0.6291 -0.5703  1.9684
 8704TIP3   OH247602   5.891   0.136  11.914  0.1607  0.3376 -0.2102
 8704TIP3    H147603   5.879   0.041  11.912 -1.5650  0.5411 -1.7615
 8704TIP3    H247604   5.986   0.148  11.922  0.3992 -1.4974  0.0837
 8705TIP3   OH247605   0.583   0.550  14.867  0.4543 -0.4712 -0.7461
 8705TIP3    H147606   0.621   0.613  14.805 -1.9770  1.7575 -0.1169
 8705TIP3    H247607   0.550   0.480  14.812 -0.1264  0.6336 -1.8533
 8706TIP3   OH247608   1.349   3.921  13.789 -0.0554 -0.7121  0.1259
 8706TIP3    H147609   1.343   3.857  13.718  1.2140 -0.8141  0.0827
 8706TIP3    H247610   1.379   3.871  13.864  1.4709 -0.0956 -0.0469
 8707TIP3   OH247611   2.786   2.897  11.551  0.0404  0.3578 -0.3382
 8707TIP3    H147612   2.706   2.950  11.542 -0.4320 -0.3418 -0.3871
 8707TIP3    H247613   2.803   2.896  11.645  0.0528  0.6036 -0.3375
 8708TIP3   OH247614   6.251   6.450  11.350  0.1966  0.6968 -0.3856
 8708TIP3    H147615   6.266   6.472  11.258  1.0904 -0.8600 -0.6307
 8708TIP3    H247616   6.328   6.400  11.376 -1.7920 -2.4305  0.0106
 8709TIP3   OH247617   3.387   2.295  13.384 -0.2719  0.1192 -0.2795
 8709TIP3    H147618   3.414   2.324  13.297 -0.3101  1.1395  0.0327
 8709TIP3    H247619   3.306   2.247  13.369  0.2545 -0.6035 -0.9136
 8710TIP3   OH247620   3.516   3.038  13.059  0.5334 -0.0181  0.3248
 8710TIP3    H147621   3.530   3.117  13.006  1.0920  0.1970  0.7772
 8710TIP3    H247622   3.604   3.004  13.074  0.5400  0.7060  2.2616
 8711TIP3   OH247623   4.943   3.720   4.935 -0.2655 -0.0182  0.5661
 8711TIP3    H147624   4.867   3.723   4.877  0.7615 -1.2105 -0.9379
 8711TIP3    H247625   5.013   3.763   4.885  0.2827  0.2749  1.5559
 8712TIP3   OH247626   0.781   1.572   4.504  0.7148 -0.4570  0.4963
 8712TIP3    H147627   0.836   1.644   4.473  0.4630 -0.8639 -0.9245
 8712TIP3    H247628   0.839   1.496   4.502 -0.1714 -1.1378 -2.1849
 8713TIP3   OH247629   3.497   2.868   1.137  0.6200  0.6619 -0.1718
 8713TIP3    H147630   3.419   2.916   1.107  0.3006  0.3900  0.2036
 8713TIP3    H247631   3.561   2.936   1.157  1.1079  0.8358 -2.1253
 8714TIP3   OH247632   3.137   3.603  12.091  0.6386 -0.3244 -0.5538
 8714TIP3    H147633   3.207   3.662  12.062  1.1262 -1.1043 -0.9877
 8714TIP3    H247634   3.161   3.518  12.056 -1.5240 -0.2658 -2.4207
 8715TIP3   OH247635   1.454   5.498  11.787  0.2760 -0.0193 -0.3564
 8715TIP3    H147636   1.500   5.505  11.703  0.7860  0.5168 -0.0388
 8715TIP3    H247637   1.384   5.435  11.770 -0.0403  0.5670 -1.3665
 8716TIP3   OH247638   1.057   5.909   1.440 -0.2446 -0.3488 -1.0533
 8716TIP3    H147639   1.053   5.988   1.385  1.8269  0.2548 -0.4520
 8716TIP3    H247640   1.069   5.838   1.378  1.1311  0.2204 -1.4885
 8717TIP3   OH247641   3.850   0.425  14.250 -0.0066  0.0526 -0.2982
 8717TIP3    H147642   3.810   0.343  14.221  0.2273 -0.0371 -0.3720
 8717TIP3    H247643   3.943   0.413  14.233  0.3459 -0.5519  1.7609
 8718TIP3   OH247644   3.055   2.143  14.524  0.1278  0.8166 -0.6038
 8718TIP3    H147645   3.056   2.157  14.429 -3.9058  1.1092 -0.8009
 8718TIP3    H247646   3.054   2.232  14.561  1.3188  0.7015 -0.2433
 8719TIP3   OH247647   4.557   2.974  14.833  0.0954  0.1806  0.1940
 8719TIP3    H147648   4.603   3.020  14.904  0.4897 -2.1961  1.5988
 8719TIP3    H247649   4.617   2.904  14.808 -0.8890 -0.2089 -1.1494
 8720TIP3   OH247650   2.848   6.673   1.806 -1.1422 -0.1925 -0.3905
 8720TIP3    H147651   2.809   6.665   1.893 -0.1443 -0.5255  0.0316
 8720TIP3    H247652   2.803   6.607   1.754 -1.1019 -0.6129  0.0994
 8721TIP3   OH247653   0.445   2.197   1.174  0.4079 -0.2504  0.2754
 8721TIP3    H147654   0.389   2.240   1.239  0.0880 -1.3069  0.7229
 8721TIP3    H247655   0.414   2.106   1.172  2.2727 -0.9463  0.7366
 8722TIP3   OH247656   5.182   0.497   1.393 -0.0241  0.4293 -0.2246
 8722TIP3    H147657   5.176   0.406   1.420 -2.4625 -0.4993 -3.3539
 8722TIP3    H247658   5.248   0.499   1.324 -2.3073  0.1873 -2.5762
 8723TIP3   OH247659   3.336   6.524  10.912  0.3177 -0.1950 -0.0817
 8723TIP3    H147660   3.331   6.492  10.822  0.7243 -1.4322  0.3206
 8723TIP3    H247661   3.244   6.533  10.939  0.1954 -1.1334 -0.1711
 8724TIP3   OH247662   3.099   5.017   1.951  0.6715 -0.2980 -0.9072
 8724TIP3    H147663   3.094   5.024   2.047  0.6225  2.1393 -1.0370
 8724TIP3    H247664   3.008   5.001   1.924 -0.1464  3.2158 -0.7151
 8725TIP3   OH247665   2.828   5.470  13.486 -0.1673 -0.3239 -0.1099
 8725TIP3    H147666   2.738   5.439  13.471 -0.3344  0.8603 -1.7325
 8725TIP3    H247667   2.831   5.488  13.580 -2.1967  1.2211 -0.2739
 8726TIP3   OH247668   2.274   0.994   4.537  0.4950  0.3036  0.1292
 8726TIP3    H147669   2.326   0.990   4.457  1.6431 -1.3283  0.9018
 8726TIP3    H247670   2.283   0.906   4.575 -0.7072  0.7956  1.6239
 8727TIP3   OH247671   3.930   2.431  15.563  0.3557  0.3373  0.0175
 8727TIP3    H147672   3.988   2.364  15.599  1.5999  0.4745 -1.6517
 8727TIP3    H247673   3.988   2.494  15.521 -0.9562  1.0019 -0.8750
 8728TIP3   OH247674   0.583   4.008  12.225 -0.0090 -0.3207  0.0840
 8728TIP3    H147675   0.609   4.089  12.181  1.7668 -0.1223  1.3645
 8728TIP3    H247676   0.576   4.032  12.318 -3.3650 -0.7864  0.0599
 8729TIP3   OH247677   2.286   6.664  13.605 -0.3028 -0.0007 -1.0114
 8729TIP3    H147678   2.284   6.645  13.512 -2.4576  0.4724 -1.1261
 8729TIP3    H247679   2.203   6.708  13.622  0.0831  0.0214  1.1098
 8730TIP3   OH247680   0.385   4.790   3.592 -0.2001 -0.0289  0.3953
 8730TIP3    H147681   0.361   4.821   3.680  0.2303 -0.5921  0.7183
 8730TIP3    H247682   0.476   4.762   3.601  0.1058  0.6559 -0.4336
 8731TIP3   OH247683   0.852   2.438  12.543  0.0131  0.1601  0.9377
 8731TIP3    H147684   0.912   2.445  12.617 -0.2699 -0.2487  1.2088
 8731TIP3    H247685   0.908   2.415  12.469 -0.0715 -2.8855  1.6936
 8732TIP3   OH247686   5.340   2.284  11.801  0.3263 -0.0758  0.6499
 8732TIP3    H147687   5.268   2.251  11.855  0.1030  1.2523  1.2100
 8732TIP3    H247688   5.310   2.275  11.711 -0.9824  1.3709  0.9076
 8733TIP3   OH247689   2.711   3.624  13.790  0.9705  0.5846  0.6095
 8733TIP3    H147690   2.728   3.530  13.787 -0.8336  0.2358  0.0425
 8733TIP3    H247691   2.703   3.650  13.699  0.5209  1.0954  0.7887
 8734TIP3   OH247692   4.673   1.195  14.506 -0.1588 -0.2286  0.2889
 8734TIP3    H147693   4.682   1.147  14.424 -0.1969 -0.8580  0.6433
 8734TIP3    H247694   4.579   1.208  14.516 -0.1695 -0.3267  0.3238
 8735TIP3   OH247695   3.301   1.075   4.400 -0.0202  0.6054 -0.0716
 8735TIP3    H147696   3.209   1.099   4.411 -0.2047  0.2552 -0.7917
 8735TIP3    H247697   3.344   1.108   4.479 -1.2618 -1.7935  1.7082
 8736TIP3   OH247698   0.720   6.834   0.125  0.4281 -0.4726 -0.4848
 8736TIP3    H147699   0.663   6.788   0.186  0.8239 -0.4812 -0.1150
 8736TIP3    H247700   0.806   6.833   0.167  0.4864  0.4288 -0.5547
 8737TIP3   OH247701   1.832   0.423   0.639 -0.4205  0.3304 -0.0513
 8737TIP3    H147702   1.768   0.390   0.701  0.5460  0.4678  1.0486
 8737TIP3    H247703   1.832   0.359   0.568 -1.8953  0.4353 -0.1843
 8738TIP3   OH247704   2.132   5.253   1.300  0.7622  0.0281 -0.4583
 8738TIP3    H147705   2.105   5.318   1.366  0.3866  0.7174 -1.2695
 8738TIP3    H247706   2.052   5.234   1.251  0.9244 -0.8892 -0.3771
 8739TIP3   OH247707   2.640   0.902  13.735  0.3311 -0.3703 -0.0380
 8739TIP3    H147708   2.671   0.866  13.818  0.2258 -0.2591  0.0483
 8739TIP3    H247709   2.553   0.864  13.723  0.4643 -0.6149 -0.2406
 8740TIP3   OH247710   0.472   3.518   6.571 -0.3857  0.1825 -0.6298
 8740TIP3    H147711   0.390   3.567   6.577 -0.7697 -0.6001  2.0898
 8740TIP3    H247712   0.531   3.563   6.633  0.1095 -1.1773 -0.0760
 8741TIP3   OH247713   6.114   2.288  11.450 -0.5322  0.3030 -0.2634
 8741TIP3    H147714   6.082   2.268  11.362 -0.3528  1.9571 -0.7498
 8741TIP3    H247715   6.070   2.226  11.507 -0.7528 -0.7171 -1.5071
 8742TIP3   OH247716   3.018   6.184  13.658  0.5235  0.2170 -0.5253
 8742TIP3    H147717   3.037   6.277  13.654  0.2424  0.2468 -1.3013
 8742TIP3    H247718   3.008   6.165  13.752  1.5682  0.7574 -0.2829
 8743TIP3   OH247719   0.707   2.486  15.510 -0.0544 -0.2618  0.3749
 8743TIP3    H147720   0.772   2.467  15.442 -0.0736  1.6442 -0.2433
 8743TIP3    H247721   0.623   2.468  15.468 -0.1850  2.5492 -0.8510
 8744TIP3   OH247722   0.399   6.851   2.557 -0.2190  0.2221 -0.2358
 8744TIP3    H147723   0.316   6.875   2.598  0.3737  0.4026  0.8907
 8744TIP3    H247724   0.465   6.868   2.624  0.8838  1.3021 -1.5438
 8745TIP3   OH247725   6.483   0.253   1.236 -0.8354  0.0653 -0.4000
 8745TIP3    H147726   6.504   0.166   1.269 -0.6391 -0.0650 -0.8619
 8745TIP3    H247727   6.414   0.285   1.294 -0.0894  0.0837  0.5092
 8746TIP3   OH247728   0.068   0.997   1.103  0.3538  0.5370 -0.1666
 8746TIP3    H147729  -0.027   0.994   1.114  0.3633  1.4021  0.2046
 8746TIP3    H247730   0.103   0.949   1.177  0.2003 -0.1323 -0.5200
 8747TIP3   OH247731   6.131   3.119   5.430 -0.1755  0.5830  0.3440
 8747TIP3    H147732   6.111   3.112   5.336 -1.9451 -0.0968  0.7274
 8747TIP3    H247733   6.215   3.164   5.433  0.4352 -0.2967 -1.6020
 8748TIP3   OH247734   5.244   4.440   3.074  0.4869 -0.1422  0.3575
 8748TIP3    H147735   5.228   4.405   2.986 -0.5916 -0.2027  0.5607
 8748TIP3    H247736   5.259   4.363   3.128 -1.7009 -0.3586  0.7673
 8749TIP3   OH247737   6.337   6.348  13.672 -0.0715  0.1636  0.5238
 8749TIP3    H147738   6.301   6.420  13.620  0.2966  1.8266  2.4355
 8749TIP3    H247739   6.431   6.353  13.658  0.0118  0.4970  1.1424
 8750TIP3   OH247740   5.454   2.810   1.085 -0.2107  1.1400 -0.8134
 8750TIP3    H147741   5.374   2.763   1.110 -0.2761  1.7391  0.1858
 8750TIP3    H247742   5.521   2.741   1.080 -0.5224  0.7964 -0.4057
 8751TIP3   OH247743   4.309   1.354   4.983 -0.0606 -0.4072  0.0655
 8751TIP3    H147744   4.294   1.434   5.033  1.6976  0.0803 -0.1378
 8751TIP3    H247745   4.370   1.379   4.914  0.0507 -1.7961 -0.3759
 8752TIP3   OH247746   4.775   5.842  14.529  0.0948 -0.3573  0.0743
 8752TIP3    H147747   4.762   5.759  14.576 -1.5342 -0.2118 -0.0719
 8752TIP3    H247748   4.825   5.896  14.591 -0.6151 -0.7356  1.0110
 8753TIP3   OH247749   4.237   6.086   1.857 -0.6982 -0.0811  0.3901
 8753TIP3    H147750   4.243   6.109   1.764 -0.5407  1.1904  0.6862
 8753TIP3    H247751   4.145   6.099   1.878 -0.4095  1.4875  0.8247
 8754TIP3   OH247752   2.635   2.739  13.307  0.3763 -0.2425  0.2015
 8754TIP3    H147753   2.541   2.722  13.309  0.4001 -0.2875  1.0060
 8754TIP3    H247754   2.642   2.826  13.267  0.0319 -0.4604 -0.3496
 8755TIP3   OH247755   3.784   6.512  17.004 -0.0291 -0.1178  0.1761
 8755TIP3    H147756   3.790   6.431  16.954  1.7391 -0.0816  0.2708
 8755TIP3    H247757   3.743   6.486  17.087 -1.1044 -0.5503 -0.4747
 8756TIP3   OH247758   3.466   5.797   1.752  0.3544 -0.5747 -0.6031
 8756TIP3    H147759   3.469   5.820   1.845  1.9802  0.8756 -0.9750
 8756TIP3    H247760   3.373   5.786   1.733 -0.3903  2.9858  0.3288
 8757TIP3   OH247761   3.349   4.637   2.877 -0.0367 -0.3321  0.5276
 8757TIP3    H147762   3.395   4.571   2.929  0.4536  0.6399  1.3679
 8757TIP3    H247763   3.339   4.597   2.791  2.3184 -0.6381  0.3308
 8758TIP3   OH247764   5.216   5.805  11.794  0.1486 -0.0479 -0.2344
 8758TIP3    H147765   5.273   5.742  11.838 -0.3170  0.0924  0.5883
 8758TIP3    H247766   5.177   5.755  11.722  2.1047  0.1401 -1.4812
 8759TIP3   OH247767   4.519   1.953  12.911 -0.0240  0.0353  0.6983
 8759TIP3    H147768   4.503   2.019  12.979  0.0970  0.0607  0.7027
 8759TIP3    H247769   4.602   1.980  12.871  0.6116 -0.7552  1.4575
 8760TIP3   OH247770   1.042   5.731   4.769  0.2232  0.0773  0.7344
 8760TIP3    H147771   1.049   5.661   4.834  0.3231 -0.5652  0.0468
 8760TIP3    H247772   1.034   5.685   4.685  0.5775  0.8923  0.2426
 8761TIP3   OH247773   2.003   4.082   0.099  0.1926 -0.1884 -0.2196
 8761TIP3    H147774   1.950   4.018   0.146  0.0398 -0.5110 -0.8227
 8761TIP3    H247775   2.048   4.131   0.168 -0.6231 -0.1337  0.2939
 8762TIP3   OH247776   6.326   5.266   4.187 -0.1622 -0.7393  0.0818
 8762TIP3    H147777   6.350   5.175   4.171  0.6096 -0.1412 -2.8035
 8762TIP3    H247778   6.241   5.276   4.146  1.1030  0.4743 -2.5200
 8763TIP3   OH247779   4.356   6.146  12.446 -0.7207 -0.6240 -0.2025
 8763TIP3    H147780   4.329   6.236  12.468 -2.5088 -1.2170  0.1645
 8763TIP3    H247781   4.279   6.093  12.464  0.2791 -2.2403 -0.5230
 8764TIP3   OH247782   3.628   5.587  15.635  0.2627 -0.1066  0.0855
 8764TIP3    H147783   3.694   5.549  15.692  1.5512  1.6932 -0.1406
 8764TIP3    H247784   3.648   5.552  15.548  1.0252  0.5512 -0.0078
 8765TIP3   OH247785   1.302   2.356   0.276  0.6442  0.3101 -0.0522
 8765TIP3    H147786   1.337   2.416   0.210  0.9489  0.7162  0.4723
 8765TIP3    H247787   1.216   2.391   0.297  0.2057 -0.2738 -0.8062
 8766TIP3   OH247788   3.663   4.949   4.170  0.3067  0.0967 -0.2831
 8766TIP3    H147789   3.619   4.906   4.097 -1.8770  0.7046  0.5919
 8766TIP3    H247790   3.736   4.997   4.131 -1.2467  1.0226 -2.1835
 8767TIP3   OH247791   2.633   6.722  10.787 -0.4486  0.0779 -0.1579
 8767TIP3    H147792   2.570   6.707  10.716 -2.9183  3.0260  1.1800
 8767TIP3    H247793   2.690   6.792  10.754  0.9607 -1.2259 -0.6056
 8768TIP3   OH247794   3.904   2.152  14.992 -0.0959 -0.2586  0.4450
 8768TIP3    H147795   3.929   2.238  15.026 -0.0147 -0.0109 -0.2461
 8768TIP3    H247796   3.951   2.089  15.048 -0.0491  0.1456  0.8612
 8769TIP3   OH247797   5.449   4.007   1.217  0.1634  0.3015  0.0769
 8769TIP3    H147798   5.520   4.017   1.153 -0.4515  1.8120 -0.3991
 8769TIP3    H247799   5.423   4.096   1.238 -2.5652 -0.1839 -0.8742
 8770TIP3   OH247800   6.506   5.258  14.301 -0.1097 -0.1232  0.2918
 8770TIP3    H147801   6.513   5.203  14.379  0.9437  0.6314  0.7477
 8770TIP3    H247802   6.562   5.215  14.236 -0.1794 -0.1956  0.2791
 8771TIP3   OH247803   0.664   5.963  16.975  0.8204  0.6911  0.2792
 8771TIP3    H147804   0.627   5.882  17.011 -0.4133  1.2102  0.2386
 8771TIP3    H247805   0.589   6.023  16.970  1.6904  1.7995  0.2016
 8772TIP3   OH247806   6.513   2.891   0.889 -0.0789  0.1266 -0.6172
 8772TIP3    H147807   6.499   2.974   0.935 -0.3860  0.2140 -0.8673
 8772TIP3    H247808   6.480   2.825   0.950 -0.5216  0.2454 -0.7236
 8773TIP3   OH247809   4.087   5.755   1.657 -0.4721  0.0092  0.2801
 8773TIP3    H147810   4.161   5.769   1.597 -0.8312  0.1501 -0.1370
 8773TIP3    H247811   4.015   5.804   1.618 -0.1215  2.1070  2.0722
 8774TIP3   OH247812   0.669   5.412   6.561 -0.3202 -0.0086 -0.2159
 8774TIP3    H147813   0.735   5.375   6.619 -1.5414  0.8233  1.8243
 8774TIP3    H247814   0.625   5.336   6.523  0.3401 -0.5783  0.1444
 8775TIP3   OH247815   2.406   5.500  10.844  0.2874 -0.1557 -0.6482
 8775TIP3    H147816   2.372   5.422  10.888  3.3556 -1.8474 -1.0123
 8775TIP3    H247817   2.339   5.520  10.778 -1.0827 -1.8429  0.1227
 8776TIP3   OH247818   0.106   2.211  14.725 -0.8919 -0.1476 -0.5317
 8776TIP3    H147819   0.198   2.235  14.722 -0.6593 -0.9854 -0.4501
 8776TIP3    H247820   0.099   2.155  14.803 -1.2505 -0.9249 -1.1112
 8777TIP3   OH247821   5.437   3.153  16.844 -0.1418  0.4344  0.3001
 8777TIP3    H147822   5.526   3.120  16.832 -0.3441 -0.4262  1.0700
 8777TIP3    H247823   5.382   3.091  16.797 -0.3397  1.0259 -0.2672
 8778TIP3   OH247824   6.764   5.771   5.547 -0.3397 -0.1513  0.3914
 8778TIP3    H147825   6.846   5.729   5.521 -0.3121 -1.1371  1.9305
 8778TIP3    H247826   6.710   5.769   5.469  0.8323 -0.1720 -0.4412
 8779TIP3   OH247827   1.858   0.431  14.775 -0.0274 -0.1593  1.0723
 8779TIP3    H147828   1.898   0.513  14.804 -0.9231  0.1963  1.3516
 8779TIP3    H247829   1.930   0.380  14.739  0.2377  1.6006 -1.0714
 8780TIP3   OH247830   1.358   1.519   4.832  0.6897  0.4366 -0.3139
 8780TIP3    H147831   1.395   1.590   4.779  2.8986 -1.9276 -2.1751
 8780TIP3    H247832   1.268   1.510   4.800  1.1929  0.7362 -1.8948
 8781TIP3   OH247833   1.335   5.727   4.508 -0.0005 -0.1172  0.2081
 8781TIP3    H147834   1.304   5.810   4.472  0.7900  0.1476  0.1074
 8781TIP3    H247835   1.415   5.708   4.459 -0.2276 -1.0019  0.1576
 8782TIP3   OH247836   6.645   3.675  14.458  0.2143 -0.1340  0.4800
 8782TIP3    H147837   6.720   3.734  14.467 -1.0495  1.3320  2.0488
 8782TIP3    H247838   6.584   3.723  14.401  0.0945 -0.9359 -0.0801
 8783TIP3   OH247839   0.644   1.139   3.295 -0.1314  0.3377 -0.2182
 8783TIP3    H147840   0.599   1.057   3.318 -0.7902  0.3214 -1.4376
 8783TIP3    H247841   0.573   1.198   3.268  0.4905  0.5659 -1.4382
 8784TIP3   OH247842   3.779   1.831   1.561 -0.4669 -0.6310  0.1174
 8784TIP3    H147843   3.863   1.798   1.593 -1.2413 -1.9407  0.8948
 8784TIP3    H247844   3.725   1.753   1.551 -2.3680  0.3458  1.9507
 8785TIP3   OH247845   2.363   6.756  15.019  0.5555 -0.3361 -0.5636
 8785TIP3    H147846   2.350   6.696  14.945  1.9672  0.7896 -1.7825
 8785TIP3    H247847   2.290   6.819  15.011 -0.7932 -1.6854  0.5811
 8786TIP3   OH247848   0.602   4.240  10.409 -0.2908 -0.1521  0.1745
 8786TIP3    H147849   0.629   4.166  10.354  0.8723 -0.5392  1.2180
 8786TIP3    H247850   0.534   4.284  10.358 -1.3241 -2.1808 -0.2937
 8787TIP3   OH247851   2.896   4.942   4.266 -0.3229 -0.1484 -0.3609
 8787TIP3    H147852   2.943   4.861   4.247  0.1657 -0.5755  2.3256
 8787TIP3    H247853   2.964   5.010   4.268 -0.3157 -0.1670  0.1291
 8788TIP3   OH247854   5.541   2.839  14.924 -0.0759 -0.1151  1.0091
 8788TIP3    H147855   5.577   2.851  14.836 -1.9336  0.8033  0.3204
 8788TIP3    H247856   5.578   2.910  14.976  0.9649 -0.6133  0.9734
 8789TIP3   OH247857   3.904   4.254   0.811  0.2301 -0.4340 -0.3101
 8789TIP3    H147858   3.813   4.233   0.830  0.2760 -0.7937 -0.4872
 8789TIP3    H247859   3.953   4.219   0.885  0.3220 -1.0861 -0.6801
 8790TIP3   OH247860   3.399   4.328  12.979  0.5072 -0.5086  0.0613
 8790TIP3    H147861   3.402   4.251  13.036  1.4593  0.1865  0.9785
 8790TIP3    H247862   3.482   4.326  12.931  1.6077  1.1189  1.7352
 8791TIP3   OH247863   5.445   6.478  13.784 -0.2313  0.2268  0.3416
 8791TIP3    H147864   5.435   6.438  13.698 -1.7782  2.1614 -0.4656
 8791TIP3    H247865   5.364   6.456  13.830 -0.0108  0.3446  0.7925
 8792TIP3   OH247866   3.024   5.331  16.400  0.2282 -0.6423 -0.7558
 8792TIP3    H147867   2.986   5.355  16.315 -0.0982 -1.5869 -0.8895
 8792TIP3    H247868   3.043   5.414  16.442  0.0638 -0.1599 -1.6130
 8793TIP3   OH247869   3.161   2.880  16.843 -0.3590 -0.3637 -0.4519
 8793TIP3    H147870   3.203   2.817  16.785  2.2496  0.8324 -0.0019
 8793TIP3    H247871   3.091   2.918  16.790  0.8128 -0.5682 -2.2473
 8794TIP3   OH247872   1.792   4.687   5.206  0.2926  0.0838 -0.4136
 8794TIP3    H147873   1.711   4.641   5.228 -1.0524  2.4606 -0.0981
 8794TIP3    H247874   1.787   4.702   5.111  0.7773 -0.4549 -0.5338
 8795TIP3   OH247875   3.894   5.714   5.861 -0.1330  0.5187 -0.2269
 8795TIP3    H147876   3.828   5.715   5.930 -2.8565  0.1993 -2.6775
 8795TIP3    H247877   3.888   5.800   5.819  1.5596  0.7536 -0.0927
 8796TIP3   OH247878   5.914   1.509   1.841 -0.2870 -0.0004  0.3764
 8796TIP3    H147879   5.936   1.418   1.822  2.7575  0.4177  1.3945
 8796TIP3    H247880   5.940   1.557   1.762  1.4715  0.3450  1.1189
 8797TIP3   OH247881   4.978   4.584   4.983  0.9066  0.3406  0.3986
 8797TIP3    H147882   4.995   4.589   5.077  1.7508  1.4509  0.1988
 8797TIP3    H247883   4.954   4.493   4.969  1.4185 -0.0033  1.5821
 8798TIP3   OH247884   1.132   2.270  17.099 -0.2728 -0.1237 -0.6292
 8798TIP3    H147885   1.135   2.363  17.122  0.3176 -0.3121  0.1175
 8798TIP3    H247886   1.207   2.231  17.146 -0.5226 -0.9776 -0.9107
 8799TIP3   OH247887   2.126   1.834  16.398 -0.2881 -0.2653 -0.0699
 8799TIP3    H147888   2.047   1.863  16.444 -0.2779  1.1587 -0.8739
 8799TIP3    H247889   2.133   1.741  16.417 -1.4348 -0.1411  1.0771
 8800TIP3   OH247890   6.693   5.653  15.709  0.0730  0.5929  0.1937
 8800TIP3    H147891   6.618   5.691  15.753 -0.0667  0.4633  0.0706
 8800TIP3    H247892   6.658   5.619  15.626  0.3164  0.7685  0.0172
 8801TIP3   OH247893   2.977   5.090   1.287 -0.0490 -0.0375  0.3896
 8801TIP3    H147894   2.925   5.013   1.311  0.6788 -1.2721 -1.7657
 8801TIP3    H247895   3.062   5.075   1.329 -0.0150 -0.2513  0.2472
 8802TIP3   OH247896   1.261   2.288   1.844  0.3117  0.1827  0.4262
 8802TIP3    H147897   1.245   2.205   1.800  0.8275  0.3779 -0.1485
 8802TIP3    H247898   1.314   2.265   1.921  0.3511 -0.0301  0.3338
 8803TIP3   OH247899   6.794   1.575  11.937 -0.2977  0.0318  0.2278
 8803TIP3    H147900   6.829   1.489  11.913  1.7312  1.3772 -2.1580
 8803TIP3    H247901   6.777   1.618  11.853  1.3194  2.8828  1.2227
 8804TIP3   OH247902   2.739   0.074  12.147  0.7528 -0.0222  0.2817
 8804TIP3    H147903   2.755   0.137  12.077  0.9978 -0.7271 -0.3100
 8804TIP3    H247904   2.695   0.000  12.104  0.7524 -0.3909  0.8987
 8805TIP3   OH247905   3.632   5.026   2.611 -0.1698  0.0398 -0.0652
 8805TIP3    H147906   3.680   5.072   2.541  1.7536 -0.1607  1.0483
 8805TIP3    H247907   3.682   5.045   2.690 -1.4270 -1.0053  1.0091
 8806TIP3   OH247908   3.104   5.136  17.093 -0.0110  0.1655  0.1543
 8806TIP3    H147909   3.092   5.209  17.033 -0.3428  0.6713  0.8249
 8806TIP3    H247910   3.172   5.082  17.052  2.2001  2.2099  0.8901
 8807TIP3   OH247911   4.508   2.067   5.315 -0.1718 -0.1430 -0.0943
 8807TIP3    H147912   4.532   2.141   5.371 -0.7255  0.9513 -1.2732
 8807TIP3    H247913   4.445   2.103   5.253  0.4262 -1.3296 -1.4381
 8808TIP3   OH247914   2.892   1.796  14.826 -0.5136  0.6441  0.2284
 8808TIP3    H147915   2.807   1.781  14.784 -1.2179  1.8143  1.1582
 8808TIP3    H247916   2.870   1.816  14.917  0.9474 -1.4310  1.0958
 8809TIP3   OH247917   6.417   4.896   0.786 -0.3550  0.2116 -0.4414
 8809TIP3    H147918   6.327   4.866   0.787 -0.4571  0.5028 -0.7417
 8809TIP3    H247919   6.436   4.913   0.694 -0.0089  0.2003 -0.3755
 8810TIP3   OH247920   2.220   1.372  16.138  0.5097 -0.3174 -0.3027
 8810TIP3    H147921   2.126   1.372  16.124  0.6203 -0.2982 -1.1234
 8810TIP3    H247922   2.239   1.289  16.181 -0.0716  0.3627  1.3106
 8811TIP3   OH247923   0.783   3.747   0.688  0.4387 -0.2185  0.1954
 8811TIP3    H147924   0.711   3.751   0.625  0.4686 -0.6478  0.1319
 8811TIP3    H247925   0.741   3.762   0.773  0.7226  2.9140 -0.1019
 8812TIP3   OH247926   6.087   3.800  16.511  0.1913 -0.0824  0.5815
 8812TIP3    H147927   6.120   3.716  16.543  0.5164  0.1370  0.8275
 8812TIP3    H247928   6.166   3.848  16.483  0.0184  0.1789  0.5356
 8813TIP3   OH247929   1.889   5.975  11.087  0.0520  0.2985  0.3139
 8813TIP3    H147930   1.864   6.020  11.168  1.7361  2.9911 -0.5477
 8813TIP3    H247931   1.965   6.022  11.055 -0.0863 -1.1438 -2.4810
 8814TIP3   OH247932   4.497   2.117  13.135  1.0633  0.4528  0.0707
 8814TIP3    H147933   4.411   2.124  13.176  0.2830 -0.7080 -1.2802
 8814TIP3    H247934   4.523   2.207  13.116 -0.0870  0.7841  0.0460
 8815TIP3   OH247935   4.233   1.944  10.778 -0.6545 -0.4862  0.0796
 8815TIP3    H147936   4.232   1.883  10.705 -0.2685 -0.2657 -0.1120
 8815TIP3    H247937   4.172   2.013  10.753 -0.6229 -0.4784  0.0244
 8816TIP3   OH247938   6.654   2.268   5.253 -0.0492  0.2053  0.0985
 8816TIP3    H147939   6.569   2.306   5.272 -0.1777 -0.8415  1.8753
 8816TIP3    H247940   6.692   2.249   5.339  0.0364 -3.4955 -0.5710
 8817TIP3   OH247941   6.328   1.192   5.578 -0.0899 -0.1757  0.2482
 8817TIP3    H147942   6.341   1.187   5.483  0.3503  0.7194  0.2452
 8817TIP3    H247943   6.346   1.103   5.609 -1.4813 -0.7948 -0.6307
 8818TIP3   OH247944   1.767   4.175   2.010  0.0515  0.2637 -0.3172
 8818TIP3    H147945   1.713   4.213   2.080 -1.4333  0.8058 -1.7003
 8818TIP3    H247946   1.713   4.105   1.974  0.2974  0.7651 -1.6879
 8819TIP3   OH247947   3.811   1.198  16.769  0.3125  0.6344 -0.3895
 8819TIP3    H147948   3.725   1.163  16.742 -0.0883 -0.2694  1.8283
 8819TIP3    H247949   3.864   1.120  16.784  0.7834  1.1182  0.5013
 8820TIP3   OH247950   0.428   0.459   2.084 -0.2820 -0.4169  0.0606
 8820TIP3    H147951   0.508   0.511   2.094 -0.2485 -0.7871  2.0655
 8820TIP3    H247952   0.357   0.522   2.097 -0.2889 -0.4009 -0.0537
 8821TIP3   OH247953   3.923   1.934   2.435  0.1669 -0.1483  0.1519
 8821TIP3    H147954   3.862   1.870   2.396 -0.3371 -0.0263  0.7309
 8821TIP3    H247955   3.911   2.013   2.382 -1.0510  0.2470  0.9734
 8822TIP3   OH247956   2.501   3.558   2.803 -0.0719  0.8606  0.3819
 8822TIP3    H147957   2.478   3.585   2.714 -0.1288  2.3625  0.8143
 8822TIP3    H247958   2.437   3.602   2.859 -1.0229 -1.3155  1.0968
 8823TIP3   OH247959   3.247   1.239  15.562 -0.8138  0.1413  0.1989
 8823TIP3    H147960   3.165   1.195  15.586 -1.1333  1.6926  2.2871
 8823TIP3    H247961   3.219   1.321  15.523 -0.2610  0.5194  0.5870
 8824TIP3   OH247962   3.478   6.109  15.035 -0.2003 -0.3798  0.4025
 8824TIP3    H147963   3.531   6.180  15.069 -0.8656  0.0726  0.5130
 8824TIP3    H247964   3.536   6.033  15.036  1.5300  0.7387 -2.5308
 8825TIP3   OH247965   4.988   0.112   5.281 -0.0302 -0.5404 -0.3251
 8825TIP3    H147966   4.933   0.046   5.323 -0.6072  0.1057 -0.0306
 8825TIP3    H247967   4.958   0.195   5.318  1.6719 -0.2134  0.4434
 8826TIP3   OH247968   0.595   0.990   5.569 -0.3937  0.1860 -0.5197
 8826TIP3    H147969   0.508   0.950   5.566 -1.0691  1.6476 -1.7495
 8826TIP3    H247970   0.584   1.076   5.529  1.2047  1.2506  1.1430
 8827TIP3   OH247971   4.534   0.326  12.381 -0.1392  0.7016 -0.1498
 8827TIP3    H147972   4.501   0.287  12.462 -2.0600  1.1020 -0.7012
 8827TIP3    H247973   4.565   0.251  12.330  0.3578  0.3743  0.6118
 8828TIP3   OH247974   4.996   1.791  12.215 -0.1805 -0.4988  0.1963
 8828TIP3    H147975   4.999   1.857  12.146 -1.0865 -1.2671 -0.6130
 8828TIP3    H247976   4.909   1.801  12.253 -0.3475 -1.2558  0.0244
 8829TIP3   OH247977   2.795   1.797   0.196  0.6351  0.0852  0.0616
 8829TIP3    H147978   2.879   1.837   0.176  0.9433 -0.9828 -0.8983
 8829TIP3    H247979   2.817   1.718   0.245  0.2313 -0.4841 -0.6653
 8830TIP3   OH247980   3.237   4.489  13.743 -0.2830  0.2659 -0.4809
 8830TIP3    H147981   3.281   4.404  13.746 -0.9557 -0.1128 -0.9640
 8830TIP3    H247982   3.293   4.544  13.690  1.3486  0.8569  1.7026
 8831TIP3   OH247983   0.667   0.336  13.558 -0.1658  0.3557  0.1646
 8831TIP3    H147984   0.748   0.357  13.511  0.1347  0.1871  0.5944
 8831TIP3    H247985   0.649   0.245  13.535  0.9435 -0.3107  1.7036
 8832TIP3   OH247986   5.189   4.980   5.020  0.6341 -0.0237  0.1027
 8832TIP3    H147987   5.217   4.917   5.086  0.6562 -0.8608 -0.6793
 8832TIP3    H247988   5.227   5.063   5.048  0.6935 -0.3694  1.0983
 8833TIP3   OH247989   0.812   2.906  15.847  0.5872 -0.1871 -0.1921
 8833TIP3    H147990   0.826   2.974  15.781 -0.2521  0.1314 -0.0543
 8833TIP3    H247991   0.733   2.861  15.818  1.0106 -0.9568 -0.1550
 8834TIP3   OH247992   0.933   1.537  15.821  0.2975  0.2193 -0.3330
 8834TIP3    H147993   0.982   1.488  15.756 -0.4190 -1.1685  0.1336
 8834TIP3    H247994   0.843   1.539  15.788 -0.1083 -0.6442  0.6657
 8835TIP3   OH247995   2.096   4.389   1.714  0.1737  0.2860  0.2533
 8835TIP3    H147996   2.175   4.443   1.719 -0.2575  1.0172 -0.6881
 8835TIP3    H247997   2.027   4.444   1.751  0.2413 -0.6938  1.9657
 8836TIP3   OH247998   0.917   5.909   4.918  0.6331  0.1839  0.4300
 8836TIP3    H147999   0.973   5.847   4.871  1.4359  0.2199  1.3103
 8836TIP3    H248000   0.965   5.929   4.998 -1.1951 -0.7384  1.8255
 8837TIP3   OH248001   3.194   5.929   3.865  0.0943 -0.7746 -0.2239
 8837TIP3    H148002   3.148   5.909   3.783 -0.0297  0.9151 -0.5910
 8837TIP3    H248003   3.142   5.997   3.907  1.5983  0.3695 -0.1012
 8838TIP3   OH248004   3.857   6.555  10.374  0.0891 -0.3844  0.0759
 8838TIP3    H148005   3.889   6.465  10.375 -0.4402 -0.6719 -2.1600
 8838TIP3    H248006   3.762   6.546  10.365  0.0278  0.3925 -0.1201
 8839TIP3   OH248007   1.055   0.493   3.004 -0.1716  0.2501 -0.0577
 8839TIP3    H148008   1.150   0.491   3.012 -0.0920  0.5021 -0.8910
 8839TIP3    H248009   1.025   0.524   3.090  0.6689  3.1387 -0.6726
 8840TIP3   OH248010   5.680   5.476  12.466 -0.1242 -0.0716  0.0953
 8840TIP3    H148011   5.655   5.566  12.442  0.4918  0.3259  0.8721
 8840TIP3    H248012   5.601   5.440  12.507 -0.0020  0.5610  0.9245
 8841TIP3   OH248013   4.044   4.554  11.381  0.1027  0.1848 -0.0237
 8841TIP3    H148014   3.989   4.565  11.303 -1.9173 -2.6790  0.8429
 8841TIP3    H248015   3.996   4.599  11.450  1.7167  2.4100 -0.2540
 8842TIP3   OH248016   3.278   0.430   0.699  0.3465  0.2047 -0.3671
 8842TIP3    H148017   3.303   0.362   0.636  0.0990 -0.8609  0.6592
 8842TIP3    H248018   3.342   0.500   0.686  1.5585 -0.8882 -0.3786
 8843TIP3   OH248019   0.806   4.694  15.106 -0.2098  0.0295  0.0689
 8843TIP3    H148020   0.737   4.629  15.096  2.1023 -2.4847 -0.6286
 8843TIP3    H248021   0.819   4.729  15.018  0.6935 -0.9649 -0.2122
 8844TIP3   OH248022   0.245   4.710  13.384 -0.2756 -0.0907  0.5782
 8844TIP3    H148023   0.191   4.716  13.463 -0.3880  1.6873  0.3908
 8844TIP3    H248024   0.333   4.737  13.413 -0.0727 -0.4347  0.2976
 8845TIP3   OH248025   6.308   1.653  14.051 -0.1728 -0.0279 -0.4190
 8845TIP3    H148026   6.254   1.690  13.981  0.7692  1.8188 -0.2165
 8845TIP3    H248027   6.267   1.683  14.132  1.3797  1.8853 -0.2620
 8846TIP3   OH248028   2.296   4.795  16.012 -0.2409 -0.2501  0.6974
 8846TIP3    H148029   2.382   4.817  16.047  0.1389 -1.2061  0.4271
 8846TIP3    H248030   2.257   4.738  16.078 -0.7104  0.2543  0.8605
 8847TIP3   OH248031   2.758   4.710  16.549  0.9827 -0.1211 -0.1787
 8847TIP3    H148032   2.821   4.770  16.589  0.5792  1.8173 -2.2581
 8847TIP3    H248033   2.673   4.739  16.582  0.9792 -2.4345  2.2466
 8848TIP3   OH248034   3.433   6.013  15.374 -0.4090  0.6226 -0.3082
 8848TIP3    H148035   3.363   5.964  15.331 -0.7893 -0.3090  1.2663
 8848TIP3    H248036   3.395   6.040  15.457  1.2843 -0.5713  0.9270
 8849TIP3   OH248037   0.966   3.776   3.478 -0.0757 -0.1717 -0.5224
 8849TIP3    H148038   1.010   3.854   3.444 -0.6183 -0.2716 -1.4841
 8849TIP3    H248039   1.009   3.703   3.433 -0.1386 -0.3775 -0.2505
 8850TIP3   OH248040   2.732   1.822   1.498 -0.3339 -0.0425 -0.1436
 8850TIP3    H148041   2.688   1.906   1.483  1.0171  0.7784  0.3178
 8850TIP3    H248042   2.731   1.811   1.593 -1.1833 -0.9510 -0.2389
 8851TIP3   OH248043   5.749   3.866   0.770 -0.0882 -0.2367 -0.0930
 8851TIP3    H148044   5.680   3.839   0.830 -2.2547  2.2938 -1.2085
 8851TIP3    H248045   5.830   3.849   0.817 -1.6150  1.3275  3.5243
 8852TIP3   OH248046   4.060   2.820   4.302 -0.4087 -0.6414  0.4233
 8852TIP3    H148047   4.154   2.825   4.317 -0.3113 -0.8950 -0.0975
 8852TIP3    H248048   4.023   2.799   4.388 -0.1813  1.4334  1.1080
 8853TIP3   OH248049   4.997   4.120   4.437 -0.3123  0.7697 -0.3854
 8853TIP3    H148050   5.019   4.184   4.505  0.3939  1.1415 -0.9533
 8853TIP3    H248051   4.902   4.127   4.429 -0.3494  1.0792  0.2102
 8854TIP3   OH248052   3.743   1.226  15.106  0.0360 -0.0895  0.1227
 8854TIP3    H148053   3.821   1.225  15.052  0.0397 -1.1726  0.1401
 8854TIP3    H248054   3.676   1.266  15.050 -0.2433 -2.1499 -1.1101
 8855TIP3   OH248055   4.738   5.303   5.875  0.0451 -0.0836 -0.2116
 8855TIP3    H148056   4.668   5.245   5.846  0.2873 -1.3966  1.6298
 8855TIP3    H248057   4.818   5.263   5.841  0.1118 -0.1409  0.0099
 8856TIP3   OH248058   2.054   1.864   5.180 -0.1467  0.1587  0.9070
 8856TIP3    H148059   2.085   1.830   5.264  3.4015 -0.1797 -0.3799
 8856TIP3    H248060   2.093   1.951   5.174 -2.2587  1.1436  0.5121
 8857TIP3   OH248061   6.157   5.945   2.783 -0.1826  0.5072  0.4882
 8857TIP3    H148062   6.095   5.882   2.747  0.6900 -0.7100  1.0176
 8857TIP3    H248063   6.134   6.028   2.743  1.0814 -0.7926 -3.4244
 8858TIP3   OH248064   4.437   3.817   4.268 -0.2416 -0.0563 -0.3066
 8858TIP3    H148065   4.475   3.731   4.286  0.9331 -0.1354 -2.7476
 8858TIP3    H248066   4.509   3.878   4.284 -0.6372  0.3385 -0.0164
 8859TIP3   OH248067   1.100   6.656  14.144 -0.5722  0.2678 -0.3030
 8859TIP3    H148068   1.186   6.639  14.183 -0.4834  4.1556  1.6664
 8859TIP3    H248069   1.119   6.705  14.064 -0.9634 -1.2574 -1.3695
 8860TIP3   OH248070   2.082   6.138   0.546 -0.0087 -0.2451  0.2830
 8860TIP3    H148071   2.082   6.043   0.559  1.4588 -0.2662  0.3205
 8860TIP3    H248072   2.124   6.150   0.461  0.0991  0.3879  0.4230
 8861TIP3   OH248073   1.358   6.004   3.587  0.3863 -0.0284 -0.0644
 8861TIP3    H148074   1.275   5.988   3.632  1.6174  0.8955  2.7399
 8861TIP3    H248075   1.415   5.932   3.615  0.1372 -1.7986 -3.5018
 8862TIP3   OH248076   4.961   3.975  11.863 -0.5088 -0.3860 -0.0863
 8862TIP3    H148077   5.045   3.984  11.908 -1.1960 -0.5873  1.2681
 8862TIP3    H248078   4.948   3.881  11.854 -1.2071 -0.4054  0.9381
 8863TIP3   OH248079   4.491   4.566   4.890 -0.0855 -0.4810  0.7570
 8863TIP3    H148080   4.569   4.533   4.847  1.5343  1.6526  1.8536
 8863TIP3    H248081   4.452   4.490   4.933  0.5573 -1.8493 -0.9742
 8864TIP3   OH248082   0.866   6.497  13.147  0.3546  0.7094 -0.8430
 8864TIP3    H148083   0.892   6.514  13.238  1.8757 -0.1917 -1.0691
 8864TIP3    H248084   0.772   6.482  13.151 -0.0277  3.0079  0.2166
 8865TIP3   OH248085   3.177   1.752   3.139  0.2842  0.0088  0.1227
 8865TIP3    H148086   3.152   1.836   3.101 -1.2520  0.1315  1.3346
 8865TIP3    H248087   3.095   1.709   3.161  1.0511 -1.6874 -0.1560
 8866TIP3   OH248088   2.449   1.717  15.328  0.4628 -0.0203 -0.0924
 8866TIP3    H148089   2.425   1.660  15.401  2.0626 -2.5486 -1.3591
 8866TIP3    H248090   2.518   1.773  15.363  0.7068 -0.7051  0.5644
 8867TIP3   OH248091   2.107   3.287   6.522 -0.0592 -0.6617 -0.0767
 8867TIP3    H148092   2.173   3.254   6.461  0.7201 -0.2063  0.5142
 8867TIP3    H248093   2.083   3.373   6.488 -0.6266 -0.9747 -0.4921
 8868TIP3   OH248094   6.075   1.461   5.456  0.0382  0.1756 -0.2570
 8868TIP3    H148095   6.156   1.471   5.407  1.0519 -1.6256  0.9631
 8868TIP3    H248096   6.084   1.521   5.530 -0.1917  0.7060 -0.6543
 8869TIP3   OH248097   5.778   0.620   4.847  0.2476  0.0632  0.2824
 8869TIP3    H148098   5.854   0.613   4.789 -0.4329  2.9728 -1.1632
 8869TIP3    H248099   5.751   0.530   4.863  1.9761 -0.9365 -1.9549
 8870TIP3   OH248100   1.244   6.502  15.646  0.0921  0.1381  0.2464
 8870TIP3    H148101   1.204   6.440  15.707  0.7513 -1.0961 -0.5452
 8870TIP3    H248102   1.170   6.538  15.596 -0.3219  0.2490  0.9229
 8871TIP3   OH248103   2.774   6.288   0.025  0.3059 -0.1990  0.3811
 8871TIP3    H148104   2.800   6.301   0.117  2.8084  1.3244 -0.4568
 8871TIP3    H248105   2.820   6.356  -0.023 -0.6916 -1.1580 -2.0939
 8872TIP3   OH248106   5.028   1.738  14.198 -0.0506  0.0095  0.0523
 8872TIP3    H148107   4.980   1.664  14.160 -0.2257 -0.3386  0.9202
 8872TIP3    H248108   5.093   1.761  14.132  0.9895 -1.8767  0.3661
 8873TIP3   OH248109   5.047   3.918   3.135 -0.5736  0.1689  0.2238
 8873TIP3    H148110   5.051   3.908   3.230 -0.8536  1.3381  0.3694
 8873TIP3    H248111   5.047   3.828   3.101  0.5297 -0.2501  1.2756
 8874TIP3   OH248112   6.780   4.924  16.591  0.3507  0.1563 -0.0993
 8874TIP3    H148113   6.751   4.902  16.503  0.3344  1.6237 -0.4788
 8874TIP3    H248114   6.699   4.924  16.643  0.2369  0.1831 -0.2750
 8875TIP3   OH248115   0.234   2.897  15.638  0.0536  0.8321  0.2260
 8875TIP3    H148116   0.326   2.881  15.655 -0.5597 -1.9268  1.5470
 8875TIP3    H248117   0.225   2.891  15.543  1.2242  1.1061  0.0888
 8876TIP3   OH248118   0.665   1.465  14.499  0.0954  0.1521 -0.4236
 8876TIP3    H148119   0.628   1.516  14.571  0.9650  1.6211 -0.9526
 8876TIP3    H248120   0.592   1.452  14.438 -0.5528 -0.7879  0.5289
 8877TIP3   OH248121   4.886   5.096  13.748  0.3832  0.2254 -0.2363
 8877TIP3    H148122   4.821   5.161  13.773 -0.3587  0.2769 -2.1552
 8877TIP3    H248123   4.835   5.017  13.730  0.6717  0.5508 -2.7634
 8878TIP3   OH248124   3.711   6.081   1.851 -0.2301  0.1782 -0.1787
 8878TIP3    H148125   3.647   6.039   1.908 -0.5323 -0.2216 -0.8076
 8878TIP3    H248126   3.691   6.049   1.763 -0.3520  1.4943 -0.6587
 8879TIP3   OH248127   4.210   0.934   2.031  0.0640 -0.2817  0.2398
 8879TIP3    H148128   4.281   0.961   2.089 -0.6351  0.4977  0.7469
 8879TIP3    H248129   4.131   0.939   2.085 -0.6097  0.5590 -0.7762
 8880TIP3   OH248130   1.208   4.276   4.272 -0.1137 -0.0172 -0.3065
 8880TIP3    H148131   1.133   4.269   4.332 -0.9857  0.1550 -1.3419
 8880TIP3    H248132   1.274   4.217   4.308 -0.3319  0.6321  1.2238
 8881TIP3   OH248133   0.485   5.607   1.535 -0.0250  0.2601 -0.3648
 8881TIP3    H148134   0.495   5.652   1.619 -2.1652 -0.1932  0.1908
 8881TIP3    H248135   0.402   5.640   1.501  1.0572  0.8726 -2.6210
 8882TIP3   OH248136   0.609   0.193   2.432 -0.0028 -0.2437 -0.4353
 8882TIP3    H148137   0.530   0.159   2.390 -0.1019 -2.4936  1.3421
 8882TIP3    H248138   0.588   0.193   2.525  0.9317  2.5130 -0.1361
 8883TIP3   OH248139   5.149   1.732  15.570  0.0287  0.3149 -0.0591
 8883TIP3    H148140   5.068   1.728  15.520  0.7053  0.2835 -1.1955
 8883TIP3    H248141   5.122   1.755  15.659 -1.5151 -2.7496  0.3735
 8884TIP3   OH248142   5.964   3.035  13.074  0.3791  0.0858 -0.2644
 8884TIP3    H148143   5.911   2.988  13.010 -0.1592  0.5906 -0.2051
 8884TIP3    H248144   6.053   3.003  13.061  0.3247  0.3967 -1.4621
 8885TIP3   OH248145   5.166   6.102  13.564 -0.0747  0.3514 -0.1506
 8885TIP3    H148146   5.163   6.133  13.473 -0.3831  0.6324 -0.0460
 8885TIP3    H248147   5.076   6.110  13.595  0.1905  1.0931  0.4519
 8886TIP3   OH248148   4.907   1.550  11.237 -0.0467  0.2733  0.3678
 8886TIP3    H148149   4.868   1.595  11.311  1.4587  1.7801  0.3138
 8886TIP3    H248150   4.903   1.614  11.166 -0.8429 -0.8984 -0.6929
 8887TIP3   OH248151   0.077   5.410  14.528 -0.2013  0.3606  0.3233
 8887TIP3    H148152  -0.015   5.416  14.553 -0.3402 -0.3802 -0.0082
 8887TIP3    H248153   0.118   5.484  14.573 -1.1215  1.2965 -0.3061
 8888TIP3   OH248154   1.515   3.877  10.881 -0.9031  0.0646 -0.3967
 8888TIP3    H148155   1.438   3.833  10.917 -0.2919 -0.2634  0.5568
 8888TIP3    H248156   1.494   3.970  10.885 -0.8235  0.0398  0.9322
 8889TIP3   OH248157   4.752   2.692   1.835  0.0363 -0.1560  0.0393
 8889TIP3    H148158   4.784   2.635   1.905 -1.3146 -0.9938  0.0242
 8889TIP3    H248159   4.729   2.632   1.764 -1.0305  0.4280 -0.1377
 8890TIP3   OH248160   3.441   0.042   0.106  0.1699  0.4172  0.0223
 8890TIP3    H148161   3.479   0.051   0.194  0.6338  1.8949 -0.2992
 8890TIP3    H248162   3.500  -0.018   0.061  0.7781  0.8153  0.2746
 8891TIP3   OH248163   5.490   5.054   0.584  0.0558  0.1900 -0.1866
 8891TIP3    H148164   5.449   5.092   0.506 -1.7301 -0.9355  0.1379
 8891TIP3    H248165   5.434   5.084   0.656 -0.2693 -1.4575  0.2766
 8892TIP3   OH248166   4.764   1.186  11.274  0.0810  0.3131  0.0301
 8892TIP3    H148167   4.687   1.189  11.217  1.2560 -2.0282 -1.8467
 8892TIP3    H248168   4.834   1.224  11.222  0.6674  0.4770  0.9159
 8893TIP3   OH248169   1.128   6.541  15.224 -0.4681 -0.2410  0.0103
 8893TIP3    H148170   1.083   6.605  15.170  0.3918  0.4501  0.0989
 8893TIP3    H248171   1.159   6.590  15.300 -1.1470 -1.0800  0.8662
 8894TIP3   OH248172   3.902   0.307  12.114  0.5703 -0.1078 -0.0837
 8894TIP3    H148173   3.979   0.324  12.060  0.9415 -0.3172  0.3801
 8894TIP3    H248174   3.937   0.284  12.200 -0.0015 -0.4512  0.0613
 8895TIP3   OH248175   0.270   5.413   6.004 -0.0292  0.5750  0.6356
 8895TIP3    H148176   0.269   5.457   6.089 -0.5488  0.3858  0.7287
 8895TIP3    H248177   0.357   5.432   5.968 -0.4473  2.1852  0.4166
 8896TIP3   OH248178   1.244   1.609  10.243  0.5876 -0.0466 -0.4528
 8896TIP3    H148179   1.265   1.647  10.158  0.1711  0.1558 -0.4716
 8896TIP3    H248180   1.294   1.528  10.247  1.5278  0.5200 -0.3976
 8897TIP3   OH248181   6.146   6.551   0.056 -0.1704 -0.0029 -0.5338
 8897TIP3    H148182   6.132   6.476   0.113 -1.2860 -1.9021 -3.1128
 8897TIP3    H248183   6.063   6.598   0.056 -0.0230  0.2657 -0.2768
 8898TIP3   OH248184   3.678   4.426  12.702 -0.3120 -0.2584  0.1834
 8898TIP3    H148185   3.765   4.464  12.687 -0.0560 -0.0965  1.9265
 8898TIP3    H248186   3.640   4.418  12.614  2.5557 -3.0271 -0.9719
 8899TIP3   OH248187   1.396   1.522  12.403  0.1345  0.5640 -0.4170
 8899TIP3    H148188   1.348   1.454  12.354  0.0062 -1.0430  1.7618
 8899TIP3    H248189   1.330   1.559  12.463  0.8641  0.5756  0.3965
 8900TIP3   OH248190   2.496   0.972  11.089 -0.2830  0.0794  0.5671
 8900TIP3    H148191   2.539   1.037  11.145  2.7266 -0.5014 -0.8847
 8900TIP3    H248192   2.431   1.022  11.040  2.0849  2.1798 -0.6853
 8901TIP3   OH248193   0.613   4.240   6.598  0.0750 -0.8479  0.3090
 8901TIP3    H148194   0.582   4.185   6.670 -2.2435 -0.8236 -0.5709
 8901TIP3    H248195   0.535   4.288   6.569  0.7756 -1.2277 -2.5113
 8902TIP3   OH248196   3.613   0.666  12.983  0.1111 -0.2814  1.0478
 8902TIP3    H148197   3.563   0.599  13.030 -0.4813  1.1097  2.4669
 8902TIP3    H248198   3.557   0.743  12.984 -0.0302 -0.2285 -2.2233
 8903TIP3   OH248199   2.262   1.294  13.355  0.0875 -0.2488 -1.1938
 8903TIP3    H148200   2.202   1.220  13.359  0.7584 -0.8575 -2.1313
 8903TIP3    H248201   2.320   1.282  13.431  0.2675 -0.7629 -1.4061
 8904TIP3   OH248202   5.839   6.027   3.824 -0.5720 -0.3106 -0.1247
 8904TIP3    H148203   5.753   6.010   3.861 -1.3261  0.4981 -1.4503
 8904TIP3    H248204   5.897   5.967   3.871 -1.6153  0.0317  1.6936
 8905TIP3   OH248205   3.591   6.503  10.284  0.1352  0.2781  0.1237
 8905TIP3    H148206   3.574   6.546  10.200  2.1302 -1.6606 -1.4100
 8905TIP3    H248207   3.514   6.449  10.300 -0.5106  1.1048 -0.1354
 8906TIP3   OH248208   3.075   3.406   3.438  0.0497  0.3553 -0.0507
 8906TIP3    H148209   3.126   3.474   3.481 -0.3807  0.8200 -0.2731
 8906TIP3    H248210   3.140   3.339   3.413  0.4134  0.4859  0.5375
 8907TIP3   OH248211   3.044   3.619   3.754  0.3503 -0.4607 -0.3434
 8907TIP3    H148212   3.023   3.644   3.664 -5.7041 -0.0298  0.7901
 8907TIP3    H248213   3.093   3.694   3.788 -0.3951  1.0198 -2.3163
 8908TIP3   OH248214   5.986   4.667  14.656 -0.3938  0.1569  0.4176
 8908TIP3    H148215   5.986   4.596  14.720  0.9688 -1.3433 -1.1637
 8908TIP3    H248216   5.907   4.652  14.605  0.8509 -1.4426 -1.1304
 8909TIP3   OH248217   3.264   6.716   1.857 -0.5582  0.5016  0.1068
 8909TIP3    H148218   3.269   6.712   1.762 -1.0506 -0.1454  0.1034
 8909TIP3    H248219   3.353   6.695   1.886 -0.3383  0.9750 -0.2114
 8910TIP3   OH248220   4.782   3.582   1.545  0.0355  0.4082 -0.2009
 8910TIP3    H148221   4.844   3.641   1.502 -0.5534  0.7211 -0.6317
 8910TIP3    H248222   4.743   3.635   1.615 -0.0393  0.3324 -0.1852
 8911TIP3   OH248223   3.542   5.242  16.424  0.1171  0.1009 -0.4554
 8911TIP3    H148224   3.482   5.208  16.358 -0.0648  2.4400 -1.5994
 8911TIP3    H248225   3.487   5.295  16.482  0.7382  0.5482 -0.2576
 8912TIP3   OH248226   0.064   0.208  12.970  0.4706  0.0986 -0.1499
 8912TIP3    H148227  -0.014   0.165  12.935 -0.3131  1.4397 -0.1024
 8912TIP3    H248228   0.058   0.196  13.064  0.5809 -0.2188 -0.1825
 8913TIP3   OH248229   2.584   4.444  15.233 -0.3162 -0.0119 -0.1488
 8913TIP3    H148230   2.544   4.442  15.320  0.9817  0.9456  0.5090
 8913TIP3    H248231   2.536   4.379  15.182  0.3674 -2.2857  1.9473
 8914TIP3   OH248232   5.896   2.231   2.260 -0.0903 -0.0002  0.0552
 8914TIP3    H148233   5.985   2.220   2.291 -0.7625 -2.0117  1.4571
 8914TIP3    H248234   5.886   2.326   2.247  1.9419  0.3397  0.7336
 8915TIP3   OH248235   1.942   1.680   2.073 -0.0937  0.2762 -0.0424
 8915TIP3    H148236   1.893   1.710   1.996  0.3134  3.3146  0.7474
 8915TIP3    H248237   2.029   1.719   2.063  0.0439  0.5348  1.8050
 8916TIP3   OH248238   3.859   4.519  15.156 -0.2892  0.5519  0.1409
 8916TIP3    H148239   3.905   4.499  15.238  2.6085  1.2695 -1.1544
 8916TIP3    H248240   3.889   4.451  15.095  1.4093  2.6010 -1.5033
 8917TIP3   OH248241   2.128   6.213  14.514 -0.2176  0.2984 -0.6386
 8917TIP3    H148242   2.074   6.280  14.555 -0.6983 -0.7118  0.4690
 8917TIP3    H248243   2.110   6.134  14.566  1.0674 -0.4444 -1.2892
 8918TIP3   OH248244   5.609   0.862  13.063  0.0869 -0.1600  0.0091
 8918TIP3    H148245   5.620   0.784  13.118 -0.0228 -2.1871 -2.6672
 8918TIP3    H248246   5.688   0.913  13.079  1.1876 -1.8509  0.2935
 8919TIP3   OH248247   3.674   5.745  12.186 -0.2396 -0.2975 -0.3282
 8919TIP3    H148248   3.726   5.670  12.215  1.0232  0.2179 -1.1727
 8919TIP3    H248249   3.605   5.754  12.252 -1.0198 -2.7647 -0.6931
 8920TIP3   OH248250   3.211   4.245  16.438 -0.0234  0.3265 -0.0362
 8920TIP3    H148251   3.149   4.283  16.375 -0.6376 -0.2335  0.2234
 8920TIP3    H248252   3.263   4.184  16.385 -0.9098 -0.5619  0.0935
 8921TIP3   OH248253   4.516   5.990  10.554  0.5902  0.5076  0.5974
 8921TIP3    H148254   4.471   6.046  10.618 -1.5622 -2.8422  2.3600
 8921TIP3    H248255   4.468   6.003  10.472 -0.6771  0.3992  1.2926
 8922TIP3   OH248256   5.417   5.229  12.988 -0.2840  0.0596 -0.1533
 8922TIP3    H148257   5.472   5.216  12.910 -1.2151  1.6620 -1.1339
 8922TIP3    H248258   5.389   5.140  13.012 -1.7303 -0.3626 -2.9798
 8923TIP3   OH248259   1.607   3.958  11.338 -0.2305  0.2157  0.2808
 8923TIP3    H148260   1.512   3.967  11.341 -0.2454 -0.1230  2.0024
 8923TIP3    H248261   1.640   4.033  11.387  0.2943 -0.5110  1.0780
 8924TIP3   OH248262   2.540   5.385   3.203 -0.1054 -0.6067  0.0617
 8924TIP3    H148263   2.629   5.420   3.205  0.1710 -1.2885 -0.0563
 8924TIP3    H248264   2.538   5.322   3.275 -0.2329 -1.2066 -0.4644
 8925TIP3   OH248265   1.394   4.021  14.457 -0.1399 -0.1364  0.2391
 8925TIP3    H148266   1.463   4.087  14.461  0.1785 -0.4982  1.0966
 8925TIP3    H248267   1.391   3.994  14.366 -0.9696  1.7676 -0.3655
 8926TIP3   OH248268   0.135   4.730  15.130  0.0345  0.7968  0.0186
 8926TIP3    H148269   0.075   4.741  15.204  1.6824  0.1978  1.5171
 8926TIP3    H248270   0.182   4.813  15.124 -0.2613  0.9270 -0.5116
 8927TIP3   OH248271   5.501   6.527   3.770  0.4061  1.2164 -0.3395
 8927TIP3    H148272   5.597   6.522   3.766  0.4539  0.8774  0.7747
 8927TIP3    H248273   5.484   6.596   3.834 -0.0280 -0.4371  1.4372
 8928TIP3   OH248274   1.903   3.584   2.396 -0.2031  0.0007 -0.4323
 8928TIP3    H148275   1.964   3.613   2.329  0.7507  2.4414  1.3635
 8928TIP3    H248276   1.920   3.490   2.406  3.7717  0.6348  0.3989
 8929TIP3   OH248277   0.887   6.349  13.981 -0.0996  0.5240 -0.0044
 8929TIP3    H148278   0.800   6.309  13.988 -0.9196  1.8666 -1.8161
 8929TIP3    H248279   0.882   6.426  14.037  1.4235 -1.5524  3.3347
 8930TIP3   OH248280   6.539   2.535  11.761  0.2052 -0.3291 -0.0075
 8930TIP3    H148281   6.479   2.467  11.731 -0.5750  0.1678  0.3540
 8930TIP3    H248282   6.625   2.507  11.731 -0.2066 -1.0692 -0.5472
 8931TIP3   OH248283   3.926   1.910   4.001 -0.3540 -0.2058 -0.9442
 8931TIP3    H148284   3.978   1.836   3.972 -1.3233 -0.8140 -1.1704
 8931TIP3    H248285   3.850   1.871   4.043 -0.6881  0.6620 -0.7214
 8932TIP3   OH248286   1.221   5.336  13.218 -0.0402 -0.4445  0.0204
 8932TIP3    H148287   1.204   5.416  13.268  1.3195 -0.3970  0.4510
 8932TIP3    H248288   1.266   5.365  13.139 -2.2430 -0.5173 -1.3404
 8933TIP3   OH248289   4.290   4.173  16.665  0.0159  0.6542  0.2409
 8933TIP3    H148290   4.309   4.152  16.756  1.1248  0.5932  0.0041
 8933TIP3    H248291   4.237   4.253  16.669  0.8368  1.1761  0.9054
 8934TIP3   OH248292   1.126   3.812   5.083 -0.1323 -0.2739  0.1189
 8934TIP3    H148293   1.118   3.863   5.002 -0.9099 -1.6892 -0.7312
 8934TIP3    H248294   1.050   3.754   5.083  0.1584 -0.7063  1.5907
 8935TIP3   OH248295   3.717   2.464  11.161 -0.5443  0.1666 -0.2978
 8935TIP3    H148296   3.627   2.461  11.192 -0.4643  1.6624  0.1976
 8935TIP3    H248297   3.733   2.557  11.143  1.2097  0.0885  0.5932
 8936TIP3   OH248298   4.026   3.202  11.412 -0.2877  0.9769 -0.0076
 8936TIP3    H148299   3.974   3.254  11.351 -1.9057 -0.6901 -0.1374
 8936TIP3    H248300   4.031   3.116  11.371  0.6947  0.4944  1.0865
 8937TIP3   OH248301   3.133   2.127   4.236  0.3995 -0.0448 -0.7776
 8937TIP3    H148302   3.227   2.124   4.253  0.5374  1.3498 -1.1317
 8937TIP3    H248303   3.107   2.036   4.226  1.8531 -0.4178 -1.4126
 8938TIP3   OH248304   3.810   0.919   5.970 -0.1084 -0.5758  0.2187
 8938TIP3    H148305   3.881   0.962   6.018  1.1685 -0.5745 -1.5360
 8938TIP3    H248306   3.834   0.826   5.970 -0.4745 -0.6712  0.2201
 8939TIP3   OH248307   1.833   5.587   2.213 -0.2179  0.6031 -0.4840
 8939TIP3    H148308   1.779   5.564   2.288  1.3682 -0.9427  0.2483
 8939TIP3    H248309   1.799   5.534   2.141 -0.5633  0.6918 -0.3859
 8940TIP3   OH248310   1.572   6.077   3.033 -0.2207  0.0427 -0.5590
 8940TIP3    H148311   1.480   6.105   3.030 -0.1829  0.0940 -1.8282
 8940TIP3    H248312   1.616   6.146   3.083 -0.7730  0.3390 -0.4677
 8941TIP3   OH248313   1.123   0.917   3.017 -0.0877 -0.0850  0.1070
 8941TIP3    H148314   1.140   0.873   2.933  1.3119 -0.1277  0.3933
 8941TIP3    H248315   1.124   1.010   2.996  0.4587 -0.0882  0.0903
 8942TIP3   OH248316   6.459   6.576  11.711  0.3733 -0.7642 -0.5116
 8942TIP3    H148317   6.500   6.577  11.798  0.5457  1.7738 -0.5261
 8942TIP3    H248318   6.366   6.565  11.728  0.1517  1.5746  0.2540
 8943TIP3   OH248319   1.148   2.085   5.168  0.6038  0.0783  0.2314
 8943TIP3    H148320   1.097   2.005   5.161  0.3636  0.1913  0.6756
 8943TIP3    H248321   1.155   2.102   5.262  1.1815  0.2415  0.1683
 8944TIP3   OH248322   2.366   0.650  12.178  0.0807 -0.0041  0.0234
 8944TIP3    H148323   2.459   0.671  12.179  0.1444 -0.2015 -0.7398
 8944TIP3    H248324   2.335   0.673  12.265  1.0885 -1.0552  0.6907
 8945TIP3   OH248325   2.773   5.427  15.937 -0.2706  0.2899  0.2650
 8945TIP3    H148326   2.735   5.340  15.946  1.0636 -0.2064  1.5309
 8945TIP3    H248327   2.720   5.483  15.993 -0.4199  0.0532  0.3576
 8946TIP3   OH248328   4.267   5.063   4.247 -0.0982  0.0218 -0.0825
 8946TIP3    H148329   4.320   4.984   4.240 -0.6949 -0.3145 -0.8939
 8946TIP3    H248330   4.331   5.133   4.261  0.5304 -0.4217 -0.6647
 8947TIP3   OH248331   6.497   2.723   2.779  0.5316 -0.2075 -0.1188
 8947TIP3    H148332   6.467   2.651   2.836 -1.4776  1.0130  0.4688
 8947TIP3    H248333   6.416   2.765   2.750  1.6528  2.2005  0.0529
 8948TIP3   OH248334   2.957   0.768   4.838  0.2892  0.4026  0.3415
 8948TIP3    H148335   2.972   0.851   4.792 -1.0254  0.9475  0.8314
 8948TIP3    H248336   2.862   0.765   4.851  0.0345 -2.1189 -1.3896
 8949TIP3   OH248337   4.229   3.450  14.381 -0.3318 -0.1576  0.3011
 8949TIP3    H148338   4.184   3.449  14.465  0.0114  1.8152  0.5500
 8949TIP3    H248339   4.162   3.475  14.317 -0.1060  0.5396  0.3317
 8950TIP3   OH248340   6.294   1.333   3.228 -0.9653  0.6740  0.1398
 8950TIP3    H148341   6.203   1.308   3.241 -1.0540  0.7081 -0.3959
 8950TIP3    H248342   6.294   1.428   3.223 -0.9349  0.6640 -0.0874
 8951TIP3   OH248343   4.662   3.432  11.664 -0.3523 -0.2865 -0.2602
 8951TIP3    H148344   4.667   3.365  11.596 -2.3522  0.1672 -0.9246
 8951TIP3    H248345   4.598   3.398  11.727  0.3270  0.0043  0.6223
 8952TIP3   OH248346   5.625   3.857   2.185  0.4658 -0.0420 -0.3498
 8952TIP3    H148347   5.696   3.839   2.123  0.3750  0.7280 -0.6952
 8952TIP3    H248348   5.584   3.772   2.200  1.0419 -0.3848 -0.6655
 8953TIP3   OH248349   4.867   2.033  12.053  0.4013 -0.5904  0.7933
 8953TIP3    H148350   4.805   1.978  12.102 -1.4194  1.7998  1.3828
 8953TIP3    H248351   4.863   2.118  12.097  1.2899  0.7053 -1.4707
 8954TIP3   OH248352   3.184   2.373  10.956  0.3393 -0.0820 -0.6970
 8954TIP3    H148353   3.269   2.411  10.933 -0.5727  1.5022 -1.6110
 8954TIP3    H248354   3.149   2.432  11.023 -0.4947 -0.1107 -1.0998
 8955TIP3   OH248355   4.845   0.272  11.610 -0.5345  0.1733 -0.1141
 8955TIP3    H148356   4.869   0.364  11.597 -0.7892  0.0577 -1.5484
 8955TIP3    H248357   4.817   0.242  11.523  0.9670 -1.6674 -0.0381
 8956TIP3   OH248358   0.323   4.268  11.330  0.0889  0.2706 -0.1161
 8956TIP3    H148359   0.265   4.304  11.397  0.1222 -0.8379  0.5217
 8956TIP3    H248360   0.276   4.193  11.295  1.4186 -1.1098  0.9321
 8957TIP3   OH248361   1.548   4.224  15.733 -0.1873  0.0292  0.2906
 8957TIP3    H148362   1.555   4.132  15.759 -1.3994  0.6245  3.1530
 8957TIP3    H248363   1.455   4.244  15.740  0.3020  2.0710  2.3886
 8958TIP3   OH248364   1.890   4.849  16.642 -0.2113 -0.1792  0.1769
 8958TIP3    H148365   1.814   4.790  16.637 -0.2030 -0.1767  0.0144
 8958TIP3    H248366   1.958   4.797  16.684 -0.2166 -0.2713  0.0701
 8959TIP3   OH248367   2.979   5.451  14.893 -0.3052  0.3063  0.4308
 8959TIP3    H148368   3.015   5.444  14.804  0.5613  2.5663  0.5279
 8959TIP3    H248369   3.053   5.428  14.950 -0.6971 -0.5754  0.6003
 8960TIP3   OH248370   1.028   3.557   2.321 -0.7027  0.8890  0.2535
 8960TIP3    H148371   1.119   3.540   2.346 -1.1092  0.4545  1.4794
 8960TIP3    H248372   0.977   3.495   2.371 -1.6297  0.4267 -1.2047
 8961TIP3   OH248373   2.324   3.889   2.998  0.8572  0.8220 -0.2264
 8961TIP3    H148374   2.276   3.930   2.927  0.3755  1.0900  0.2459
 8961TIP3    H248375   2.283   3.803   3.008  0.0545  1.2839  0.5788
 8962TIP3   OH248376   2.752   3.614  12.967 -0.8750  0.2715  0.1117
 8962TIP3    H148377   2.743   3.525  12.932  1.4631  0.2765 -0.6312
 8962TIP3    H248378   2.743   3.671  12.890  0.3311  0.5168  0.1459
 8963TIP3   OH248379   1.234   2.531   2.558  0.7755  0.2063  0.4231
 8963TIP3    H148380   1.154   2.480   2.573  0.5277  0.4285 -0.1273
 8963TIP3    H248381   1.259   2.562   2.645  0.3191  0.0528  0.6116
 8964TIP3   OH248382   6.327   2.915  12.151 -0.4091  0.4980  0.1182
 8964TIP3    H148383   6.330   2.839  12.210 -1.1668  0.0055 -0.4540
 8964TIP3    H248384   6.316   2.877  12.064  2.0709  1.1432 -0.5537
 8965TIP3   OH248385   1.852   5.160   5.259  0.2493  0.1684  0.0618
 8965TIP3    H148386   1.761   5.151   5.230 -0.4558 -0.1860  2.2220
 8965TIP3    H248387   1.845   5.184   5.351  2.3654 -2.2053  0.9336
 8966TIP3   OH248388   1.799   0.975  13.595 -0.5931  0.8392 -0.6408
 8966TIP3    H148389   1.736   0.973  13.667  0.7864  0.2987  0.6110
 8966TIP3    H248390   1.858   1.048  13.617 -0.2596  0.7830 -1.3171
 8967TIP3   OH248391   2.356   4.234   0.133  0.9039 -0.4935 -0.0864
 8967TIP3    H148392   2.371   4.139   0.126 -0.6293 -0.8398  0.6996
 8967TIP3    H248393   2.334   4.247   0.225  1.4129  0.6947 -0.1267
 8968TIP3   OH248394   1.758   2.645  13.657 -0.6227 -0.5394 -0.4369
 8968TIP3    H148395   1.807   2.616  13.734 -2.1341 -1.1194  0.3328
 8968TIP3    H248396   1.711   2.568  13.628 -0.5680 -0.1529 -1.5708
 8969TIP3   OH248397   3.777   6.410  13.498  0.1200 -0.6701  0.0724
 8969TIP3    H148398   3.775   6.475  13.429  1.9121 -0.4116  0.2164
 8969TIP3    H248399   3.709   6.347  13.475 -0.3015  0.2096 -1.1142
 8970TIP3   OH248400   4.578   0.499  15.660  0.1689 -0.3293  0.0199
 8970TIP3    H148401   4.647   0.529  15.600 -0.1389  1.6986  0.6084
 8970TIP3    H248402   4.608   0.525  15.747 -0.5817 -0.9365  0.4766
 8971TIP3   OH248403   5.156   0.166  14.848 -0.2292  0.0040  0.7325
 8971TIP3    H148404   5.116   0.195  14.930  1.4543  1.0367  1.2428
 8971TIP3    H248405   5.215   0.238  14.824  0.2207 -0.8240 -0.7277
 8972TIP3   OH248406   5.330   4.363  15.529 -0.3229  0.2394 -0.2524
 8972TIP3    H148407   5.368   4.409  15.455 -1.8155  1.1302 -0.5187
 8972TIP3    H248408   5.241   4.341  15.501 -0.2739 -1.1627  0.5726
 8973TIP3   OH248409   0.828   5.782   2.026 -0.1072 -0.5532 -0.1455
 8973TIP3    H148410   0.768   5.855   2.035  1.1707  0.2932  2.4991
 8973TIP3    H248411   0.913   5.822   2.006  0.1773 -1.4960 -0.9433
 8974TIP3   OH248412   0.059   3.344  16.375  0.7248  0.1181  0.0592
 8974TIP3    H148413   0.044   3.282  16.446 -2.7694 -0.2138 -0.7880
 8974TIP3    H248414   0.096   3.291  16.304 -1.0969 -0.8376 -0.2361
 8975TIP3   OH248415   6.002   3.759  15.047 -0.3647  0.3501 -0.4384
 8975TIP3    H148416   5.958   3.674  15.047 -1.3131  0.7534 -2.9104
 8975TIP3    H248417   6.091   3.739  15.019  0.2056 -0.0848  1.5230
 8976TIP3   OH248418   5.318   1.966   1.042 -0.1880 -0.1977 -0.2814
 8976TIP3    H148419   5.357   1.879   1.048  0.7491  0.2171 -0.2432
 8976TIP3    H248420   5.224   1.949   1.031  0.1823 -1.2575 -2.2806
 8977TIP3   OH248421   5.279   2.611  16.276  0.2289 -0.1533 -0.1578
 8977TIP3    H148422   5.253   2.527  16.314 -2.3006 -0.2616 -1.8357
 8977TIP3    H248423   5.325   2.588  16.196  1.3275  0.0846  0.3922
 8978TIP3   OH248424   4.946   6.519   4.165 -0.0772  0.5572 -0.2380
 8978TIP3    H148425   4.971   6.483   4.250  0.6062 -0.4139 -0.8311
 8978TIP3    H248426   5.029   6.540   4.122 -0.1800 -1.9315 -1.8965
 8979TIP3   OH248427   5.514   0.077  13.656 -0.1608 -0.0795 -0.3074
 8979TIP3    H148428   5.481   0.128  13.582  1.6612  0.3844 -0.8598
 8979TIP3    H248429   5.460   0.104  13.730 -1.3176  0.2533 -1.2439
 8980TIP3   OH248430   1.183   4.338  16.033  0.0587 -0.0613 -0.1979
 8980TIP3    H148431   1.207   4.328  15.941  2.5180 -0.7488  0.4487
 8980TIP3    H248432   1.099   4.384  16.031  1.1538  2.0823 -2.7179
 8981TIP3   OH248433   4.183   1.176   6.315 -0.1574 -0.1677 -0.0837
 8981TIP3    H148434   4.218   1.089   6.293  2.0570  0.1985  1.6479
 8981TIP3    H248435   4.177   1.177   6.410 -0.7022  1.3918 -0.1000
 8982TIP3   OH248436   6.539   3.592  11.610 -0.1232 -0.4988  0.2924
 8982TIP3    H148437   6.537   3.645  11.531 -1.0729 -0.6981  0.1707
 8982TIP3    H248438   6.448   3.588  11.639  0.1824 -0.5991  1.2820
 8983TIP3   OH248439   4.445   4.574  12.511  0.2877 -0.0565 -0.2674
 8983TIP3    H148440   4.380   4.602  12.446  0.9802 -0.3080 -1.0886
 8983TIP3    H248441   4.493   4.654  12.532  1.2821 -0.3009 -1.4875
 8984TIP3   OH248442   6.724   6.734  16.186  0.2716  0.0755  0.3801
 8984TIP3    H148443   6.793   6.669  16.198  0.9672  1.1706  3.2515
 8984TIP3    H248444   6.655   6.706  16.247 -0.2964  0.8976  0.1229
 8985TIP3   OH248445   2.044   4.046   3.459  0.6131 -0.0370  0.1152
 8985TIP3    H148446   2.000   4.130   3.445 -0.9328 -0.9270 -0.7313
 8985TIP3    H248447   2.113   4.065   3.523  0.9799  2.0618 -0.8189
 8986TIP3   OH248448   4.214   4.325  14.322  0.3495  0.3362  0.2351
 8986TIP3    H148449   4.286   4.337  14.384 -1.0430 -0.9567  2.2624
 8986TIP3    H248450   4.221   4.233  14.295 -0.5129  0.2010  0.4481
 8987TIP3   OH248451   3.427   0.572  11.627  0.4102  0.3709  0.1841
 8987TIP3    H148452   3.432   0.663  11.657  3.1934  0.3863 -0.0840
 8987TIP3    H248453   3.406   0.580  11.533  1.5200  0.8239 -0.0454
 8988TIP3   OH248454   0.785   4.940   2.212 -0.6026  0.6777  0.5706
 8988TIP3    H148455   0.874   4.964   2.184 -0.8380 -0.8603 -1.7302
 8988TIP3    H248456   0.773   4.987   2.295  2.1116  1.4212  0.6439
 8989TIP3   OH248457   2.513   1.410   5.635 -0.4705 -0.3240 -0.1077
 8989TIP3    H148458   2.491   1.322   5.603  1.6780 -0.7646 -0.4841
 8989TIP3    H248459   2.540   1.396   5.726  0.2260 -0.1056 -0.2822
 8990TIP3   OH248460   5.270   5.855   3.152  0.2629  0.7250 -0.6002
 8990TIP3    H148461   5.303   5.810   3.074  0.7541  2.2805 -1.3198
 8990TIP3    H248462   5.340   5.843   3.217  0.6135  0.8756 -0.9454
 8991TIP3   OH248463   5.714   6.493   0.606 -0.2950 -0.6578 -0.3438
 8991TIP3    H148464   5.771   6.507   0.531  0.0543  0.5930  0.1395
 8991TIP3    H248465   5.633   6.541   0.585  0.6624  1.7224  1.0288
 8992TIP3   OH248466   2.766   5.978  12.403  0.3120 -0.1369 -0.3023
 8992TIP3    H148467   2.751   5.971  12.308  3.4614  0.1329 -0.9112
 8992TIP3    H248468   2.700   6.041  12.432 -0.6845 -0.1436 -2.3067
 8993TIP3   OH248469   5.602   5.456   4.919 -0.1175  0.1998 -0.1340
 8993TIP3    H148470   5.595   5.429   4.827  0.3516 -1.3681  0.2644
 8993TIP3    H248471   5.626   5.549   4.915 -0.5380  0.2709 -1.5824
 8994TIP3   OH248472   4.911   3.477   0.316  0.5976  0.5599 -0.0509
 8994TIP3    H148473   4.998   3.517   0.323  0.5645  0.4888  0.9214
 8994TIP3    H248474   4.855   3.548   0.285  0.6393  1.1522  1.1576
 8995TIP3   OH248475   5.536   2.203  11.991 -0.2103 -0.9878  0.2959
 8995TIP3    H148476   5.498   2.241  11.912  0.4053 -2.0192 -0.5162
 8995TIP3    H248477   5.597   2.137  11.959 -0.1019 -1.5657  1.6433
 8996TIP3   OH248478   4.559   2.812  12.078 -0.3652  0.2181 -0.0904
 8996TIP3    H148479   4.587   2.802  11.987  1.5055 -1.7132  0.6192
 8996TIP3    H248480   4.603   2.892  12.108  2.3564 -1.2731  0.1914
 8997TIP3   OH248481   2.549   1.854   3.291 -0.5096  0.2903 -0.0959
 8997TIP3    H148482   2.580   1.932   3.336  0.2126 -0.5894  0.9829
 8997TIP3    H248483   2.499   1.887   3.216 -1.0806  1.7777  0.9069
 8998TIP3   OH248484   3.518   5.243  10.552  0.0468 -0.0001  0.2955
 8998TIP3    H148485   3.439   5.227  10.502 -1.0223 -3.4320  2.7094
 8998TIP3    H248486   3.587   5.196  10.505 -0.6663 -2.0196  1.1507
 8999TIP3   OH248487   5.763   4.195   3.422  0.2781 -0.0584 -0.2599
 8999TIP3    H148488   5.695   4.135   3.454 -1.0472  1.7089  0.3501
 8999TIP3    H248489   5.800   4.149   3.346 -2.9496 -0.2850 -1.8735
 9000TIP3   OH248490   2.469   5.238   2.314 -0.3579  0.7187  0.0355
 9000TIP3    H148491   2.441   5.259   2.403 -0.2659  0.2112  0.1893
 9000TIP3    H248492   2.469   5.322   2.268 -2.0011  0.7781  0.0707
 9001TIP3   OH248493   1.470   0.686   3.548  0.5707 -0.4507  0.9895
 9001TIP3    H148494   1.383   0.648   3.561 -0.5621  1.4728 -0.3805
 9001TIP3    H248495   1.531   0.620   3.580 -1.3834 -1.9711  1.7345
 9002TIP3   OH248496   5.727   0.256   3.743  0.3768  0.3304 -0.1300
 9002TIP3    H148497   5.703   0.235   3.653  3.5149 -0.0361 -0.9937
 9002TIP3    H248498   5.648   0.238   3.793 -0.6297 -2.3654 -2.4041
 9003TIP3   OH248499   0.946   6.476  16.005 -0.0973  0.7501 -0.0227
 9003TIP3    H148500   1.035   6.508  16.013  0.3983 -0.4340 -0.4767
 9003TIP3    H248501   0.931   6.425  16.085 -0.0984  0.3703 -0.2591
 9004TIP3   OH248502   5.519   6.102  13.095 -0.3913 -0.0545  0.0733
 9004TIP3    H148503   5.481   6.015  13.108 -2.8388  1.0529  0.8482
 9004TIP3    H248504   5.572   6.118  13.173 -1.8861  0.0845  1.0777
 9005TIP3   OH248505   5.333   2.297  15.175 -0.1346 -0.4254  0.1755
 9005TIP3    H148506   5.285   2.268  15.098 -1.0054 -0.7523  0.8291
 9005TIP3    H248507   5.270   2.348  15.225  0.2141 -0.7820  1.0001
 9006TIP3   OH248508   0.954   6.633  11.225  0.1297 -0.6108  0.1871
 9006TIP3    H148509   0.949   6.725  11.201 -1.6547 -0.9140 -0.8228
 9006TIP3    H248510   0.863   6.607  11.238  0.5407 -2.3806 -0.1934
 9007TIP3   OH248511   3.313   5.764  16.022 -0.8602  0.2769 -0.6430
 9007TIP3    H148512   3.312   5.695  16.088  0.5277  0.8449  0.0109
 9007TIP3    H248513   3.279   5.722  15.943  0.4070 -1.3264 -0.4019
 9008TIP3   OH248514   1.869   3.110   4.832  0.1591 -1.3107 -0.1164
 9008TIP3    H148515   1.874   3.204   4.815  1.1015 -1.1119  1.1404
 9008TIP3    H248516   1.889   3.070   4.747  0.5909 -0.3713 -0.4744
 9009TIP3   OH248517   5.467   6.789  12.921  0.5775 -0.3400  0.3136
 9009TIP3    H148518   5.435   6.804  12.833  2.8551 -0.6179 -0.6282
 9009TIP3    H248519   5.549   6.739  12.909  2.7340  2.4154  2.3078
 9010TIP3   OH248520   1.242   3.709  14.414  0.0111  0.0148 -0.2115
 9010TIP3    H148521   1.273   3.695  14.503  1.2999 -0.3463 -0.6963
 9010TIP3    H248522   1.153   3.742  14.425 -0.0364 -0.5016  1.1899
 9011TIP3   OH248523   6.841   2.127  14.073 -0.5163 -0.2101 -0.2169
 9011TIP3    H148524   6.925   2.148  14.031 -0.4144  1.1762  0.6099
 9011TIP3    H248525   6.864   2.066  14.143  0.1161  1.4176  1.0822
 9012TIP3   OH248526   0.054   2.163   3.742  0.0176  0.3478  0.1101
 9012TIP3    H148527   0.051   2.223   3.667 -0.3517 -0.0189 -0.1701
 9012TIP3    H248528  -0.036   2.131   3.750  0.2761 -0.3841  0.0865
 9013TIP3   OH248529   6.135   3.116   3.882 -0.7808  0.1777 -0.4960
 9013TIP3    H148530   6.075   3.042   3.872  1.3402 -1.5770 -0.9215
 9013TIP3    H248531   6.133   3.136   3.976 -0.4123 -1.3445 -0.1345
 9014TIP3   OH248532   2.105   2.144   5.146 -0.1688  0.1949  0.2568
 9014TIP3    H148533   2.109   2.226   5.197 -0.3254 -0.0641  0.6912
 9014TIP3    H248534   2.118   2.172   5.055  2.1001  0.4645  0.5973
 9015TIP3   OH248535   4.890   5.676  16.329 -0.2662 -0.6389  0.0878
 9015TIP3    H148536   4.946   5.599  16.337  0.4716  0.0880  3.1766
 9015TIP3    H248537   4.946   5.749  16.353 -1.1495  0.8657 -2.0934
 9016TIP3   OH248538   0.811   0.010  10.993  0.0098  0.2590  0.2794
 9016TIP3    H148539   0.779  -0.080  10.983 -1.3931  0.6308  1.2024
 9016TIP3    H248540   0.808   0.046  10.905  0.8340 -0.6659 -0.1502
 9017TIP3   OH248541   3.903   3.397   1.163 -0.3451  0.0746  0.2231
 9017TIP3    H148542   3.998   3.393   1.175 -0.2448 -0.8920 -0.7524
 9017TIP3    H248543   3.871   3.447   1.238  0.7150 -1.4960  1.8197
 9018TIP3   OH248544   0.803   1.892  11.785  0.1303 -0.1342 -0.8102
 9018TIP3    H148545   0.852   1.971  11.808 -1.6448  1.3300 -1.8141
 9018TIP3    H248546   0.715   1.907  11.818 -0.0151 -2.1749 -0.1410
 9019TIP3   OH248547   2.778   1.340   3.039 -0.1010  0.5243 -0.2237
 9019TIP3    H148548   2.785   1.379   2.951  0.7649  0.7022 -0.0917
 9019TIP3    H248549   2.695   1.293   3.038 -0.2106  0.7128 -1.0661
 9020TIP3   OH248550   3.352   5.131  16.197  0.4430 -0.2937  0.0842
 9020TIP3    H148551   3.420   5.084  16.148 -0.5730 -0.1672 -1.5290
 9020TIP3    H248552   3.307   5.062  16.247  0.5700 -0.6695 -0.3090
 9021TIP3   OH248553   6.411   1.015   0.596 -0.5202  0.1084 -0.1977
 9021TIP3    H148554   6.461   1.023   0.515  0.0796 -0.0065  0.1580
 9021TIP3    H248555   6.348   1.088   0.593 -0.2650  0.3132 -0.6011
 9022TIP3   OH248556   0.885   0.097  13.859 -0.3730  0.0950 -0.2914
 9022TIP3    H148557   0.870   0.084  13.766 -0.8019 -0.3228 -0.1664
 9022TIP3    H248558   0.849   0.019  13.901 -0.3280  0.3495  0.2350
 9023TIP3   OH248559   0.423   2.524   3.804  0.0144 -0.5489 -0.1548
 9023TIP3    H148560   0.399   2.444   3.757  0.0255 -1.5854  1.5125
 9023TIP3    H248561   0.518   2.522   3.810  0.0935  0.1400 -1.0012
 9024TIP3   OH248562   4.535   3.930  15.734 -0.2004  0.0478 -0.6655
 9024TIP3    H148563   4.458   3.978  15.764  0.2961  0.7653 -0.5059
 9024TIP3    H248564   4.521   3.840  15.765  0.0464  0.6351  1.2941
 9025TIP3   OH248565   3.117   2.026  15.647 -0.2554  0.1792 -0.1954
 9025TIP3    H148566   3.107   1.975  15.567  1.0479  0.2574 -0.4237
 9025TIP3    H248567   3.105   2.116  15.620 -1.2412  0.1047 -0.0320
 9026TIP3   OH248568   1.598   1.514  16.641 -0.3372 -0.0106 -0.4635
 9026TIP3    H148569   1.570   1.592  16.688  2.4974  1.4510 -0.9881
 9026TIP3    H248570   1.633   1.456  16.709 -0.8265 -0.0736 -0.2641
 9027TIP3   OH248571   2.089   3.191  14.467 -0.0490  0.3073 -0.6197
 9027TIP3    H148572   2.122   3.131  14.534 -1.9017 -1.9694 -1.5779
 9027TIP3    H248573   2.075   3.274  14.513  2.0169 -0.1266  0.9214
 9028TIP3   OH248574   1.459   0.635  15.188  0.1544  0.1387  0.6305
 9028TIP3    H148575   1.507   0.699  15.241  0.1540  0.1928  0.5671
 9028TIP3    H248576   1.513   0.625  15.109 -0.2944  0.7450  0.2270
 9029TIP3   OH248577   5.417   3.046  14.594  0.2136  0.3343 -0.1628
 9029TIP3    H148578   5.409   3.133  14.632 -1.3832 -0.4904  1.6103
 9029TIP3    H248579   5.508   3.022  14.606  0.8383  1.9552 -1.2656
 9030TIP3   OH248580   1.762   5.197   5.912 -0.3070  0.1333  0.3764
 9030TIP3    H148581   1.850   5.165   5.887 -0.3283 -0.6934  1.2877
 9030TIP3    H248582   1.702   5.141   5.862 -0.3179  0.3897  0.1030
 9031TIP3   OH248583   2.795   3.068  16.190  0.8266  0.5095  0.0830
 9031TIP3    H148584   2.854   3.106  16.125 -2.2068  0.6188 -2.8426
 9031TIP3    H248585   2.770   2.983  16.153 -1.7809  1.0156  0.5032
 9032TIP3   OH248586   5.613   1.503   0.942  0.0963 -0.1397 -0.5943
 9032TIP3    H148587   5.683   1.438   0.934  0.5048  0.3906 -1.5351
 9032TIP3    H248588   5.656   1.580   0.981 -0.2358 -0.2019 -0.0898
 9033TIP3   OH248589   2.337   5.801  17.028 -0.2074  0.3000  0.6648
 9033TIP3    H148590   2.405   5.738  17.052  1.0941  1.8474  1.1809
 9033TIP3    H248591   2.377   5.856  16.961 -1.1570  0.8879  0.5556
 9034TIP3   OH248592   0.409   4.697  16.048 -0.0160 -0.4895 -0.2912
 9034TIP3    H148593   0.441   4.663  16.131  0.9401 -0.7718 -0.7650
 9034TIP3    H248594   0.403   4.792  16.062  0.5108 -0.4915 -0.0141
 9035TIP3   OH248595   6.701   0.687   5.064  0.0984  0.3710 -0.0867
 9035TIP3    H148596   6.700   0.781   5.047  0.6263  0.2892 -0.6173
 9035TIP3    H248597   6.658   0.677   5.148  1.0450  1.2094  0.5157
 9036TIP3   OH248598   3.023   5.252  12.350  0.4650 -0.6287 -1.0096
 9036TIP3    H148599   2.940   5.292  12.375  0.9582 -0.2249  0.0400
 9036TIP3    H248600   3.007   5.158  12.354  0.4070 -0.5785  0.4962
 9037TIP3   OH248601   0.733   3.096  14.999 -0.0627  0.7265 -0.0217
 9037TIP3    H148602   0.706   3.055  14.916  0.6581  1.1535 -0.4824
 9037TIP3    H248603   0.654   3.095  15.053 -0.0580 -1.3461  0.0365
 9038TIP3   OH248604   0.739   1.673  11.515 -0.0698  0.1568  0.2865
 9038TIP3    H148605   0.652   1.691  11.550  0.0281  0.8204  0.1949
 9038TIP3    H248606   0.778   1.759  11.501  0.5528 -0.1329  0.1975
 9039TIP3   OH248607   5.163   6.487   0.594 -0.8016 -0.2467  0.0665
 9039TIP3    H148608   5.151   6.489   0.499  1.2010  2.2762 -0.2628
 9039TIP3    H248609   5.104   6.555   0.627 -1.3741 -1.0038  0.6147
 9040TIP3   OH248610   2.823   0.336   0.249  0.0494  0.2445 -0.0657
 9040TIP3    H148611   2.868   0.377   0.323  0.4307  0.4430 -0.3982
 9040TIP3    H248612   2.738   0.380   0.244  0.2926  0.7100 -0.1639
 9041TIP3   OH248613   2.372   3.147   1.214  0.2852 -0.2314 -0.4014
 9041TIP3    H148614   2.385   3.057   1.243 -1.7987 -0.4645 -0.0424
 9041TIP3    H248615   2.295   3.143   1.158  0.4707  1.2502 -0.7994
 9042TIP3   OH248616   6.634   0.909  14.454 -0.1365  0.3903  0.0715
 9042TIP3    H148617   6.608   0.846  14.387  3.8443  0.0636 -1.4468
 9042TIP3    H248618   6.551   0.942  14.490 -2.4579 -1.0422 -3.4217
 9043TIP3   OH248619   0.433   1.763  13.517 -0.2061  0.1682 -0.1489
 9043TIP3    H148620   0.354   1.710  13.517  0.1533 -0.4057 -1.4797
 9043TIP3    H248621   0.402   1.853  13.507 -0.6634 -0.1833 -2.4556
 9044TIP3   OH248622   2.128   2.877  11.568 -0.6544  0.0943 -0.8294
 9044TIP3    H148623   2.044   2.847  11.533 -0.8397 -0.5204  0.0914
 9044TIP3    H248624   2.103   2.941  11.636 -0.3461  0.5242 -1.1194
 9045TIP3   OH248625   5.591   3.142   2.774 -0.1732  0.9286 -0.4729
 9045TIP3    H148626   5.674   3.163   2.816  0.1822 -1.0712 -0.0702
 9045TIP3    H248627   5.528   3.203   2.814  0.5955  0.6406  1.2708
 9046TIP3   OH248628   0.392   5.966  11.913 -0.0340 -0.1065  0.1341
 9046TIP3    H148629   0.427   5.947  12.000 -0.8652  0.1779  0.5363
 9046TIP3    H248630   0.335   5.891  11.894  0.7007 -0.5238 -0.4801
 9047TIP3   OH248631   1.762   2.717   2.046  0.0245  0.0634  0.0556
 9047TIP3    H148632   1.696   2.668   2.096 -0.2702 -0.1820 -0.5578
 9047TIP3    H248633   1.843   2.669   2.061 -0.3597 -0.9745 -0.9864
 9048TIP3   OH248634   6.639   1.034   6.428  0.1768  0.2479  0.4601
 9048TIP3    H148635   6.695   1.107   6.454 -0.0733  0.6108 -0.0219
 9048TIP3    H248636   6.556   1.050   6.471  0.0887  0.3026  0.2704
 9049TIP3   OH248637   6.345   3.809  11.143  0.0128 -0.9685  0.5762
 9049TIP3    H148638   6.250   3.815  11.135  0.0736 -0.8699 -0.2322
 9049TIP3    H248639   6.376   3.897  11.125  0.2300 -0.8447  1.5099
 9050TIP3   OH248640   3.586   0.449   2.166 -0.1487  0.2606  0.2227
 9050TIP3    H148641   3.582   0.355   2.145 -0.7721  0.5429 -0.9913
 9050TIP3    H248642   3.603   0.451   2.260  2.2967 -1.0910 -0.0746
 9051TIP3   OH248643   1.315   5.263  12.059 -0.3471  0.0357  0.3279
 9051TIP3    H148644   1.274   5.341  12.096 -0.2134  0.9129 -1.2864
 9051TIP3    H248645   1.243   5.216  12.017 -0.6167 -1.2943  2.1589
 9052TIP3   OH248646   4.633   1.098  15.935  0.5467 -0.6300 -0.0789
 9052TIP3    H148647   4.707   1.159  15.928  0.9046 -1.0350  0.1598
 9052TIP3    H248648   4.605   1.085  15.844 -0.6922  1.2795 -0.0161
 9053TIP3   OH248649   4.257   2.314   4.561 -0.0126 -0.0473 -0.3150
 9053TIP3    H148650   4.171   2.345   4.590 -0.7452 -0.6342 -1.7241
 9053TIP3    H248651   4.315   2.390   4.570 -0.5936  0.2776  0.9257
 9054TIP3   OH248652   2.657   1.642  14.728  0.0008  0.5380  0.2766
 9054TIP3    H148653   2.715   1.572  14.698  0.9250  0.3996  2.1805
 9054TIP3    H248654   2.664   1.638  14.824 -1.4661  1.9685  0.4755
 9055TIP3   OH248655   0.489   0.185  15.929  0.2591  0.6695  0.1950
 9055TIP3    H148656   0.570   0.232  15.907  2.2070 -2.6979 -0.5148
 9055TIP3    H248657   0.451   0.163  15.844 -0.5095  0.7497  0.5151
 9056TIP3   OH248658   3.596   1.084   0.876  0.0443 -0.3579 -0.1685
 9056TIP3    H148659   3.659   1.074   0.947 -1.6610  0.2675  1.5339
 9056TIP3    H248660   3.639   1.143   0.814  0.5421  1.3824  1.7271
 9057TIP3   OH248661   2.468   2.164  15.696 -0.1278 -0.3784 -0.4860
 9057TIP3    H148662   2.430   2.235  15.746 -1.3182 -0.9876 -0.4962
 9057TIP3    H248663   2.400   2.139  15.633 -0.2600 -2.3847  0.3879
 9058TIP3   OH248664   0.655   3.523   5.428  0.7601  0.3171  0.1586
 9058TIP3    H148665   0.597   3.527   5.352 -0.1999 -1.7021  0.7195
 9058TIP3    H248666   0.639   3.606   5.474 -1.8062 -0.1967  0.3556
 9059TIP3   OH248667   5.003   4.188   3.118 -0.0758  0.1709 -0.0111
 9059TIP3    H148668   4.912   4.208   3.143  0.4869  0.9481  1.5396
 9059TIP3    H248669   5.007   4.092   3.121 -1.3793 -0.0487 -2.2698
 9060TIP3   OH248670   3.420   6.404  12.635 -0.1711  0.4999  0.2557
 9060TIP3    H148671   3.429   6.464  12.561  0.3201 -0.8515 -0.8205
 9060TIP3    H248672   3.327   6.380  12.634 -0.1464  0.4071  0.0041
 9061TIP3   OH248673   5.640   5.550  14.641 -0.4768 -0.5511  0.3708
 9061TIP3    H148674   5.585   5.576  14.568  0.8623  1.2929 -0.0866
 9061TIP3    H248675   5.715   5.506  14.600 -1.8611 -3.7322  1.0313
 9062TIP3   OH248676   6.156   4.121  12.908  0.3033 -0.3447  0.4393
 9062TIP3    H148677   6.067   4.113  12.942  0.2495 -0.0687  0.3651
 9062TIP3    H248678   6.188   4.203  12.945  0.5155 -0.4275  0.4397
 9063TIP3   OH248679   1.190   6.353  11.574  0.8616 -0.7894  0.1151
 9063TIP3    H148680   1.166   6.411  11.646 -0.7956  1.3857 -2.0290
 9063TIP3    H248681   1.226   6.412  11.508  1.0990 -2.5344 -1.3743
 9064TIP3   OH248682   3.797   1.630  14.189  0.3407 -0.4806 -0.1127
 9064TIP3    H148683   3.835   1.575  14.119  2.0370  1.6023 -0.9386
 9064TIP3    H248684   3.831   1.591  14.269  2.4906 -0.0355 -0.7362
 9065TIP3   OH248685   1.944   3.884   3.903  0.0552  0.1416  0.3019
 9065TIP3    H148686   1.906   3.845   3.824  0.4686  0.3152  0.0124
 9065TIP3    H248687   2.037   3.860   3.899  0.6866  2.5034 -0.7511
 9066TIP3   OH248688   5.410   4.951  16.246  0.2531  0.4496  0.2126
 9066TIP3    H148689   5.378   4.952  16.156  1.3236  0.9799 -0.1894
 9066TIP3    H248690   5.332   4.945  16.301 -0.3674 -1.2162 -0.7720
 9067TIP3   OH248691   5.738   5.306   2.025  0.2943 -0.9360  0.0187
 9067TIP3    H148692   5.723   5.380   1.965  0.4313 -0.5502  0.4540
 9067TIP3    H248693   5.668   5.244   2.004 -1.1419  0.2229  1.0656
 9068TIP3   OH248694   6.393   2.071   5.257  0.2972 -0.2989 -0.1445
 9068TIP3    H148695   6.467   2.067   5.318  1.1034 -0.7952 -1.1182
 9068TIP3    H248696   6.351   1.985   5.264 -0.3268  0.0521  0.5554
 9069TIP3   OH248697   5.881   6.030   2.121 -0.4666  0.0040  0.2819
 9069TIP3    H148698   5.973   6.053   2.138 -0.9920  1.9255  0.7558
 9069TIP3    H248699   5.884   5.939   2.090  1.5889  0.0435  0.2509
 9070TIP3   OH248700   5.334   3.379  14.307 -0.1153  0.7146  0.2449
 9070TIP3    H148701   5.380   3.302  14.275 -2.0396 -0.1419 -0.6596
 9070TIP3    H248702   5.403   3.443  14.325  1.5325 -1.1747  0.9897
 9071TIP3   OH248703   4.077   0.442  14.614  0.1212  0.6542  1.2762
 9071TIP3    H148704   4.012   0.496  14.658 -1.0656 -1.5122  2.3364
 9071TIP3    H248705   4.106   0.494  14.540 -2.4110  1.9392  1.1043
 9072TIP3   OH248706   1.684   6.118   3.457 -0.2658 -0.1631 -0.1774
 9072TIP3    H148707   1.753   6.055   3.477 -0.2032 -0.3736 -1.0065
 9072TIP3    H248708   1.682   6.177   3.532  2.0208  0.9094 -0.8751
 9073TIP3   OH248709   3.590   3.384   3.256 -0.4674  0.2974  0.2915
 9073TIP3    H148710   3.571   3.334   3.335 -0.7976  0.1926  0.1501
 9073TIP3    H248711   3.635   3.462   3.287  2.0268 -1.0350  0.3649
 9074TIP3   OH248712   5.329   2.542   1.438  0.1328  0.3699 -0.0741
 9074TIP3    H148713   5.285   2.488   1.503  1.0266  0.3583  0.5323
 9074TIP3    H248714   5.296   2.631   1.453  0.8747  0.4968  0.8914
 9075TIP3   OH248715   5.978   3.765   5.723  0.6784 -0.2686 -0.0320
 9075TIP3    H148716   6.013   3.676   5.718  0.4181 -0.3773  0.0739
 9075TIP3    H248717   6.031   3.807   5.791 -0.1790 -0.7925  0.9774
 9076TIP3   OH248718   2.941   2.480   5.963 -0.5026 -0.2582  0.0564
 9076TIP3    H148719   3.020   2.433   5.988  0.2584  0.7604 -0.3671
 9076TIP3    H248720   2.964   2.573   5.971 -1.1612  0.0816 -1.5113
 9077TIP3   OH248721   1.026   4.146   4.416  0.2938 -0.2180  0.1711
 9077TIP3    H148722   0.938   4.177   4.394  0.3211 -0.0296  0.3154
 9077TIP3    H248723   1.023   4.134   4.511  1.1890  2.3491  0.6050
 9078TIP3   OH248724   4.330   4.943   0.489  0.3705  0.2527  0.3111
 9078TIP3    H148725   4.358   5.019   0.539  2.6027 -1.0669  1.2167
 9078TIP3    H248726   4.330   4.871   0.553 -2.9032 -0.3635 -0.2003
 9079TIP3   OH248727   4.500   2.243   5.757  0.3540  0.1914  0.0887
 9079TIP3    H148728   4.534   2.304   5.822  0.8064 -0.1619  0.1917
 9079TIP3    H248729   4.407   2.262   5.752  0.8716  2.9601 -2.0332
 9080TIP3   OH248730   4.039   6.011  13.010  0.2723  0.0562 -0.0973
 9080TIP3    H148731   3.946   6.033  13.007  0.1973  0.5236  3.0643
 9080TIP3    H248732   4.081   6.077  12.954 -1.0557  1.5138  0.5458
 9081TIP3   OH248733   3.085   6.056   5.717  0.2298  0.2718  0.6133
 9081TIP3    H148734   3.036   5.982   5.753  1.2993  0.1920  1.9992
 9081TIP3    H248735   3.066   6.054   5.623 -1.5481 -0.3735  0.9554
 9082TIP3   OH248736   6.757   2.352   4.687 -0.0577  0.0232  0.2471
 9082TIP3    H148737   6.811   2.274   4.701 -2.5717 -2.3299 -1.8577
 9082TIP3    H248738   6.677   2.334   4.736 -0.0722  2.1162  1.0577
 9083TIP3   OH248739   5.301   1.573  14.264 -0.7844  0.2738  0.4650
 9083TIP3    H148740   5.394   1.594  14.253 -0.8275  1.2250  1.7427
 9083TIP3    H248741   5.261   1.600  14.182 -0.2115  1.6259  0.6009
 9084TIP3   OH248742   0.251   6.499  10.977 -0.3404 -0.0917  0.1308
 9084TIP3    H148743   0.158   6.511  10.998  0.2393  1.6779  2.0180
 9084TIP3    H248744   0.252   6.431  10.910 -3.0015 -0.0689 -0.0287
 9085TIP3   OH248745   5.425   4.618   1.037 -0.2395  0.3960  0.5791
 9085TIP3    H148746   5.484   4.693   1.034 -0.0471  0.2039 -1.1453
 9085TIP3    H248747   5.391   4.610   0.948 -0.5998 -1.3045  0.8393
 9086TIP3   OH248748   0.576   0.486  12.125 -0.2775 -0.1642 -0.0899
 9086TIP3    H148749   0.554   0.466  12.034  0.5809 -1.4908 -0.0339
 9086TIP3    H248750   0.601   0.578  12.125  0.3439 -0.3194 -1.3283
 9087TIP3   OH248751   5.014   5.692   0.382  0.5243 -0.0163 -0.4399
 9087TIP3    H148752   4.986   5.725   0.467 -2.7193  0.1646 -1.4113
 9087TIP3    H248753   5.064   5.764   0.343  0.0216  0.8191  0.4179
 9088TIP3   OH248754   6.801   3.931  14.471  0.1414  0.4856  0.5832
 9088TIP3    H148755   6.739   4.002  14.451 -0.7681 -0.6231 -0.6558
 9088TIP3    H248756   6.878   3.951  14.417 -1.2906 -1.0498 -2.2669
 9089TIP3   OH248757   6.475   6.089  12.249  0.2906  0.4117 -0.1551
 9089TIP3    H148758   6.481   6.100  12.154  2.4636  0.0884 -0.1078
 9089TIP3    H248759   6.552   6.037  12.273 -0.0763  0.6730  1.8232
 9090TIP3   OH248760   1.679   1.747  14.541  0.3447  0.1897 -0.0409
 9090TIP3    H148761   1.593   1.730  14.505 -1.0685  2.3608  1.9980
 9090TIP3    H248762   1.724   1.797  14.472  0.1859 -1.3241 -1.2840
 9091TIP3   OH248763   2.807   5.619  15.447  0.0459  0.2243 -0.1065
 9091TIP3    H148764   2.860   5.684  15.401 -1.3159  0.3867 -1.5442
 9091TIP3    H248765   2.719   5.657  15.448 -0.6924 -1.4137 -0.6062
 9092TIP3   OH248766   5.416   1.146  15.933 -0.0409  0.3428  0.5566
 9092TIP3    H148767   5.349   1.102  15.985  0.2942  0.2265  0.8986
 9092TIP3    H248768   5.398   1.240  15.945 -0.1113  0.3130  0.6837
 9093TIP3   OH248769   5.712   2.498  12.909 -0.1395  0.2626 -0.2910
 9093TIP3    H148770   5.754   2.527  12.828  2.0750 -0.3358  0.5633
 9093TIP3    H248771   5.664   2.574  12.941  0.1842  0.9519 -1.4163
 9094TIP3   OH248772   5.104   6.212  14.663 -0.0022 -0.2975 -0.1367
 9094TIP3    H148773   5.023   6.258  14.687  0.2562  0.0893  0.0009
 9094TIP3    H248774   5.145   6.190  14.746 -0.0708 -0.6879 -0.2036
 9095TIP3   OH248775   0.237   5.926  12.294 -0.1307 -0.9155  0.3792
 9095TIP3    H148776   0.221   5.970  12.377 -0.9712 -1.7597  0.6803
 9095TIP3    H248777   0.195   5.981  12.228  0.2313 -0.4289  0.5523
 9096TIP3   OH248778   4.850   4.382   0.282 -0.4072 -0.2834 -0.1270
 9096TIP3    H148779   4.891   4.365   0.367 -0.4081  0.6754  0.0835
 9096TIP3    H248780   4.769   4.332   0.284 -0.9437  0.5737  0.8971
 9097TIP3   OH248781   2.770   0.247  15.801  0.1566  0.0353  0.1112
 9097TIP3    H148782   2.753   0.311  15.871 -1.2408  0.1761 -0.3146
 9097TIP3    H248783   2.801   0.169  15.847 -0.3150  0.2727  0.8514
 9098TIP3   OH248784   2.283   2.263   6.099  0.1786  0.6872 -0.1540
 9098TIP3    H148785   2.303   2.193   6.160 -0.4596 -0.8987 -1.6844
 9098TIP3    H248786   2.209   2.309   6.139  0.6572  0.5640  0.9029
 9099TIP3   OH248787   3.391   6.388   4.493  0.3620  0.4059  0.3156
 9099TIP3    H148788   3.314   6.445   4.488  1.6190  2.2034  0.8044
 9099TIP3    H248789   3.412   6.384   4.586  0.1699 -1.0989  0.3282
 9100TIP3   OH248790   5.667   3.005  13.090  0.5095  0.5313 -0.0546
 9100TIP3    H148791   5.577   3.009  13.123 -0.3963 -1.6898 -1.9502
 9100TIP3    H248792   5.677   3.084  13.038  0.4850  1.9218  1.9705
 9101TIP3   OH248793   6.701   0.176  11.221 -0.4205 -0.1035  0.2717
 9101TIP3    H148794   6.751   0.095  11.207 -0.6287 -0.3970  1.1589
 9101TIP3    H248795   6.747   0.220  11.292  0.3077  1.0891 -0.8838
 9102TIP3   OH248796   6.378   5.678   4.424  0.1250 -0.0605 -0.2429
 9102TIP3    H148797   6.334   5.596   4.446  2.1144 -1.0723  0.1800
 9102TIP3    H248798   6.369   5.685   4.329  1.0270 -1.4836 -0.4709
 9103TIP3   OH248799   5.945   6.274  11.431  0.1901  0.3047 -0.2195
 9103TIP3    H148800   6.039   6.263  11.414  0.0305 -0.5940 -0.5568
 9103TIP3    H248801   5.929   6.367  11.413  1.1551  0.6519  0.5779
 9104TIP3   OH248802   4.234   0.167  16.889  0.1824 -0.4057 -0.3768
 9104TIP3    H148803   4.236   0.154  16.984 -1.9524  0.9446 -0.0751
 9104TIP3    H248804   4.326   0.180  16.864  0.8088 -1.0609  1.4490
 9105TIP3   OH248805   1.125   2.654  17.067 -0.0587 -0.1948 -0.2322
 9105TIP3    H148806   1.136   2.749  17.071  1.2399 -0.3398  0.0281
 9105TIP3    H248807   1.082   2.639  16.983 -0.4157  0.6261 -0.2136
 9106TIP3   OH248808   2.619   2.194   1.048  0.0485  0.1390  0.0011
 9106TIP3    H148809   2.596   2.107   1.078 -0.0798  0.5945  1.2952
 9106TIP3    H248810   2.568   2.207   0.968  1.3952 -1.6091 -1.2036
 9107TIP3   OH248811   3.311   6.698  14.854 -0.4286  0.0656 -0.0654
 9107TIP3    H148812   3.392   6.745  14.870 -0.0288 -0.5985 -0.1167
 9107TIP3    H248813   3.243   6.766  14.855 -0.1188  0.3930  1.8916
 9108TIP3   OH248814   6.198   0.502  10.455 -0.6954 -0.2861 -0.5058
 9108TIP3    H148815   6.112   0.506  10.497  0.0359  0.6488  1.0086
 9108TIP3    H248816   6.250   0.447  10.514 -0.1966 -0.7012 -1.3215
 9109TIP3   OH248817   6.343   2.041  11.355  0.1815 -0.2868 -0.3901
 9109TIP3    H148818   6.381   2.062  11.269  0.2008  2.1172  0.1172
 9109TIP3    H248819   6.252   2.020  11.337 -0.4967  2.6460 -0.8724
 9110TIP3   OH248820   6.733   2.034   4.529  0.5044  0.1419  0.3171
 9110TIP3    H148821   6.664   2.044   4.596  0.0303 -0.7766 -0.0217
 9110TIP3    H248822   6.809   2.002   4.577  0.4137  0.2660  0.5457
 9111TIP3   OH248823   0.282   2.295  13.663  0.1504  0.0041  0.1938
 9111TIP3    H148824   0.373   2.294  13.632 -0.1595  1.1655 -0.8695
 9111TIP3    H248825   0.234   2.337  13.591 -1.3117 -1.0396  0.5278
 9112TIP3   OH248826   0.693   6.282  16.771  0.3546  0.1668  0.3763
 9112TIP3    H148827   0.684   6.375  16.792 -1.1265  0.7609 -2.4682
 9112TIP3    H248828   0.650   6.237  16.844 -3.7756  2.0129 -0.6332
 9113TIP3   OH248829   5.010   5.886   1.368 -0.0516  0.6696  0.0002
 9113TIP3    H148830   5.044   5.956   1.312 -1.6191  0.5767 -1.1557
 9113TIP3    H248831   5.015   5.807   1.314 -0.9652  0.4442  0.2237
 9114TIP3   OH248832   3.299   6.148   1.558  0.1765 -0.0078  0.3007
 9114TIP3    H148833   3.352   6.226   1.546 -0.5910  0.2730 -1.6117
 9114TIP3    H248834   3.209   6.176   1.541 -0.0663 -1.3631 -0.8582
 9115TIP3   OH248835   2.597   5.516  12.615 -0.2077 -0.4471  0.7529
 9115TIP3    H148836   2.575   5.517  12.522 -0.8816  0.0619  0.9134
 9115TIP3    H248837   2.522   5.556  12.658  1.1657  1.7960  1.2677
 9116TIP3   OH248838   4.924   6.305  12.789  0.0589  0.6879 -0.1141
 9116TIP3    H148839   4.849   6.252  12.765 -0.3152  1.7241 -1.3510
 9116TIP3    H248840   4.986   6.243  12.828 -0.4207 -0.6315 -1.3577
 9117TIP3   OH248841   3.098   6.571   0.821  0.2922 -0.1983  0.4315
 9117TIP3    H148842   3.131   6.623   0.747 -0.5624 -0.3427 -0.0718
 9117TIP3    H248843   3.065   6.635   0.883 -1.5115 -0.1112 -0.5484
 9118TIP3   OH248844   4.140   1.738  11.738 -0.3131  0.1938  0.1589
 9118TIP3    H148845   4.216   1.684  11.758 -0.3904  0.5313  1.4750
 9118TIP3    H248846   4.120   1.719  11.647  1.2012 -0.0668 -0.1355
 9119TIP3   OH248847   6.289   6.035  13.027 -0.1781  0.4328  0.3126
 9119TIP3    H148848   6.309   5.943  13.008 -0.0243 -0.3157  3.5306
 9119TIP3    H248849   6.372   6.072  13.057 -0.9617  0.5344  2.5512
 9120TIP3   OH248850   3.846   3.915  13.287 -0.3888  0.1420 -0.2547
 9120TIP3    H148851   3.869   3.990  13.233  2.1221 -0.7474 -0.5676
 9120TIP3    H248852   3.790   3.951  13.356 -0.5861  1.9694 -1.3089
 9121TIP3   OH248853   5.130   3.306   2.487  0.3321  0.4198 -0.2463
 9121TIP3    H148854   5.104   3.368   2.419 -0.6151  0.9618  0.5710
 9121TIP3    H248855   5.096   3.222   2.457  1.3389  0.3313 -1.2078
 9122TIP3   OH248856   1.419   5.132   5.526 -0.5695 -0.1944 -0.6783
 9122TIP3    H148857   1.428   5.067   5.457 -1.8739  0.2095 -1.2605
 9122TIP3    H248858   1.427   5.082   5.607  0.8706 -0.6918 -1.0983
 9123TIP3   OH248859   0.185   5.602  13.870  0.3121 -0.7975 -0.4032
 9123TIP3    H148860   0.203   5.525  13.923  0.7516  0.1616  0.8915
 9123TIP3    H248861   0.091   5.600  13.854  0.2121 -1.2042  0.2294
 9124TIP3   OH248862   0.139   4.886  15.989 -0.8469 -0.2944 -0.2498
 9124TIP3    H148863   0.052   4.852  15.969 -0.2093 -2.1426 -0.0823
 9124TIP3    H248864   0.149   4.873  16.083  0.8278 -3.3727 -0.7124
 9125TIP3   OH248865   0.163   5.903   2.602 -0.1921  0.5203 -0.3907
 9125TIP3    H148866   0.198   5.860   2.524 -1.0976  0.2783 -0.6804
 9125TIP3    H248867   0.168   5.836   2.670  2.1688  1.2407  0.2477
 9126TIP3   OH248868   2.161   3.375   4.515 -0.3523 -0.2695 -0.2652
 9126TIP3    H148869   2.203   3.338   4.593  0.4850 -0.8529 -0.9661
 9126TIP3    H248870   2.129   3.299   4.466  0.1162 -0.0047 -1.0195
 9127TIP3   OH248871   1.347   3.545  13.681 -0.3446  0.1387 -0.1692
 9127TIP3    H148872   1.408   3.473  13.665 -0.1832  0.0967  0.6401
 9127TIP3    H248873   1.403   3.620  13.702 -0.3865  1.0360 -2.7923
 9128TIP3   OH248874   4.242   4.054  15.678 -0.0869  0.3456 -0.2776
 9128TIP3    H148875   4.185   3.988  15.638 -0.0281  1.2863 -1.9749
 9128TIP3    H248876   4.302   4.080  15.608 -0.4756  2.6054  0.1691
 9129TIP3   OH248877   4.239   1.491  12.981 -0.0888 -0.3766  0.0400
 9129TIP3    H148878   4.321   1.462  13.020  0.6593  0.5993 -0.7631
 9129TIP3    H248879   4.226   1.432  12.906 -0.6077 -1.1008  0.6741
 9130TIP3   OH248880   0.682   1.292  11.710 -1.0308 -0.4443  0.3757
 9130TIP3    H148881   0.594   1.286  11.747 -1.1717 -0.5573  0.0206
 9130TIP3    H248882   0.738   1.316  11.785 -1.6047  1.3230  0.2993
 9131TIP3   OH248883   6.017   3.070   2.521  0.6260 -0.3205  0.1304
 9131TIP3    H148884   6.089   3.131   2.502  2.8914 -2.8716 -0.0495
 9131TIP3    H248885   5.979   3.050   2.436  0.1800  0.4231  0.1426
 9132TIP3   OH248886   5.152   6.596  13.792 -0.5034 -0.2768 -0.1905
 9132TIP3    H148887   5.142   6.503  13.812  0.7621 -0.2774  0.5044
 9132TIP3    H248888   5.123   6.604  13.700  1.3920 -1.7489 -0.9792
 9133TIP3   OH248889   0.408   2.270   5.654  0.1456  0.5422  0.1708
 9133TIP3    H148890   0.364   2.325   5.589 -0.5239 -0.7154 -0.4792
 9133TIP3    H248891   0.337   2.224   5.698  0.6114  1.1955  1.6442
 9134TIP3   OH248892   5.594   0.849   4.544 -0.6910  0.3402 -0.5608
 9134TIP3    H148893   5.611   0.923   4.486  0.9906  0.3097 -0.1536
 9134TIP3    H248894   5.610   0.772   4.490  0.3773  0.3089 -0.2186
 9135TIP3   OH248895   6.124   1.646  16.306 -0.1057  0.3833  0.3714
 9135TIP3    H148896   6.039   1.685  16.286 -0.1311  1.0914  1.7797
 9135TIP3    H248897   6.183   1.720  16.315  0.0143  0.0821  2.3349
 9136TIP3   OH248898   0.317   0.421   3.296 -0.4758  0.3841  0.6089
 9136TIP3    H148899   0.246   0.359   3.310 -0.8234 -0.1284 -2.6826
 9136TIP3    H248900   0.394   0.367   3.281 -0.6391  0.6461 -1.5535
 9137TIP3   OH248901   3.812   2.969   3.925  0.2218 -0.3309  0.0569
 9137TIP3    H148902   3.900   2.988   3.959  0.7800 -0.1394 -1.4013
 9137TIP3    H248903   3.753   2.998   3.995  1.3083 -0.4946  1.0871
 9138TIP3   OH248904   1.047   4.641  10.868  0.6804  0.0162  0.3613
 9138TIP3    H148905   1.002   4.557  10.862  1.0193 -0.1982  0.7402
 9138TIP3    H248906   1.024   4.674  10.955 -2.7410  2.2366 -1.1541
 9139TIP3   OH248907   6.328   0.844   3.363  0.3415 -0.4873 -0.3134
 9139TIP3    H148908   6.329   0.940   3.368 -1.0555 -0.4330 -0.6812
 9139TIP3    H248909   6.362   0.824   3.276  3.4526 -0.4962  0.7818
 9140TIP3   OH248910   5.855   2.330   4.071 -0.0463 -0.1299  0.8451
 9140TIP3    H148911   5.872   2.401   4.132 -1.7463  1.9291 -0.8975
 9140TIP3    H248912   5.888   2.362   3.987  0.1669 -1.8926  0.2142
 9141TIP3   OH248913   1.019   2.203   1.031 -0.2420  0.1324 -0.0071
 9141TIP3    H148914   1.012   2.181   0.938 -0.9038 -0.4143  0.1717
 9141TIP3    H248915   1.109   2.180   1.054 -1.1031 -3.3004  0.3931
 9142TIP3   OH248916   6.801   1.521  16.422 -0.0994 -0.3977 -0.5955
 9142TIP3    H148917   6.726   1.581  16.431 -0.7609 -1.2962  0.0047
 9142TIP3    H248918   6.845   1.526  16.507  0.6296  0.2458 -1.0000
 9143TIP3   OH248919   3.138   6.554   2.677 -0.0468 -0.0992 -0.2016
 9143TIP3    H148920   3.112   6.596   2.595 -0.6046 -1.8548 -0.9727
 9143TIP3    H248921   3.218   6.598   2.703 -0.9345  1.8335 -0.6187
 9144TIP3   OH248922   5.036   0.070  12.479  0.1026 -0.0423  0.1015
 9144TIP3    H148923   5.114   0.123  12.487 -1.1338  1.8027  0.5998
 9144TIP3    H248924   4.980   0.098  12.552 -1.2179 -0.9699 -0.4999
 9145TIP3   OH248925   0.162   4.295   0.408 -0.5355  0.0274  0.2606
 9145TIP3    H148926   0.159   4.377   0.458 -1.0452  0.5075 -0.5481
 9145TIP3    H248927   0.155   4.322   0.317  0.9716 -0.7982 -0.1364
 9146TIP3   OH248928   2.708   2.173   2.830 -0.3449 -0.2758  0.4360
 9146TIP3    H148929   2.705   2.146   2.738  1.7724 -1.0470  0.5231
 9146TIP3    H248930   2.694   2.267   2.828  2.3445  0.1993 -1.0298
 9147TIP3   OH248931   1.556   5.479   0.741 -0.3777  0.3929 -0.5726
 9147TIP3    H148932   1.467   5.444   0.738 -0.2958  0.2701 -2.4595
 9147TIP3    H248933   1.609   5.405   0.769 -1.0615  1.0495  2.9277
 9148TIP3   OH248934   4.063   2.910   1.479  0.8321  0.1079 -0.0449
 9148TIP3    H148935   4.153   2.882   1.463  0.4938 -0.2027 -1.6213
 9148TIP3    H248936   4.020   2.903   1.393 -0.8027 -0.1401  0.7520
 9149TIP3   OH248937   1.118   0.999  16.042  0.1309 -0.0055 -0.0215
 9149TIP3    H148938   1.192   0.959  16.089  0.8219 -0.3856 -1.3471
 9149TIP3    H248939   1.047   0.935  16.051 -0.3474  0.7588  2.0003
 9150TIP3   OH248940   3.953   0.723  14.722 -0.0857 -0.3606 -0.0845
 9150TIP3    H148941   3.976   0.773  14.800  0.2310 -1.7514  0.7565
 9150TIP3    H248942   4.022   0.743  14.659  2.3239 -2.6535  1.5841
 9151TIP3   OH248943   1.750   3.717  12.055  0.0839  0.1486  0.3241
 9151TIP3    H148944   1.807   3.778  12.102  4.3600 -3.1961  0.1211
 9151TIP3    H248945   1.707   3.665  12.123  1.3538 -0.6001  0.5791
 9152TIP3   OH248946   6.344   6.683   0.179  0.5706 -0.4699  0.0230
 9152TIP3    H148947   6.283   6.626   0.133 -0.4066  0.5752 -0.0244
 9152TIP3    H248948   6.379   6.741   0.111 -2.0709  2.1528  0.6604
 9153TIP3   OH248949   4.336   6.562  13.801 -0.3135 -0.0714  0.2570
 9153TIP3    H148950   4.344   6.478  13.846 -1.0178 -1.1525 -1.5171
 9153TIP3    H248951   4.247   6.591  13.821 -0.5861 -0.4954 -0.2809
 9154TIP3   OH248952   6.694   1.557   4.585 -0.4971  0.3435 -0.2493
 9154TIP3    H148953   6.785   1.535   4.603 -0.9090 -0.8344  0.5508
 9154TIP3    H248954   6.696   1.599   4.499  0.9322  1.4725  0.2986
 9155TIP3   OH248955   2.131   4.823  15.762 -0.4630 -0.5516 -0.2614
 9155TIP3    H148956   2.059   4.761  15.775  0.8703 -2.2363 -0.5949
 9155TIP3    H248957   2.172   4.831  15.848 -0.1553 -0.7686 -0.3854
 9156TIP3   OH248958   1.290   4.659   1.431  0.0493  0.0844  0.2458
 9156TIP3    H148959   1.360   4.644   1.495  1.4010 -0.5970 -1.3160
 9156TIP3    H248960   1.232   4.583   1.441  1.8460 -1.5868 -1.2612
 9157TIP3   OH248961   5.552   1.285   1.577 -0.3931 -0.0911 -0.3457
 9157TIP3    H148962   5.589   1.341   1.646 -2.1483  0.6386  0.0730
 9157TIP3    H248963   5.623   1.273   1.515  1.1719 -0.5240  1.4317
 9158TIP3   OH248964   3.669   0.972   3.613  0.0878 -0.2283 -0.4315
 9158TIP3    H148965   3.747   0.921   3.632  0.7839  0.7124 -0.7020
 9158TIP3    H248966   3.660   1.031   3.688 -1.3175 -1.4278  0.3992
 9159TIP3   OH248967   6.352   0.344   3.598  0.0050 -0.5574 -0.7736
 9159TIP3    H148968   6.444   0.322   3.613  0.1048  0.8355  0.9169
 9159TIP3    H248969   6.355   0.416   3.535 -0.0119 -1.2309 -1.5645
 9160TIP3   OH248970   1.198   2.865   1.622  0.1339  0.0978 -0.6192
 9160TIP3    H148971   1.168   2.849   1.532 -2.1892 -0.4089  0.1724
 9160TIP3    H248972   1.147   2.804   1.675  1.3514  0.4955  1.0733
 9161TIP3   OH248973   5.556   5.365  16.728 -0.6102 -0.2808 -0.3127
 9161TIP3    H148974   5.551   5.454  16.694  1.0190  0.5581  1.4147
 9161TIP3    H248975   5.649   5.343  16.725 -0.5079 -0.5835  2.3104
 9162TIP3   OH248976   6.752   6.367   2.764 -0.6674 -0.2267  0.2421
 9162TIP3    H148977   6.734   6.273   2.764 -0.4097 -0.2777  0.5717
 9162TIP3    H248978   6.713   6.399   2.682 -1.4010 -0.4913  0.4777
 9163TIP3   OH248979   6.196   2.725   4.309 -0.2786  0.1787  0.0194
 9163TIP3    H148980   6.120   2.783   4.314 -1.8800 -1.9307  1.9102
 9163TIP3    H248981   6.241   2.752   4.228 -1.9904  2.6828 -0.2171
 9164TIP3   OH248982   3.420   4.245  14.957  0.1662  0.1900  0.0649
 9164TIP3    H148983   3.515   4.248  14.953  0.1788  2.2337  0.5110
 9164TIP3    H248984   3.399   4.242  15.050 -0.2482 -2.1252 -0.0417
 9165TIP3   OH248985   3.797   4.535   1.668 -0.8609 -0.0616 -0.0791
 9165TIP3    H148986   3.827   4.559   1.756  0.2658 -0.0971 -0.4459
 9165TIP3    H248987   3.756   4.615   1.634 -0.8353  0.1055  0.2740
 9166TIP3   OH248988   1.428   5.157  13.664 -0.3565  0.3041 -0.2766
 9166TIP3    H148989   1.508   5.116  13.631 -0.5709 -0.9991  0.7076
 9166TIP3    H248990   1.362   5.140  13.597 -0.2137 -0.1565 -0.3050
 9167TIP3   OH248991   3.278   1.365   0.931 -0.5015  0.2095 -0.0559
 9167TIP3    H148992   3.250   1.274   0.921 -0.2464  0.2673 -1.4182
 9167TIP3    H248993   3.203   1.409   0.970 -1.5157 -0.1029 -1.5843
 9168TIP3   OH248994   6.828   4.804  11.341  0.1762 -0.4774 -0.2952
 9168TIP3    H148995   6.865   4.774  11.424 -0.9591  0.3101  0.5236
 9168TIP3    H248996   6.768   4.734  11.315  0.5278 -0.7211 -0.4594
 9169TIP3   OH248997   1.588   6.821  16.035  1.2236  0.1829 -0.5746
 9169TIP3    H148998   1.553   6.898  16.079  1.8361  0.1463  0.0076
 9169TIP3    H248999   1.512   6.775  16.001  0.5583 -0.5233  1.6789
 9170TIP3   OH249000   2.476   1.260   1.647 -0.3352 -0.2441  0.3142
 9170TIP3    H149001   2.564   1.229   1.626  0.2755  0.6499  1.4102
 9170TIP3    H249002   2.489   1.352   1.671 -1.5615 -0.1305  0.6023
 9171TIP3   OH249003   3.360   6.108   5.292 -0.3678  0.4918  1.0479
 9171TIP3    H149004   3.273   6.093   5.254  0.6958  0.9625 -1.8374
 9171TIP3    H249005   3.360   6.200   5.316 -0.3730  0.7615  0.0683
 9172TIP3   OH249006   4.489   5.313  12.625 -0.1260  0.3262  0.6952
 9172TIP3    H149007   4.578   5.348  12.615  0.4062 -0.7352  1.4876
 9172TIP3    H249008   4.493   5.262  12.705 -0.7619 -1.8051 -0.5656
 9173TIP3   OH249009   0.794   5.453  16.331 -0.8126 -0.0740 -0.1985
 9173TIP3    H149010   0.776   5.483  16.242  1.1255 -0.6573 -0.8496
 9173TIP3    H249011   0.773   5.528  16.387  2.2175  2.0206 -1.6088
 9174TIP3   OH249012   5.101   1.314   5.392 -0.0755 -0.0902 -0.1139
 9174TIP3    H149013   5.131   1.237   5.343 -0.7762  0.9511 -2.2985
 9174TIP3    H249014   5.171   1.378   5.382  0.5230 -0.4017  1.7356
 9175TIP3   OH249015   3.260   2.810   2.518  0.2449 -0.2283 -0.1187
 9175TIP3    H149016   3.247   2.849   2.432  1.0635 -0.2225 -0.2470
 9175TIP3    H249017   3.355   2.810   2.530  0.2287 -1.6893  0.1104
 9176TIP3   OH249018   6.440   6.151   4.197 -0.2482  0.5789 -0.3952
 9176TIP3    H149019   6.384   6.185   4.267 -0.2663  1.6840 -0.9287
 9176TIP3    H249020   6.441   6.220   4.131  0.0964 -0.2826 -1.3132
 9177TIP3   OH249021   2.981   5.806   6.046  0.3181  0.6630  0.4899
 9177TIP3    H149022   3.076   5.812   6.032  0.5389 -1.5833  0.7329
 9177TIP3    H249023   2.970   5.738   6.112 -1.5052  0.0316 -0.3864
 9178TIP3   OH249024   0.739   1.770   3.598  0.2182 -0.2180 -0.5004
 9178TIP3    H149025   0.649   1.759   3.627  0.0337  1.3976 -0.3717
 9178TIP3    H249026   0.792   1.752   3.676 -0.1408  1.3290  0.1427
 9179TIP3   OH249027   0.682   0.068   4.386  0.4964  0.3624  0.3739
 9179TIP3    H149028   0.643  -0.017   4.365  0.9038  0.2624 -0.0007
 9179TIP3    H249029   0.691   0.067   4.481  1.6678 -0.5469  0.2830
 9180TIP3   OH249030   3.555   6.335   3.765  0.0166 -0.2574 -0.0443
 9180TIP3    H149031   3.629   6.394   3.750 -1.2960  1.2754 -0.7861
 9180TIP3    H249032   3.525   6.356   3.853  0.5935 -1.0582  0.3547
 9181TIP3   OH249033   3.110   3.082  15.099  0.5645 -0.0522  0.0687
 9181TIP3    H149034   3.108   3.146  15.171 -0.3437  0.7438 -0.6299
 9181TIP3    H249035   3.114   2.997  15.143  1.7115  0.4717  1.0244
 9182TIP3   OH249036   4.895   1.998  11.783  0.4632  0.1838 -0.2064
 9182TIP3    H149037   4.900   2.026  11.874  1.8634  2.8233 -0.9716
 9182TIP3    H249038   4.873   1.905  11.787  0.3282  0.2569  2.7886
 9183TIP3   OH249039   0.116   4.655   1.383  0.2486 -0.3642  0.0616
 9183TIP3    H149040   0.059   4.584   1.412 -1.0275 -0.1493 -1.7652
 9183TIP3    H249041   0.205   4.624   1.402 -0.4045 -1.1249  2.0502
 9184TIP3   OH249042   3.651   4.975   1.814 -0.1931  0.7345  0.0250
 9184TIP3    H149043   3.617   5.063   1.832 -1.5865  0.2426 -0.0609
 9184TIP3    H249044   3.664   4.936   1.901 -0.5217  0.6894  0.0555
 9185TIP3   OH249045   5.286   0.906   3.863  0.2329  0.3356  0.4210
 9185TIP3    H149046   5.256   0.966   3.931 -1.4765  0.9619 -0.7935
 9185TIP3    H249047   5.236   0.826   3.878  1.2258 -0.1982  0.9852
 9186TIP3   OH249048   3.002   0.534  15.837 -0.1408  0.1115 -0.2177
 9186TIP3    H149049   3.033   0.570  15.754 -1.7618 -0.7352 -1.2189
 9186TIP3    H249050   3.049   0.451  15.847  0.2407  0.3314 -0.1327
 9187TIP3   OH249051   5.503   1.847  12.064  0.0166  0.6333 -0.3593
 9187TIP3    H149052   5.449   1.871  12.140 -1.0730  1.8470 -1.4550
 9187TIP3    H249053   5.590   1.879  12.086  0.0332 -0.2338  0.9314
 9188TIP3   OH249054   3.587   4.223   3.330  0.2895  0.0077 -0.2722
 9188TIP3    H149055   3.518   4.288   3.342  0.7440  0.7553 -1.5683
 9188TIP3    H249056   3.554   4.145   3.374 -0.3884  1.0096  1.0659
 9189TIP3   OH249057   4.828   0.596   4.484 -0.0117  0.0624 -0.6254
 9189TIP3    H149058   4.889   0.604   4.557 -1.0622 -0.4275  0.3419
 9189TIP3    H249059   4.790   0.684   4.476 -0.6739 -0.1351  0.1522
 9190TIP3   OH249060   0.793   3.150   3.680  0.7062  0.0769  0.0870
 9190TIP3    H149061   0.706   3.122   3.710 -0.2538  2.0104 -0.6595
 9190TIP3    H249062   0.832   3.072   3.643 -1.0127 -0.7128 -0.1673
 9191TIP3   OH249063   0.493   0.042  15.001  1.0133  0.2661  0.3811
 9191TIP3    H149064   0.455   0.012  14.918  0.7424  0.6049  0.3772
 9191TIP3    H249065   0.552  -0.028  15.028 -0.5194 -0.8377  1.0023
 9192TIP3   OH249066   0.705   4.412   2.974  0.1587 -0.1303  0.5324
 9192TIP3    H149067   0.725   4.390   3.065 -2.5484 -0.6763  1.0942
 9192TIP3    H249068   0.679   4.329   2.934  0.4027  0.2646 -0.5027
 9193TIP3   OH249069   6.771   0.020  16.620 -0.2763 -0.0930  0.0593
 9193TIP3    H149070   6.796   0.053  16.534  0.1616  0.5819  0.4369
 9193TIP3    H249071   6.792  -0.073  16.618 -0.1879 -0.0605 -0.5302
 9194TIP3   OH249072   6.446   2.546  14.809 -0.6616  0.3119 -0.1728
 9194TIP3    H149073   6.484   2.630  14.780  1.8258 -0.7273 -0.1340
 9194TIP3    H249074   6.414   2.506  14.728 -0.9457  0.8487 -0.3328
 9195TIP3   OH249075   4.363   5.230   5.695  0.7087  0.0935  0.3566
 9195TIP3    H149076   4.271   5.243   5.669  0.6181 -1.5556 -0.2655
 9195TIP3    H249077   4.399   5.174   5.627  1.4737 -1.3740  1.9023
 9196TIP3   OH249078   6.128   5.768   4.569 -0.0744  0.4785  0.0452
 9196TIP3    H149079   6.222   5.781   4.563 -0.0097 -0.3183 -0.7819
 9196TIP3    H249080   6.114   5.735   4.658  0.4624  0.2605  0.0499
 9197TIP3   OH249081   6.605   4.758  13.365  0.2751  0.0476  0.3199
 9197TIP3    H149082   6.666   4.826  13.394 -0.2699  0.6326  0.1226
 9197TIP3    H249083   6.571   4.721  13.446  1.8242 -1.1600  0.4495
 9198TIP3   OH249084   1.552   3.762   5.402  0.2652  0.1446  0.1251
 9198TIP3    H149085   1.470   3.783   5.357  1.2522  0.5669 -1.5500
 9198TIP3    H249086   1.532   3.683   5.452 -1.4518  0.8432  0.6316
 9199TIP3   OH249087   2.528   6.562  12.750 -0.6758 -0.2398 -0.0253
 9199TIP3    H149088   2.569   6.583  12.834  1.8866  0.9052 -1.4294
 9199TIP3    H249089   2.471   6.636  12.731  1.4331  1.2800 -0.8134
 9200TIP3   OH249090   6.518   3.817  12.136  0.2923 -0.3483 -0.1638
 9200TIP3    H149091   6.442   3.781  12.183  0.9719  0.4835  1.6216
 9200TIP3    H249092   6.592   3.802  12.194  1.1087  1.0601 -0.8017
 9201TIP3   OH249093   4.455   3.538  13.316 -0.1645  0.7795  0.1727
 9201TIP3    H149094   4.504   3.469  13.360 -0.5341 -0.2393 -0.9546
 9201TIP3    H249095   4.441   3.605  13.383  0.1075 -0.2842  1.3166
 9202TIP3   OH249096   0.405   5.259  12.415 -0.1785 -0.2449 -0.1070
 9202TIP3    H149097   0.330   5.315  12.436 -0.4585 -0.8357  0.4983
 9202TIP3    H249098   0.420   5.274  12.322 -0.2076  0.8862  0.0514
 9203TIP3   OH249099   1.328   1.887  12.224 -0.5982  0.0165  0.5082
 9203TIP3    H149100   1.239   1.872  12.192 -0.7948  2.7790 -0.5053
 9203TIP3    H249101   1.376   1.919  12.147  0.9209 -0.1289  1.3580
 9204TIP3   OH249102   1.012   0.067   2.303 -0.3608 -0.2354 -0.6266
 9204TIP3    H149103   0.945   0.083   2.369 -1.1789 -1.6940 -1.0630
 9204TIP3    H249104   1.088   0.116   2.335 -0.3851 -1.6604  1.9696
 9205TIP3   OH249105   2.506   2.085  14.077 -0.3251  0.2017 -0.2684
 9205TIP3    H149106   2.536   2.092  13.986 -1.0337  1.1398 -0.4547
 9205TIP3    H249107   2.410   2.089  14.071 -0.5512 -2.3989  0.3270
 9206TIP3   OH249108   5.822   6.525  11.424  0.5489  0.0818  0.2563
 9206TIP3    H149109   5.783   6.525  11.512  0.7720  1.0689  0.3651
 9206TIP3    H249110   5.750   6.550  11.366  0.6386  0.3710  0.2711
 9207TIP3   OH249111   6.099   0.534  13.090  0.3105 -0.0507 -0.6316
 9207TIP3    H149112   6.122   0.614  13.042  0.1311 -0.7726 -1.9904
 9207TIP3    H249113   6.051   0.481  13.026 -0.8272 -0.6549  0.6658
 9208TIP3   OH249114   3.258   1.431   0.088 -0.7530  0.2997 -0.1996
 9208TIP3    H149115   3.194   1.363   0.064  0.2508 -0.6935 -0.1669
 9208TIP3    H249116   3.207   1.496   0.137 -1.6528 -0.6905  0.2244
 9209TIP3   OH249117   2.342   4.582  15.564 -0.0893 -0.1228  0.1087
 9209TIP3    H149118   2.397   4.659  15.551 -0.6602  0.0964 -1.1833
 9209TIP3    H249119   2.340   4.570  15.659  0.8259  0.8431  0.2748
 9210TIP3   OH249120   5.889   4.925   2.278  0.4007 -0.0368 -0.0980
 9210TIP3    H149121   5.802   4.960   2.263  1.0629  2.1983  0.7847
 9210TIP3    H249122   5.948   4.986   2.234  1.5888 -0.9078  0.2075
 9211TIP3   OH249123   2.142   5.291   2.741 -0.6015  0.5226  0.2467
 9211TIP3    H149124   2.165   5.346   2.815 -2.8279 -0.6726  1.9536
 9211TIP3    H249125   2.099   5.351   2.679  2.6170  1.8418 -0.9637
 9212TIP3   OH249126   5.567   2.589  15.058 -0.0526 -0.1807  0.2738
 9212TIP3    H149127   5.556   2.650  14.985  1.3600 -1.3736 -1.0210
 9212TIP3    H249128   5.591   2.645  15.132  0.6465  0.9065 -0.7253
 9213TIP3   OH249129   0.049   3.396   4.814  0.5579 -0.4477 -0.3779
 9213TIP3    H149130  -0.045   3.395   4.797  0.6935  0.6141 -1.3054
 9213TIP3    H249131   0.087   3.341   4.745  0.7055 -0.0219 -0.6377
 9214TIP3   OH249132   2.872   4.772   0.410 -0.4399  0.4510  0.1526
 9214TIP3    H149133   2.851   4.854   0.456 -1.0200 -0.6925  2.0840
 9214TIP3    H249134   2.856   4.704   0.476  3.4314 -1.0382 -0.1854
 9215TIP3   OH249135   1.881   1.658   4.779 -0.1941  0.0969 -0.1081
 9215TIP3    H149136   1.964   1.671   4.824 -0.6991  1.2231  0.5622
 9215TIP3    H249137   1.860   1.566   4.791  1.7690 -0.6385 -1.7595
 9216TIP3   OH249138   1.540   2.616  12.489  0.6747 -0.2156 -0.7390
 9216TIP3    H149139   1.523   2.693  12.435  2.9510 -0.5095 -1.9565
 9216TIP3    H249140   1.597   2.648  12.559 -0.8820 -0.2050  0.5997
 9217TIP3   OH249141   3.230   6.204   2.945 -0.3765  0.7179  0.3828
 9217TIP3    H149142   3.172   6.264   2.993 -1.5007 -0.5865  0.7418
 9217TIP3    H249143   3.245   6.132   3.006 -1.5170 -0.8058 -1.0399
 9218TIP3   OH249144   3.120   5.968  16.754 -0.8647 -0.3439  0.0566
 9218TIP3    H149145   3.077   6.054  16.759 -0.0181  0.1008 -0.2255
 9218TIP3    H249146   3.142   5.958  16.662 -0.7713 -0.7701  0.1272
 9219TIP3   OH249147   6.150   2.768   3.690 -0.4228 -0.0197  0.0146
 9219TIP3    H149148   6.089   2.782   3.763  0.5730  0.3713  0.7880
 9219TIP3    H249149   6.100   2.793   3.612 -0.6945  2.0423  0.7928
 9220TIP3   OH249150   0.043   6.556  15.529 -0.2732 -0.7777 -0.3237
 9220TIP3    H149151   0.007   6.574  15.442  1.7256  1.9635 -0.7197
 9220TIP3    H249152   0.009   6.627  15.583  0.7691 -0.8377  0.4216
 9221TIP3   OH249153   3.229   5.199   2.780 -0.0178  0.0190  0.0185
 9221TIP3    H149154   3.162   5.144   2.739 -1.5883  1.3216  0.7203
 9221TIP3    H249155   3.184   5.282   2.798  2.0706  1.3043 -0.3703
 9222TIP3   OH249156   1.090   3.186  13.822 -0.3275  0.1962 -0.5390
 9222TIP3    H149157   1.029   3.225  13.885 -0.4444  2.5425 -1.9726
 9222TIP3    H249158   1.174   3.230  13.841  0.1787 -0.7237 -0.6015
 9223TIP3   OH249159   3.747   3.411   4.029  0.3079  0.2300 -0.2248
 9223TIP3    H149160   3.725   3.494   4.071 -1.6425  0.1148 -0.8908
 9223TIP3    H249161   3.755   3.431   3.936  1.5200 -0.0466 -0.1908
 9224TIP3   OH249162   1.575   6.542  15.337  0.2272 -0.3037  0.0293
 9224TIP3    H149163   1.566   6.447  15.327 -1.8534 -0.2862  1.0869
 9224TIP3    H249164   1.485   6.575  15.337  0.7819  1.4229  1.8248
 9225TIP3   OH249165   1.123   0.246  13.138 -0.7892 -0.1268  0.3068
 9225TIP3    H149166   1.184   0.174  13.147  1.0441  1.2347 -0.5197
 9225TIP3    H249167   1.050   0.210  13.087 -0.7527 -1.8181  1.4057
 9226TIP3   OH249168   3.883   2.372  11.592 -0.2659 -0.1894 -0.1970
 9226TIP3    H149169   3.862   2.279  11.580 -0.5668 -0.0380 -0.8789
 9226TIP3    H249170   3.802   2.418  11.570  0.1177  0.2754 -0.6516
 9227TIP3   OH249171   4.090   1.261   2.554  0.0337 -0.1769  0.1134
 9227TIP3    H149172   4.022   1.211   2.511  1.2331 -0.6937 -1.2476
 9227TIP3    H249173   4.137   1.197   2.607 -0.1046  0.0540  0.5254
 9228TIP3   OH249174   3.363   1.582   3.289  0.4014 -0.1609  0.5799
 9228TIP3    H149175   3.429   1.646   3.315  0.1036  1.0690 -1.4809
 9228TIP3    H249176   3.287   1.634   3.263 -0.1406 -1.3673 -0.3728
 9229TIP3   OH249177   4.173   2.451   2.292 -0.6987 -0.4127 -0.1212
 9229TIP3    H149178   4.266   2.465   2.274 -1.2326  1.0511 -1.9912
 9229TIP3    H249179   4.163   2.473   2.385  0.5988  0.6924 -0.2186
 9230TIP3   OH249180   4.563   5.735   5.299 -0.1718 -0.1511 -0.0721
 9230TIP3    H149181   4.514   5.661   5.335  0.4631 -0.7895 -0.4821
 9230TIP3    H249182   4.636   5.747   5.359 -1.4937  1.6640  1.2871
 9231TIP3   OH249183   0.345   4.898   4.111 -0.0999 -0.2066  0.0456
 9231TIP3    H149184   0.258   4.927   4.139 -0.4134 -0.2327 -0.8923
 9231TIP3    H249185   0.365   4.824   4.168  0.4886  1.4497  2.1477
 9232TIP3   OH249186   4.111   5.886   2.811  0.1448  0.4330  0.4796
 9232TIP3    H149187   4.019   5.861   2.809  0.4383 -0.6491  0.0098
 9232TIP3    H249188   4.146   5.844   2.890  0.7991 -1.3139 -0.6812
 9233TIP3   OH249189   0.329   6.393   5.567 -0.2987  0.0337 -0.0213
 9233TIP3    H149190   0.282   6.318   5.602  1.8642 -1.2844  0.2685
 9233TIP3    H249191   0.389   6.418   5.637 -0.3066  1.4064 -0.4872
 9234TIP3   OH249192   0.387   5.705   6.371  0.2321  0.2398  0.3574
 9234TIP3    H149193   0.421   5.793   6.355  0.6264 -0.3649 -2.7150
 9234TIP3    H249194   0.465   5.651   6.385  0.0682  0.1007  0.7597
 9235TIP3   OH249195   5.540   5.083   5.644 -0.0167 -0.1907  0.4027
 9235TIP3    H149196   5.497   5.123   5.569 -0.3421 -1.8676 -0.3259
 9235TIP3    H249197   5.533   4.989   5.630  0.3844 -0.5447  2.2725
 9236TIP3   OH249198   0.750   6.698   0.817  0.0403 -0.1086  0.5336
 9236TIP3    H149199   0.695   6.674   0.892  0.8899  1.3890  1.6932
 9236TIP3    H249200   0.837   6.663   0.839  0.2417  0.1403  0.1372
 9237TIP3   OH249201   1.297   4.155  13.040 -0.1658  0.3457  0.0632
 9237TIP3    H149202   1.333   4.243  13.032  2.0563 -0.3323  1.6552
 9237TIP3    H249203   1.224   4.164  13.101 -0.6616  1.2227 -0.6338
 9238TIP3   OH249204   6.353   3.610   5.173  0.1519  0.1647  0.1005
 9238TIP3    H149205   6.282   3.674   5.171  0.1679  0.2046 -2.5834
 9238TIP3    H249206   6.309   3.525   5.179 -0.0866  0.2279 -0.7058
 9239TIP3   OH249207   4.594   6.712   0.540  0.7422  0.4920  0.2983
 9239TIP3    H149208   4.640   6.739   0.620 -1.7727  2.1152  1.2963
 9239TIP3    H249209   4.574   6.620   0.554  1.6771  0.3501  0.8108
 9240TIP3   OH249210   2.451   3.474   6.040 -0.8018  0.2244 -0.1618
 9240TIP3    H149211   2.509   3.400   6.054 -1.1309 -0.0756 -0.3691
 9240TIP3    H249212   2.486   3.543   6.096 -1.4391 -0.5894  1.2838
 9241TIP3   OH249213   6.352   2.450  16.676  0.1628  0.0920  0.1703
 9241TIP3    H149214   6.297   2.527  16.660  1.1551  0.7704 -0.0765
 9241TIP3    H249215   6.368   2.451  16.771 -1.3295 -0.8870  0.4725
 9242TIP3   OH249216   6.841   5.238   0.436 -0.5765 -0.1474 -0.5036
 9242TIP3    H149217   6.807   5.325   0.416  0.7665 -0.0733 -2.7066
 9242TIP3    H249218   6.925   5.255   0.478 -1.1491 -0.4110  0.8220
 9243TIP3   OH249219   2.190   3.809   3.980 -0.1782 -0.1570  0.5575
 9243TIP3    H149220   2.246   3.744   3.938 -2.1632 -1.2239 -0.5686
 9243TIP3    H249221   2.225   3.816   4.069  0.2765 -2.6138  0.6537
 9244TIP3   OH249222   6.199   6.538   4.508  0.4409  0.4227 -0.3689
 9244TIP3    H149223   6.268   6.488   4.466  0.5874  0.8707 -0.6698
 9244TIP3    H249224   6.131   6.474   4.528  1.5143 -0.2908  1.2097
 9245TIP3   OH249225   0.742   4.773  14.136  0.8207 -0.0250 -0.0550
 9245TIP3    H149226   0.691   4.765  14.216  1.9180  2.2394  0.9470
 9245TIP3    H249227   0.711   4.701  14.081 -3.5592  1.2475  0.3660
 9246TIP3   OH249228   2.332   6.278  13.200  0.2751  0.1382  0.1816
 9246TIP3    H149229   2.298   6.202  13.153  1.5845 -0.9123  0.8446
 9246TIP3    H249230   2.377   6.330  13.134 -1.5574  0.9446 -0.4817
 9247TIP3   OH249231   5.292   0.696  10.370 -0.3017 -0.0457 -0.0815
 9247TIP3    H149232   5.253   0.611  10.350 -1.2532 -0.1250  1.8548
 9247TIP3    H249233   5.334   0.723  10.289 -3.6457 -0.3591 -2.0657
 9248TIP3   OH249234   1.063   5.783   0.249 -0.3471 -0.2063 -0.3003
 9248TIP3    H149235   1.127   5.844   0.212  0.4904 -0.3181  0.8913
 9248TIP3    H249236   1.103   5.696   0.238 -0.9392 -0.4229 -0.8070
 9249TIP3   OH249237   5.840   3.307  16.355  0.4148 -0.1781  0.4221
 9249TIP3    H149238   5.869   3.376  16.295 -0.7547 -1.0584 -1.2306
 9249TIP3    H249239   5.900   3.235  16.339 -0.5711 -0.8183 -0.5863
 9250TIP3   OH249240   4.755   6.622  12.593 -0.0769  0.4212  0.1704
 9250TIP3    H149241   4.831   6.567  12.611  0.2469  1.0717  0.8347
 9250TIP3    H249242   4.771   6.656  12.504  0.2694  0.3302  0.1967
 9251TIP3   OH249243   4.466   2.562  12.820 -0.0854 -0.2667  0.4680
 9251TIP3    H149244   4.498   2.637  12.870 -1.4204 -0.0971  1.1078
 9251TIP3    H249245   4.420   2.600  12.746 -0.4008 -0.4592  0.5621
 9252TIP3   OH249246   6.421   6.121  13.821  0.0098 -0.1806 -0.4514
 9252TIP3    H149247   6.419   6.164  13.906  0.6617 -1.3092  0.1394
 9252TIP3    H249248   6.420   6.194  13.758  3.1188  0.8250  0.5160
 9253TIP3   OH249249   6.505   1.643  11.816  0.1076  0.2363 -0.1460
 9253TIP3    H149250   6.562   1.670  11.743  2.1981 -0.8526  0.9955
 9253TIP3    H249251   6.482   1.725  11.860  2.5872  0.6254  0.5893
 9254TIP3   OH249252   0.687   4.478  13.354  0.4877  0.5225  0.1851
 9254TIP3    H149253   0.692   4.390  13.391  0.7866 -0.1914 -1.4402
 9254TIP3    H249254   0.662   4.534  13.427 -1.8335 -1.2100  0.8162
 9255TIP3   OH249255   5.671   2.715  16.671  0.1498 -0.2141 -0.3112
 9255TIP3    H149256   5.684   2.649  16.602  0.2620  0.0133 -0.5079
 9255TIP3    H249257   5.745   2.702  16.730  0.8037  0.4719 -0.9460
 9256TIP3   OH249258   0.337   6.300   4.710  0.2852 -0.7606  0.2912
 9256TIP3    H149259   0.408   6.281   4.771 -1.5007 -1.4127  2.2492
 9256TIP3    H249260   0.354   6.243   4.635  2.2757 -0.2708  0.3197
 9257TIP3   OH249261   1.598   2.935  12.003 -0.0204  0.5587 -0.1282
 9257TIP3    H149262   1.522   2.907  11.951 -0.7798  0.1180  1.1753
 9257TIP3    H249263   1.561   2.992  12.071  0.3425 -1.8435  2.2564
 9258TIP3   OH249264   1.765   2.702   0.050  0.1955 -0.3084  0.0091
 9258TIP3    H149265   1.757   2.788   0.091  2.4832 -0.9188  1.9010
 9258TIP3    H249266   1.852   2.703   0.009  0.5040 -1.9191  0.5782
 9259TIP3   OH249267   3.255   3.955   5.784  0.6019  0.2245  0.2526
 9259TIP3    H149268   3.316   4.018   5.823  1.0655 -0.0143 -0.0759
 9259TIP3    H249269   3.261   3.878   5.842 -1.3695  1.1052  1.7674
 9260TIP3   OH249270   1.124   0.177   0.059 -0.2933  0.1272  0.0784
 9260TIP3    H149271   1.216   0.186   0.032 -0.2334 -0.0985  0.2061
 9260TIP3    H249272   1.113   0.244   0.126 -0.1650  0.0217  0.2062
 9261TIP3   OH249273   5.110   1.655  12.702  0.0362 -0.0194  0.1358
 9261TIP3    H149274   5.145   1.731  12.747 -1.1919  0.5352  0.1951
 9261TIP3    H249275   5.182   1.592  12.700  0.6383  0.6155  1.3049
 9262TIP3   OH249276   1.406   6.770  11.344 -0.4193 -0.1081  0.1922
 9262TIP3    H149277   1.315   6.777  11.313 -0.5939  1.7097  0.9989
 9262TIP3    H249278   1.422   6.852  11.391  1.6913 -0.3377 -0.0287
 9263TIP3   OH249279   3.992   3.027   0.681  0.0134 -0.0649 -0.3562
 9263TIP3    H149280   3.956   3.086   0.748 -1.4521 -0.3377 -0.8687
 9263TIP3    H249281   4.069   3.073   0.648 -1.1950  1.6980 -0.8676
 9264TIP3   OH249282   4.745   1.020  15.652 -0.0545 -0.0872  0.1144
 9264TIP3    H149283   4.688   1.089  15.620  0.2025 -0.3236 -0.8991
 9264TIP3    H249284   4.828   1.064  15.672 -0.1421  0.0224  0.2391
 9265TIP3   OH249285   6.544   3.278   4.872  0.0131 -0.1804 -0.3344
 9265TIP3    H149286   6.454   3.245   4.874  0.8805 -2.6926 -0.3765
 9265TIP3    H249287   6.550   3.336   4.949 -1.7452  0.4247 -0.6106
 9266TIP3   OH249288   3.159   1.782   4.841 -0.3284  0.0037 -0.0864
 9266TIP3    H149289   3.160   1.773   4.746  1.3393 -0.2514 -0.0825
 9266TIP3    H249290   3.122   1.869   4.857 -0.0808  0.2847 -1.0092
 9267TIP3   OH249291   6.655   5.110   6.310 -0.0698 -0.0872  0.0453
 9267TIP3    H149292   6.692   5.193   6.280  2.4014 -1.1293 -0.0294
 9267TIP3    H249293   6.694   5.095   6.396 -2.8288  0.2007  1.4668
 9268TIP3   OH249294   4.971   0.682   2.110 -0.2467  0.0049  0.1115
 9268TIP3    H149295   4.983   0.676   2.016  0.5043 -0.7219  0.2457
 9268TIP3    H249296   5.014   0.764   2.135 -0.4747  0.2136 -0.1713
 9269TIP3   OH249297   5.311   2.258  13.692  0.7459 -0.1978  0.5975
 9269TIP3    H149298   5.392   2.309  13.696  1.1745 -0.8464  0.3521
 9269TIP3    H249299   5.264   2.282  13.772  1.2920  0.0025  0.8662
 9270TIP3   OH249300   4.098   5.356  13.788  0.3019 -0.2606  0.3491
 9270TIP3    H149301   4.100   5.361  13.692  0.3107  1.3080  0.4041
 9270TIP3    H249302   4.069   5.443  13.816 -0.0817 -0.8186  1.7661
 9271TIP3   OH249303   5.663   4.969   4.978  0.2765 -0.2053 -0.3038
 9271TIP3    H149304   5.666   5.061   5.007  1.9321 -0.3749  0.1558
 9271TIP3    H249305   5.616   4.924   5.049 -0.2886  0.2221 -0.3932
 9272TIP3   OH249306   6.817   0.327  11.868 -0.1719 -0.0536  0.1579
 9272TIP3    H149307   6.755   0.324  11.796 -0.8994 -1.4935  0.8125
 9272TIP3    H249308   6.903   0.325  11.826 -0.2952  4.9972 -0.9703
 9273TIP3   OH249309   4.359   1.568  14.546  0.2998 -0.0185  0.1286
 9273TIP3    H149310   4.304   1.590  14.621  1.5399 -0.3397  1.1705
 9273TIP3    H249311   4.445   1.547  14.584  0.8786 -0.4923 -1.3510
 9274TIP3   OH249312   2.939   2.970  12.628  0.3255  0.6886 -0.0656
 9274TIP3    H149313   2.929   2.911  12.553 -0.8519  0.4620  0.2501
 9274TIP3    H249314   2.983   2.917  12.694 -1.6273 -0.2346  0.5886
 9275TIP3   OH249315   5.185   6.432   4.298  0.2849 -0.1036  0.0768
 9275TIP3    H149316   5.218   6.392   4.218  0.2131 -0.3507  0.1706
 9275TIP3    H249317   5.260   6.432   4.358  0.2387 -0.2561  0.1357
 9276TIP3   OH249318   5.707   0.308   6.007  0.2169  0.6448  0.2330
 9276TIP3    H149319   5.658   0.228   6.025  2.3297 -0.4983  1.3256
 9276TIP3    H249320   5.644   0.379   6.021 -0.9323 -0.6887  2.3420
 9277TIP3   OH249321   4.852   5.141  14.090  0.6646 -0.4798 -0.0029
 9277TIP3    H149322   4.934   5.172  14.053  1.5989 -0.8248  1.6764
 9277TIP3    H249323   4.857   5.046  14.085 -0.0145 -0.4965 -0.6254
 9278TIP3   OH249324   2.773   6.582   2.054  0.1435  0.0453  0.3965
 9278TIP3    H149325   2.681   6.597   2.031  0.8578 -0.0785 -3.1355
 9278TIP3    H249326   2.779   6.487   2.070 -0.2000 -0.0821 -0.2102
 9279TIP3   OH249327   4.256   5.715  10.422  0.6164  0.0708 -0.0791
 9279TIP3    H149328   4.163   5.720  10.441  0.7098  1.0898  0.1772
 9279TIP3    H249329   4.276   5.794  10.373  1.5659  0.5107  0.9450
 9280TIP3   OH249330   4.073   5.332  14.816  0.0501 -0.5585 -0.4558
 9280TIP3    H149331   4.134   5.260  14.827 -0.3445 -0.6078  1.9575
 9280TIP3    H249332   4.085   5.386  14.894  0.1745  1.9224 -2.0505
 9281TIP3   OH249333   4.591   3.522  11.048 -0.7992  0.1756 -0.0396
 9281TIP3    H149334   4.636   3.499  11.130 -2.1897  1.2288  1.0919
 9281TIP3    H249335   4.513   3.466  11.047 -0.2979 -0.5262 -1.1702
 9282TIP3   OH249336   2.220   0.956   2.063 -0.2221  0.2688 -0.4611
 9282TIP3    H149337   2.146   0.962   2.124 -0.2907 -0.2236 -0.4930
 9282TIP3    H249338   2.225   1.044   2.024 -0.5319  0.4254 -0.1603
 9283TIP3   OH249339   2.940   3.485   1.920  0.0079  0.0608  1.2083
 9283TIP3    H149340   2.875   3.419   1.897  0.4285 -0.0420  0.2813
 9283TIP3    H249341   3.005   3.481   1.850  0.5442  0.7906  1.6455
 9284TIP3   OH249342   0.203   6.164   5.692 -0.3396  0.8245  0.4968
 9284TIP3    H149343   0.222   6.087   5.639  0.3099  1.7179 -0.6045
 9284TIP3    H249344   0.243   6.144   5.777  0.7702  0.3918 -0.1072
 9285TIP3   OH249345   6.173   5.952  16.033 -0.2287 -0.0130  0.4489
 9285TIP3    H149346   6.140   5.876  15.986 -1.0455  0.6492 -0.0883
 9285TIP3    H249347   6.137   6.027  15.985 -0.6079  0.6944  1.7933
 9286TIP3   OH249348   3.884   2.029  10.637 -0.1998 -0.7110 -0.3488
 9286TIP3    H149349   3.814   2.086  10.605 -0.6717 -1.7729 -1.2476
 9286TIP3    H249350   3.957   2.045  10.577 -0.0717 -0.5127 -0.1448
 9287TIP3   OH249351   1.171   6.278  16.557  0.6185  0.3026  0.0191
 9287TIP3    H149352   1.107   6.339  16.520  0.8109 -0.5523 -1.8626
 9287TIP3    H249353   1.210   6.236  16.481  2.9129  0.2521  1.1380
 9288TIP3   OH249354   6.809   4.379  11.886  0.3685  0.2942  0.3103
 9288TIP3    H149355   6.822   4.472  11.868 -1.3409  0.5894  0.5053
 9288TIP3    H249356   6.793   4.375  11.981  0.5367 -0.2142  0.3209
 9289TIP3   OH249357   4.890   0.405   2.220  0.4419  0.6660  0.2203
 9289TIP3    H149358   4.801   0.410   2.254  0.4053  1.8538 -0.0061
 9289TIP3    H249359   4.916   0.496   2.207  0.6853  0.3093 -2.2907
 9290TIP3   OH249360   4.546   3.326  14.966 -0.1341  0.3478  0.2236
 9290TIP3    H149361   4.547   3.370  14.880  1.0326 -0.9476 -0.4618
 9290TIP3    H249362   4.527   3.397  15.028  0.0149  1.5072 -0.9922
 9291TIP3   OH249363   0.204   6.391  12.839 -0.5696 -0.2068  0.1947
 9291TIP3    H149364   0.119   6.431  12.857  0.4208  1.2322  2.0469
 9291TIP3    H249365   0.223   6.338  12.917 -1.0254 -2.9852 -1.4425
 9292TIP3   OH249366   6.316   5.880   5.530 -0.2307 -0.0333  0.1756
 9292TIP3    H149367   6.389   5.861   5.471 -0.6279 -1.8674  0.2023
 9292TIP3    H249368   6.348   5.855   5.617 -0.5140  0.2114  0.3515
 9293TIP3   OH249369   6.298   1.053   4.361  0.1748  0.9267 -0.9913
 9293TIP3    H149370   6.243   1.131   4.364  0.7307  1.3092  0.4792
 9293TIP3    H249371   6.240   0.984   4.330 -0.4185  1.8495 -1.9906
 9294TIP3   OH249372   3.803   0.547   4.174  0.7729 -0.4356 -0.1320
 9294TIP3    H149373   3.898   0.538   4.178  0.9408  0.9985 -0.2709
 9294TIP3    H249374   3.776   0.558   4.265  0.9790  0.9931 -0.2161
 9295TIP3   OH249375   1.711   4.842  14.990 -1.1901  0.1110 -0.3203
 9295TIP3    H149376   1.751   4.812  15.071  0.2639  2.0894 -0.2399
 9295TIP3    H249377   1.763   4.802  14.920  0.7914  2.2914 -0.2153
 9296TIP3   OH249378   4.685   1.478   4.013 -0.6895 -0.5363  0.6136
 9296TIP3    H149379   4.742   1.526   4.074 -0.2832  0.8376 -0.7642
 9296TIP3    H249380   4.601   1.522   4.020 -0.9171 -1.0108  0.8886
 9297TIP3   OH249381   1.166   5.472  13.921  0.4679 -0.0275 -0.2336
 9297TIP3    H149382   1.161   5.567  13.914 -0.4773 -0.1271 -1.1239
 9297TIP3    H249383   1.228   5.456  13.991  0.8838  1.2474 -0.2956
 9298TIP3   OH249384   0.594   0.468  13.783 -0.1086 -0.4686  0.3324
 9298TIP3    H149385   0.508   0.508  13.768 -0.0197  0.7469  2.5369
 9298TIP3    H249386   0.590   0.385  13.737 -2.8455 -0.8654  1.0865
 9299TIP3   OH249387   6.747   0.687   4.105 -0.1811 -0.3334 -0.4260
 9299TIP3    H149388   6.737   0.623   4.176  0.9027  1.0024  1.0210
 9299TIP3    H249389   6.813   0.648   4.047 -0.7907 -1.2723 -0.5121
 9300TIP3   OH249390   4.141   3.939   0.772  0.2049 -0.2561 -0.0611
 9300TIP3    H149391   4.108   4.003   0.836  0.0403 -0.7338  0.3348
 9300TIP3    H249392   4.228   3.971   0.749 -0.2665  0.6669 -0.6295
 9301TIP3   OH249393   1.709   1.435   2.772  0.3304 -0.0396  0.5833
 9301TIP3    H149394   1.651   1.363   2.798  2.6710 -1.9005  1.0301
 9301TIP3    H249395   1.718   1.488   2.851 -0.7288  0.2745  0.5057
 9302TIP3   OH249396   2.527   0.512   4.215 -0.1067  0.5927  0.5537
 9302TIP3    H149397   2.533   0.438   4.276 -0.3168  0.7496  0.7655
 9302TIP3    H249398   2.585   0.488   4.143 -0.7509 -0.1169  0.2605
 9303TIP3   OH249399   2.905   1.368   4.466 -0.1120  0.1036 -0.3939
 9303TIP3    H149400   2.840   1.428   4.429  0.8246  0.9646 -0.7079
 9303TIP3    H249401   2.923   1.404   4.553  1.3562  1.0630 -1.0398
 9304TIP3   OH249402   1.613   5.149   3.526 -0.1358  0.1421 -0.7023
 9304TIP3    H149403   1.660   5.168   3.444 -0.3009  0.3901 -0.7382
 9304TIP3    H249404   1.581   5.059   3.514  0.3073 -0.0200 -0.6888
 9305TIP3   OH249405   5.894   6.844  13.654  0.1933  0.3758  0.6163
 9305TIP3    H149406   5.835   6.847  13.579  2.1281 -0.1035 -1.0093
 9305TIP3    H249407   5.885   6.755  13.688  0.1158  0.2473  0.2628
 9306TIP3   OH249408   2.146   1.215   5.638 -0.0502 -1.0433 -0.2824
 9306TIP3    H149409   2.138   1.309   5.619 -1.6181 -1.3851 -1.5060
 9306TIP3    H249410   2.098   1.204   5.721  0.2251 -0.7486 -0.0821
 9307TIP3   OH249411   4.724   6.253  10.830  0.0317  0.0421 -0.1033
 9307TIP3    H149412   4.814   6.266  10.801 -0.5994 -1.9351 -3.3977
 9307TIP3    H249413   4.674   6.321  10.785 -0.5337 -0.9449 -0.9968
 9308TIP3   OH249414   6.770   1.725   0.658  0.6010 -0.3190 -0.3732
 9308TIP3    H149415   6.727   1.806   0.632  0.3486 -0.3689 -0.1213
 9308TIP3    H249416   6.713   1.655   0.624  0.3244 -0.3845  0.2006
 9309TIP3   OH249417   4.092   5.893   2.538  0.2971  0.5542 -0.0508
 9309TIP3    H149418   3.997   5.882   2.532  0.6302 -3.2643 -1.0997
 9309TIP3    H249419   4.112   5.884   2.631 -0.3658  2.1452  0.2752
 9310TIP3   OH249420   1.525   5.475  16.850  0.0381 -0.0929  0.4180
 9310TIP3    H149421   1.456   5.509  16.794 -0.2911 -1.7147 -0.2221
 9310TIP3    H249422   1.482   5.459  16.934 -0.4120 -1.1101  0.0190
 9311TIP3   OH249423   4.704   0.133   3.955  0.5377  0.2558  0.2616
 9311TIP3    H149424   4.657   0.213   3.932  0.3497  0.2644  0.6773
 9311TIP3    H249425   4.656   0.063   3.912  0.8859  0.3925 -0.3693
 9312TIP3   OH249426   1.902   2.620  11.927  0.3912 -0.1878  0.2031
 9312TIP3    H149427   1.911   2.619  11.831  0.4483  0.9737  0.1852
 9312TIP3    H249428   1.992   2.629  11.959  0.1896  2.4079  0.2581
 9313TIP3   OH249429   5.335   6.532  11.337  0.0131 -0.2053 -0.1899
 9313TIP3    H149430   5.289   6.473  11.396 -1.0544  1.0769  0.3119
 9313TIP3    H249431   5.271   6.550  11.268 -0.6781  2.3792  1.0311
 9314TIP3   OH249432   2.120   2.782  15.681  0.5323  0.1326  0.0043
 9314TIP3    H149433   2.031   2.755  15.656  1.0892 -0.4050 -1.4688
 9314TIP3    H249434   2.154   2.826  15.603  1.9209 -0.5372  0.2118
 9315TIP3   OH249435   1.223   4.289  14.163 -0.7816  0.0583 -0.2397
 9315TIP3    H149436   1.172   4.224  14.113 -0.0597 -1.4964  0.9555
 9315TIP3    H249437   1.157   4.348  14.199 -2.3524 -3.5036  3.6784
 9316TIP3   OH249438   2.301   2.936  16.647  0.4117  0.4493 -0.3871
 9316TIP3    H149439   2.325   2.964  16.735  0.2994 -0.3911 -0.0835
 9316TIP3    H249440   2.250   2.856  16.660 -0.7101  1.0261 -1.1476
 9317TIP3   OH249441   3.649   0.822   2.633 -0.6989 -0.1485 -0.2479
 9317TIP3    H149442   3.612   0.770   2.704 -1.3367 -0.8464 -1.0687
 9317TIP3    H249443   3.744   0.811   2.642 -0.7285  0.4229  0.9610
 9318TIP3   OH249444   4.832   1.908   1.485 -0.6211 -0.0651  0.3999
 9318TIP3    H149445   4.786   1.841   1.536 -0.1443 -0.6315  0.1067
 9318TIP3    H249446   4.806   1.892   1.395 -1.8580  1.2559  0.4932
 9319TIP3   OH249447   1.911   4.373  13.034  0.0601  0.3549 -0.0263
 9319TIP3    H149448   1.867   4.410  13.110 -0.9786 -0.9594  0.0434
 9319TIP3    H249449   1.870   4.288  13.021 -0.7490  1.0629 -2.8591
 9320TIP3   OH249450   4.284   6.007  15.385 -0.2539 -0.1859  0.3306
 9320TIP3    H149451   4.203   5.962  15.408  0.0274 -0.3584  1.0395
 9320TIP3    H249452   4.350   5.937  15.381 -0.1516 -0.0609 -0.3244
 9321TIP3   OH249453   4.481   1.189   1.681  0.6125  0.2803 -0.6258
 9321TIP3    H149454   4.476   1.188   1.585  1.0786 -2.8675 -0.7215
 9321TIP3    H249455   4.573   1.173   1.700  0.3521 -0.1548  0.3353
 9322TIP3   OH249456   4.249   0.161   0.058 -0.0991  0.2534 -0.2240
 9322TIP3    H149457   4.241   0.241   0.110  0.2863 -0.1419  0.4580
 9322TIP3    H249458   4.209   0.093   0.112  0.4454 -0.1923 -0.3755
 9323TIP3   OH249459   5.875   5.705  15.394 -0.9953 -0.5456  0.2576
 9323TIP3    H149460   5.868   5.801  15.387  0.9553 -0.4501 -1.5231
 9323TIP3    H249461   5.849   5.674  15.307  1.5780 -1.3250 -0.3164
 9324TIP3   OH249462   6.064   4.025   0.375  0.0544  0.1096 -0.2739
 9324TIP3    H149463   6.076   3.933   0.399 -0.1035  0.4329  1.1613
 9324TIP3    H249464   6.117   4.037   0.296 -0.1157 -1.2634 -0.6211
 9325TIP3   OH249465   6.093   5.330  12.730  0.5121 -0.3817  0.0987
 9325TIP3    H149466   6.133   5.329  12.643 -0.5578 -2.4181 -0.4324
 9325TIP3    H249467   5.999   5.332  12.713  0.1952  3.4810  1.3162
 9326TIP3   OH249468   5.711   2.839  17.044  0.3801 -0.2193  0.2473
 9326TIP3    H149469   5.735   2.769  17.105  0.9131 -0.1444  0.1321
 9326TIP3    H249470   5.792   2.887  17.030  0.3425 -0.4215 -0.7576
 9327TIP3   OH249471   4.689   5.886   1.877 -0.7259 -0.3242 -0.4176
 9327TIP3    H149472   4.594   5.879   1.876 -0.9143  0.6995 -4.4193
 9327TIP3    H249473   4.720   5.796   1.866 -1.1688 -0.6510  0.8363
 9328TIP3   OH249474   1.622   6.630   0.015 -0.2876 -0.1214  0.2037
 9328TIP3    H149475   1.680   6.685   0.066  2.1764  0.1146 -2.5823
 9328TIP3    H249476   1.622   6.669  -0.073 -4.1866 -0.5276 -0.1637
 9329TIP3   OH249477   3.085   1.435  13.034 -0.2107  0.7458  0.0350
 9329TIP3    H149478   3.156   1.458  12.974  0.1860 -1.7725 -0.6005
 9329TIP3    H249479   3.127   1.384  13.103 -1.2658 -0.2252  0.0003
 9330TIP3   OH249480   5.484   5.250   2.548 -0.0083 -0.3859  0.0667
 9330TIP3    H149481   5.571   5.242   2.507 -0.2820 -0.2448 -0.5557
 9330TIP3    H249482   5.432   5.181   2.506 -0.4702  0.1717 -0.2785
 9331TIP3   OH249483   5.865   6.124  10.499 -0.2537 -0.4772  0.3364
 9331TIP3    H149484   5.816   6.206  10.503 -0.4597 -0.5959  0.2753
 9331TIP3    H249485   5.943   6.144  10.447 -1.3648 -0.8547 -1.5826
 9332TIP3   OH249486   5.936   5.226   1.863 -0.4604 -0.3765 -1.0767
 9332TIP3    H149487   5.907   5.147   1.817 -0.9169 -2.4058  2.3361
 9332TIP3    H249488   5.862   5.249   1.920  0.7443  0.7660  0.1106
 9333TIP3   OH249489   4.889   3.365  12.037  0.3909 -0.2372 -0.0499
 9333TIP3    H149490   4.926   3.277  12.041  1.5386  0.2085 -0.4835
 9333TIP3    H249491   4.833   3.365  11.960  0.4427 -0.5648 -0.0845
 9334TIP3   OH249492   5.759   0.980  16.114 -0.3132 -0.3851  0.3111
 9334TIP3    H149493   5.766   1.054  16.054  0.6501  0.6980  1.6976
 9334TIP3    H249494   5.671   0.946  16.099 -0.8313  1.1104 -0.2780
 9335TIP3   OH249495   4.213   4.843   1.970  0.2662 -0.4503  0.1341
 9335TIP3    H149496   4.232   4.833   2.063  0.2921  0.5568  0.2469
 9335TIP3    H249497   4.217   4.754   1.935  0.6264 -0.7938  1.0214
 9336TIP3   OH249498   4.339   2.681  15.749  0.1438 -0.6256  0.0424
 9336TIP3    H149499   4.375   2.676  15.660 -0.2302 -0.6572 -0.1107
 9336TIP3    H249500   4.358   2.596  15.787 -0.4358 -0.9136 -0.2993
 9337TIP3   OH249501   2.461   6.441  11.486 -0.2926  0.0809  0.1068
 9337TIP3    H149502   2.511   6.482  11.416 -2.4742  1.1011 -0.9355
 9337TIP3    H249503   2.394   6.390  11.441  1.1657 -3.3300  1.3893
 9338TIP3   OH249504   2.456   1.042   3.613  0.1038 -0.2773 -0.3014
 9338TIP3    H149505   2.511   1.110   3.649 -1.0854  0.6893 -0.2402
 9338TIP3    H249506   2.505   0.961   3.627  2.3721  0.6963 -1.9635
 9339TIP3   OH249507   4.740   2.526   1.613  0.3794  0.1126 -0.2870
 9339TIP3    H149508   4.658   2.480   1.632  0.5536  0.3345  1.0835
 9339TIP3    H249509   4.747   2.523   1.517 -1.4213  0.4116 -0.4763
 9340TIP3   OH249510   0.298   3.950   6.286 -0.3309  0.0080  0.2119
 9340TIP3    H149511   0.302   3.957   6.381 -0.3809 -0.2292  0.2329
 9340TIP3    H249512   0.364   3.885   6.263 -0.5315 -0.1643  0.1131
 9341TIP3   OH249513   1.116   6.212   2.408  0.0905 -0.0861  0.0373
 9341TIP3    H149514   1.044   6.152   2.390 -0.5015  0.8461 -0.8187
 9341TIP3    H249515   1.081   6.298   2.388  1.1382  0.4872  0.5856
 9342TIP3   OH249516   2.463   0.021   3.573 -0.3779 -0.2148 -0.4266
 9342TIP3    H149517   2.440   0.044   3.663 -0.8685  0.7263 -0.7822
 9342TIP3    H249518   2.400  -0.046   3.548 -0.8458  0.2092 -0.3897
 9343TIP3   OH249519   6.070   0.816  15.225 -0.2836 -0.5377  0.6694
 9343TIP3    H149520   6.078   0.904  15.187 -0.0703 -0.4601  0.8843
 9343TIP3    H249521   6.064   0.833  15.320 -0.1973 -0.7559  0.7134
 9344TIP3   OH249522   1.853   6.364   3.346  0.3883  0.4815  0.2636
 9344TIP3    H149523   1.877   6.405   3.429  0.1453  0.6937  0.2308
 9344TIP3    H249524   1.910   6.287   3.339 -0.1991 -0.0373  1.0433
 9345TIP3   OH249525   4.472   4.032  11.712  0.3031  0.5690 -0.1043
 9345TIP3    H149526   4.560   3.995  11.709  0.2981  0.4287  1.0330
 9345TIP3    H249527   4.471   4.097  11.642  0.5356 -1.0744 -1.6900
 9346TIP3   OH249528   4.195   2.707   5.496 -0.2891  0.0644 -0.0300
 9346TIP3    H149529   4.199   2.791   5.452  2.1894 -0.1112 -0.2811
 9346TIP3    H249530   4.103   2.681   5.491 -1.2691  3.0780  0.7511
 9347TIP3   OH249531   0.365   4.171  16.352  0.3602  0.7884  0.4970
 9347TIP3    H149532   0.277   4.137  16.370  0.8018 -0.0613  1.0645
 9347TIP3    H249533   0.379   4.237  16.420  0.7565 -0.1551  1.3487
 9348TIP3   OH249534   0.146   0.878  16.950  0.1885 -0.6805  0.6555
 9348TIP3    H149535   0.192   0.816  16.893  0.2530 -1.5661  1.6208
 9348TIP3    H249536   0.138   0.831  17.033 -0.7361  0.2089  1.0905
 9349TIP3   OH249537   0.764   2.789   1.420 -0.3268  0.3761  0.0849
 9349TIP3    H149538   0.817   2.734   1.362 -0.1134  0.1459  0.4958
 9349TIP3    H249539   0.735   2.862   1.364 -1.8325 -0.8908 -0.8568
 9350TIP3   OH249540   4.019   1.468  15.774 -0.6954 -0.3893 -0.0186
 9350TIP3    H149541   4.104   1.511  15.783 -1.6619  1.3093  1.7878
 9350TIP3    H249542   3.997   1.439  15.862 -3.0190  1.4102  0.1209
 9351TIP3   OH249543   4.064   0.437   2.441  0.4770 -0.1377  0.2161
 9351TIP3    H149544   4.046   0.367   2.378  1.3161 -0.6017  0.4727
 9351TIP3    H249545   4.101   0.392   2.517 -1.5546  0.2646  1.5277
 9352TIP3   OH249546   5.100   2.454   3.032 -0.4634 -0.4498  0.1666
 9352TIP3    H149547   5.128   2.445   3.123  1.8626 -0.4705 -0.4814
 9352TIP3    H249548   5.170   2.505   2.991 -1.7810  0.1035 -1.4783
 9353TIP3   OH249549   2.045   0.648  16.789  0.4135 -1.1879 -0.0067
 9353TIP3    H149550   2.074   0.633  16.699 -1.7829 -2.7234 -0.5739
 9353TIP3    H249551   1.952   0.670  16.781 -0.4302 -3.5198  1.9231
 9354TIP3   OH249552   6.233   4.558  16.825  0.1385 -0.2816 -0.0309
 9354TIP3    H149553   6.270   4.608  16.751 -0.7975  2.0138  0.9486
 9354TIP3    H249554   6.307   4.545  16.884  0.3938 -0.0064 -0.2846
 9355TIP3   OH249555   2.403   3.263  16.362 -0.1399 -0.1789  0.1216
 9355TIP3    H149556   2.467   3.295  16.426 -0.1345  1.1587 -0.5264
 9355TIP3    H249557   2.452   3.254  16.281 -1.3678  4.4498 -1.4151
 9356TIP3   OH249558   4.694   2.042   6.357 -0.0281 -0.3229 -0.0076
 9356TIP3    H149559   4.717   2.133   6.377 -1.6887  0.2302 -0.4380
 9356TIP3    H249560   4.745   2.020   6.279 -0.0071  0.4170 -0.2096
 9357TIP3   OH249561   6.667   4.159  14.338  0.2426 -0.6326  0.2453
 9357TIP3    H149562   6.575   4.153  14.362  0.3466 -0.7832  0.6285
 9357TIP3    H249563   6.670   4.141  14.244 -0.0642 -1.1327  0.3274
 9358TIP3   OH249564   3.495   3.163   5.616 -0.3531  0.5613  0.2051
 9358TIP3    H149565   3.470   3.183   5.706  0.0837 -0.0110  0.4644
 9358TIP3    H249566   3.420   3.191   5.563 -0.4083  1.3663  0.6914
 9359TIP3   OH249567   0.371   0.059  12.167  0.0028  0.7956  0.2689
 9359TIP3    H149568   0.368   0.085  12.259  0.9941  1.3255  0.1685
 9359TIP3    H249569   0.354   0.140  12.119  1.7857  1.0278 -0.0322
 9360TIP3   OH249570   1.073   0.549  12.758 -0.4160  0.0634  0.6031
 9360TIP3    H149571   1.012   0.587  12.696 -1.3598 -1.0155  0.8124
 9360TIP3    H249572   1.129   0.492  12.706 -0.8543 -0.4236  0.6554
 9361TIP3   OH249573   5.495   4.395  14.585  0.4374  0.0248 -0.2110
 9361TIP3    H149574   5.425   4.370  14.525  1.6522  1.9887 -2.6452
 9361TIP3    H249575   5.450   4.439  14.657 -1.0052 -1.6153 -0.0528
 9362TIP3   OH249576   5.936   0.668  13.555 -0.7497  0.3581  0.2687
 9362TIP3    H149577   5.862   0.643  13.612 -0.0724  2.8980  2.4433
 9362TIP3    H249578   6.004   0.605  13.577 -0.9772  0.4347  1.2421
 9363TIP3   OH249579   5.210   3.844   2.211  0.4077  0.1388 -0.1304
 9363TIP3    H149580   5.232   3.813   2.299  0.7991  1.0786  0.1162
 9363TIP3    H249581   5.150   3.778   2.177  0.9920 -0.7320  0.4764
 9364TIP3   OH249582   5.478   3.601  14.313  0.4949  0.4360 -0.4417
 9364TIP3    H149583   5.535   3.614  14.237  1.9326  1.3803  0.7358
 9364TIP3    H249584   5.535   3.616  14.389 -0.1347 -3.0431  0.9620
 9365TIP3   OH249585   0.999   3.999  16.204  0.4800  0.4452  0.0509
 9365TIP3    H149586   1.064   3.941  16.166  0.5934 -0.0500  0.9711
 9365TIP3    H249587   0.927   3.941  16.228  0.8222  0.5853  1.4889
 9366TIP3   OH249588   4.284   1.389   0.093 -0.2028  0.1237  0.4051
 9366TIP3    H149589   4.220   1.448   0.055 -2.0233 -1.3900  0.9526
 9366TIP3    H249590   4.362   1.442   0.106 -0.1679  1.2702 -3.3557
 9367TIP3   OH249591   1.364   5.636   2.375  0.2684 -0.6124  0.0514
 9367TIP3    H149592   1.320   5.719   2.395 -2.9409 -2.3299  0.6679
 9367TIP3    H249593   1.393   5.646   2.284 -2.1187  0.3871 -0.6695
 9368TIP3   OH249594   6.769   6.174  14.708  0.1386 -0.0141  0.2437
 9368TIP3    H149595   6.811   6.256  14.682 -0.9258  0.3170 -0.4614
 9368TIP3    H249596   6.839   6.109  14.704  0.7850  0.6864 -0.0728
 9369TIP3   OH249597   0.107   1.155  10.873  0.2097  0.4564 -0.0554
 9369TIP3    H149598   0.176   1.145  10.807  1.1836 -1.4376  1.1637
 9369TIP3    H249599   0.153   1.190  10.950  0.1326 -1.7873  1.1106
 9370TIP3   OH249600   2.583   1.296   4.852 -0.8382  0.1487 -0.0797
 9370TIP3    H149601   2.587   1.339   4.766  0.4895 -0.9021 -0.5814
 9370TIP3    H249602   2.508   1.236   4.845 -1.9738  1.4706  0.2229
 9371TIP3   OH249603   0.294   0.028   0.637 -0.4204 -0.3638  0.2366
 9371TIP3    H149604   0.307  -0.066   0.651  0.6986 -0.2618 -0.0580
 9371TIP3    H249605   0.361   0.053   0.575  0.6908  1.0550  1.8975
 9372TIP3   OH249606   5.328   1.385  15.020  0.3550 -0.4052  0.2228
 9372TIP3    H149607   5.285   1.429  15.093 -0.6014 -0.0580 -0.5357
 9372TIP3    H249608   5.281   1.414  14.942  0.1029 -2.2455 -0.3625
 9373TIP3   OH249609   3.866   3.835  12.333 -0.2943 -0.1441 -0.6230
 9373TIP3    H149610   3.822   3.878  12.260  0.2746 -0.0321 -0.9080
 9373TIP3    H249611   3.893   3.906  12.390 -0.9307 -0.2457 -0.1865
 9374TIP3   OH249612   1.797   1.212  12.776  0.8914 -0.1402 -0.0603
 9374TIP3    H149613   1.732   1.274  12.808  0.0342 -0.7243 -0.6102
 9374TIP3    H249614   1.850   1.191  12.852  0.7733  0.7432  0.2829
 9375TIP3   OH249615   1.158   5.193  13.893 -0.1618  0.0718  0.0868
 9375TIP3    H149616   1.170   5.286  13.873 -0.4970 -0.3322 -2.3367
 9375TIP3    H249617   1.201   5.148  13.820 -1.3958 -1.6438  0.3823
 9376TIP3   OH249618   2.937   1.383   2.254 -0.4881 -0.5594  0.6678
 9376TIP3    H149619   2.923   1.328   2.177  0.7948 -0.8107  0.5914
 9376TIP3    H249620   3.023   1.423   2.240  0.1752 -1.2893  2.3546
 9377TIP3   OH249621   3.545   5.051  11.796 -0.4294 -0.0900 -0.0985
 9377TIP3    H149622   3.541   5.145  11.815 -0.6399  0.4920 -2.6924
 9377TIP3    H249623   3.633   5.037  11.763 -1.1597 -0.2494 -2.1003
 9378TIP3   OH249624   3.599   2.096   5.045 -0.1036 -0.1578  0.9401
 9378TIP3    H149625   3.646   2.015   5.025 -0.3160 -0.2423  0.7847
 9378TIP3    H249626   3.507   2.074   5.031 -0.2444 -0.1677  1.8296
 9379TIP3   OH249627   3.649   6.123  15.913  0.3502  0.2151  0.1062
 9379TIP3    H149628   3.603   6.070  15.978 -1.3120  2.9733  1.3747
 9379TIP3    H249629   3.685   6.059  15.851  0.4442 -2.4507  2.6766
 9380TIP3   OH249630   3.957   4.364  14.409 -0.1969 -0.4621 -0.1922
 9380TIP3    H149631   4.040   4.343  14.365 -0.1821  2.8804 -2.0790
 9380TIP3    H249632   3.982   4.427  14.477 -1.1783  1.5245 -1.5639
 9381TIP3   OH249633   1.462   5.595   1.706  0.0808 -0.0160  0.0873
 9381TIP3    H149634   1.492   5.684   1.725 -1.8092  0.6753  0.0329
 9381TIP3    H249635   1.469   5.548   1.789  3.1854 -0.5361 -0.3447
 9382TIP3   OH249636   3.686   0.837   2.346 -0.2706 -0.0696  0.0449
 9382TIP3    H149637   3.668   0.851   2.439  1.0032  0.8356  0.1793
 9382TIP3    H249638   3.754   0.769   2.346 -1.7432 -1.6052 -0.3415
 9383TIP3   OH249639   1.534   5.642  13.086  0.7435 -0.6814 -0.4966
 9383TIP3    H149640   1.518   5.731  13.117 -1.1401 -0.5006 -1.8777
 9383TIP3    H249641   1.609   5.612  13.138 -0.7697  0.4064  2.5438
 9384TIP3   OH249642   0.549   5.918   2.352  0.7186 -0.0247  0.2137
 9384TIP3    H149643   0.642   5.893   2.350  1.2575  1.6671  1.4364
 9384TIP3    H249644   0.519   5.888   2.438  0.4510  0.4360  0.2820
 9385TIP3   OH249645   6.681   6.623  12.705 -0.8519  0.2788  0.8183
 9385TIP3    H149646   6.611   6.581  12.655 -0.8546  1.7408 -0.5133
 9385TIP3    H249647   6.760   6.575  12.681 -1.1135 -0.1253  0.7564
 9386TIP3   OH249648   0.040   1.758  15.808 -0.1078  0.1444  0.2911
 9386TIP3    H149649   0.126   1.792  15.786 -0.7046 -0.2082 -3.1236
 9386TIP3    H249650  -0.022   1.813  15.760 -1.6248 -1.0124  0.8058
 9387TIP3   OH249651   4.175   4.299  12.925 -0.5808  0.4782 -0.5070
 9387TIP3    H149652   4.135   4.227  12.876  1.6786 -1.9293  0.9441
 9387TIP3    H249653   4.240   4.336  12.865 -0.1082 -0.2807 -0.4719
 9388TIP3   OH249654   3.428   3.055   0.247  0.5146 -0.1164 -0.4433
 9388TIP3    H149655   3.501   3.114   0.228 -1.1589  1.9513 -0.8871
 9388TIP3    H249656   3.385   3.095   0.323 -1.7207  0.3200 -1.8641
 9389TIP3   OH249657   6.794   6.275   6.061  0.6151 -0.6115 -1.1574
 9389TIP3    H149658   6.889   6.269   6.071  0.5183  0.1557  0.6623
 9389TIP3    H249659   6.781   6.337   5.990  1.4792  0.0116 -0.7868
 9390TIP3   OH249660   1.731   2.967  16.827  0.5855  0.4302 -0.0002
 9390TIP3    H149661   1.804   2.905  16.822  1.7599  1.6276  1.3151
 9390TIP3    H249662   1.763   3.036  16.886 -0.6442  2.3008 -1.4168
 9391TIP3   OH249663   5.002   0.766  14.079 -0.4306  0.1248 -0.0319
 9391TIP3    H149664   5.056   0.700  14.122 -1.7158 -0.8917  0.0944
 9391TIP3    H249665   5.009   0.843  14.135  0.4100 -0.1742  0.2885
 9392TIP3   OH249666   6.408   0.426   0.508 -0.2005  0.1732 -0.0910
 9392TIP3    H149667   6.381   0.335   0.509  0.2268 -0.0696 -2.9068
 9392TIP3    H249668   6.370   0.462   0.427  4.0163  0.9576 -2.0176
 9393TIP3   OH249669   0.040   0.498   5.024 -0.0386  0.2890 -0.6968
 9393TIP3    H149670   0.002   0.415   4.995  1.0757 -0.8819  0.9656
 9393TIP3    H249671  -0.033   0.559   5.027 -1.1352 -0.9874 -0.7720
 9394TIP3   OH249672   4.220   0.102  13.670 -0.2617  0.2077 -0.0808
 9394TIP3    H149673   4.292   0.047  13.637  0.0332  1.1439 -1.0444
 9394TIP3    H249674   4.173   0.130  13.592 -0.4338  1.2920  0.3966
 9395TIP3   OH249675   6.347   4.117  16.202 -0.3434  0.0398  0.1410
 9395TIP3    H149676   6.333   4.091  16.111 -1.5474 -0.5258  0.4728
 9395TIP3    H249677   6.305   4.203  16.210 -0.2296  0.0944  0.1679
 9396TIP3   OH249678   5.377   4.079  16.637 -0.0672 -0.2750 -0.3448
 9396TIP3    H149679   5.317   4.131  16.691  0.0702 -1.5305  1.0660
 9396TIP3    H249680   5.323   4.049  16.563 -0.2848  1.3665 -0.9002
 9397TIP3   OH249681   3.339   6.500   2.437 -0.1149  0.0474 -0.0123
 9397TIP3    H149682   3.344   6.588   2.473 -0.2922  1.6741 -3.5168
 9397TIP3    H249683   3.421   6.489   2.388 -0.2949 -1.5686 -0.0010
 9398TIP3   OH249684   5.001   2.512  15.891 -0.2368 -0.2989 -0.1763
 9398TIP3    H149685   4.949   2.589  15.915 -0.1246 -0.5998  1.1079
 9398TIP3    H249686   5.080   2.548  15.850 -1.3720  0.1641 -2.1153
 9399TIP3   OH249687   2.345   6.006   0.362 -0.6827  0.0240  0.1980
 9399TIP3    H149688   2.414   5.945   0.337 -1.1979 -1.7375  2.7311
 9399TIP3    H249689   2.264   5.963   0.336 -0.9930  0.1810  0.8755
 9400TIP3   OH249690   0.594   0.485  14.107 -0.4394  0.0987 -0.1065
 9400TIP3    H149691   0.645   0.455  14.032 -0.3083  0.2885 -0.0952
 9400TIP3    H249692   0.633   0.570  14.130 -0.1292 -0.2126  0.5236
 9401TIP3   OH249693   3.646   3.708  12.430  0.2207  0.1430 -0.0191
 9401TIP3    H149694   3.689   3.653  12.496 -0.6979 -0.5970 -0.0134
 9401TIP3    H249695   3.716   3.763  12.395  0.8198  0.2023  1.2197
 9402TIP3   OH249696   6.495   1.150  12.055 -0.9257  0.3493 -0.1559
 9402TIP3    H149697   6.515   1.120  12.144 -1.2084  0.2189 -0.1382
 9402TIP3    H249698   6.436   1.224  12.066 -0.8105  0.4526 -0.2288
 9403TIP3   OH249699   3.304   5.953   6.313  0.3000 -0.2327  0.1175
 9403TIP3    H149700   3.261   5.971   6.230  0.6587  2.2824  0.3994
 9403TIP3    H249701   3.233   5.946   6.377  0.0964 -1.0336 -0.1746
 9404TIP3   OH249702   0.929   1.458  11.362  0.0227  0.4830 -0.0536
 9404TIP3    H149703   0.976   1.391  11.411  0.9401  0.3010 -1.1189
 9404TIP3    H249704   0.843   1.421  11.346  0.3227 -0.1963 -0.1081
 9405TIP3   OH249705   5.359   0.848   1.824  0.0489 -0.4063 -0.8492
 9405TIP3    H149706   5.429   0.911   1.843 -1.5776  1.5129 -0.8883
 9405TIP3    H249707   5.373   0.777   1.887  1.6285  0.2566 -0.4111
 9406TIP3   OH249708   5.636   0.941   0.181  0.2358 -0.5631  0.1872
 9406TIP3    H149709   5.720   0.968   0.218 -1.2717  0.5969  3.0737
 9406TIP3    H249710   5.649   0.946   0.086  3.7996 -1.8436  0.4697
 9407TIP3   OH249711   2.740   5.145   0.145 -0.3067 -0.6364 -0.3059
 9407TIP3    H149712   2.711   5.086   0.075  1.7758 -2.0711 -0.0553
 9407TIP3    H249713   2.825   5.110   0.171 -0.3609  0.7633  1.9396
 9408TIP3   OH249714   5.737   6.129  16.916  0.3049  0.1277  0.0626
 9408TIP3    H149715   5.752   6.223  16.929  0.5706  0.3750 -1.7973
 9408TIP3    H249716   5.643   6.118  16.927  0.4361  0.3527  1.6220
 9409TIP3   OH249717   2.181   0.681  10.275 -0.3173  0.5014 -0.3015
 9409TIP3    H149718   2.180   0.755  10.335  1.9309  0.2898  0.0617
 9409TIP3    H249719   2.260   0.693  10.222  0.1065 -1.6032 -0.2439
 9410TIP3   OH249720   6.466   4.135   6.794  0.2263 -0.4323  0.3758
 9410TIP3    H149721   6.524   4.112   6.867  1.7823  1.1902 -0.2873
 9410TIP3    H249722   6.516   4.112   6.716  0.8500  2.6335 -0.2586
 9411TIP3   OH249723   1.437   3.913  14.770  0.1701  0.0944  0.0662
 9411TIP3    H149724   1.346   3.899  14.747  0.5672  0.8584 -2.1939
 9411TIP3    H249725   1.442   4.006  14.795  0.1087 -0.2790  1.6116
 9412TIP3   OH249726   2.446   5.485  15.786 -0.3698 -0.2369 -0.6471
 9412TIP3    H149727   2.540   5.468  15.785 -0.6430 -2.3378  1.7033
 9412TIP3    H249728   2.439   5.579  15.800  1.3603 -0.0350 -0.8905
 9413TIP3   OH249729   6.323   4.361   2.507 -0.0948  0.1409 -0.3225
 9413TIP3    H149730   6.341   4.292   2.570  0.2481 -0.3599 -0.9601
 9413TIP3    H249731   6.242   4.402   2.539  0.5082  0.4281  0.8797
 9414TIP3   OH249732   6.032   3.897   1.698  0.1182 -0.2653 -0.2231
 9414TIP3    H149733   5.973   3.937   1.634  0.7708 -0.6135 -1.0575
 9414TIP3    H249734   6.084   3.835   1.647  0.6042 -0.5994  0.6633
 9415TIP3   OH249735   1.930   5.861  11.810  0.5998  0.5275 -0.1391
 9415TIP3    H149736   1.870   5.933  11.831  0.1183 -0.3553  1.6673
 9415TIP3    H249737   2.005   5.876  11.866  1.2530  0.5352 -0.9947
 9416TIP3   OH249738   5.701   2.553  13.982  0.2399 -0.4949 -0.1000
 9416TIP3    H149739   5.612   2.519  13.994 -0.7541  1.7755 -0.5419
 9416TIP3    H249740   5.731   2.574  14.071  0.7742 -2.1656  0.1531
 9417TIP3   OH249741   4.024   6.829  14.105  0.3365 -0.8171 -0.5566
 9417TIP3    H149742   4.117   6.819  14.126  0.3726  0.5805  0.0892
 9417TIP3    H249743   4.023   6.858  14.014  0.8468  2.8083  0.4224
 9418TIP3   OH249744   4.797   4.634  13.861 -0.1762 -0.1626 -0.2146
 9418TIP3    H149745   4.752   4.562  13.817  0.2171 -0.2654 -0.4583
 9418TIP3    H249746   4.890   4.615  13.849 -0.0665  0.2911 -0.1235
 9419TIP3   OH249747   2.063   6.610  11.423  0.9847 -0.2433  0.0118
 9419TIP3    H149748   2.035   6.622  11.333  0.8978  0.9425  0.1903
 9419TIP3    H249749   2.040   6.691  11.467  1.1148 -0.7715  1.0838
 9420TIP3   OH249750   4.843   1.607  14.678  0.2033 -1.4749  0.3753
 9420TIP3    H149751   4.906   1.545  14.716  0.3333 -1.2391  0.5516
 9420TIP3    H249752   4.879   1.628  14.592 -0.4078 -2.4739 -0.1271
 9421TIP3   OH249753   4.323   6.144  12.149 -0.1693  0.0844  0.0020
 9421TIP3    H149754   4.324   6.130  12.243 -0.4467  1.6784  0.2787
 9421TIP3    H249755   4.240   6.108  12.119 -0.1520 -0.2756  0.3886
 9422TIP3   OH249756   2.068   5.371  14.232 -0.2456 -0.4123  0.0423
 9422TIP3    H149757   2.008   5.297  14.228  1.1627 -1.5590 -0.5216
 9422TIP3    H249758   2.012   5.448  14.219 -1.8489 -1.2799  1.3313
 9423TIP3   OH249759   0.990   3.816  14.406  0.1310 -0.1698  0.3989
 9423TIP3    H149760   1.008   3.888  14.346  0.4876  0.5109  1.3031
 9423TIP3    H249761   0.901   3.831  14.437 -0.3581 -0.9727 -0.5505
 9424TIP3   OH249762   4.227   1.109  12.806  0.2083 -0.2752 -0.5534
 9424TIP3    H149763   4.184   1.194  12.807 -1.1290 -0.9016 -1.4962
 9424TIP3    H249764   4.299   1.119  12.743 -0.1460  0.0721 -0.9103
 9425TIP3   OH249765   5.276   4.745  16.823 -0.1377 -0.1403  0.1851
 9425TIP3    H149766   5.283   4.783  16.735  1.3945  1.2908  0.8606
 9425TIP3    H249767   5.367   4.733  16.850 -0.4706  2.1799  2.6867
 9426TIP3   OH249768   4.022   4.871   0.768 -0.5131 -0.1137  0.4967
 9426TIP3    H149769   4.097   4.931   0.773  0.7908 -1.6425  0.1128
 9426TIP3    H249770   4.003   4.863   0.674  0.2070 -1.3077  0.4318
 9427TIP3   OH249771   1.603   2.334  13.286 -0.5179  0.7570  0.2605
 9427TIP3    H149772   1.596   2.384  13.367  0.4200 -0.1077  0.9031
 9427TIP3    H249773   1.643   2.251  13.313 -0.6009  0.2869 -1.0191
 9428TIP3   OH249774   5.009   1.443  12.326  0.0346  0.4151  0.6184
 9428TIP3    H149775   5.055   1.525  12.308 -0.0571  0.6651  1.4474
 9428TIP3    H249776   4.924   1.454  12.283 -0.2436  1.0561  1.3037
 9429TIP3   OH249777   3.056   4.432   5.499 -0.0730 -0.2269  0.0876
 9429TIP3    H149778   3.100   4.411   5.417  0.4839  1.2802 -0.0216
 9429TIP3    H249779   2.994   4.360   5.512  2.0403 -2.1645 -0.0040
 9430TIP3   OH249780   2.193   5.662  11.981  0.1226 -0.9457  0.4630
 9430TIP3    H149781   2.188   5.592  11.915  0.8053 -0.3294 -0.2655
 9430TIP3    H249782   2.237   5.734  11.936  1.0204 -0.6720  1.7477
 9431TIP3   OH249783   2.701   4.069  14.351  0.6685 -0.0542  0.1088
 9431TIP3    H149784   2.767   4.103  14.291  0.9826  0.6014  0.8108
 9431TIP3    H249785   2.721   4.110  14.435 -2.4201  2.6172 -0.2663
 9432TIP3   OH249786   6.582   2.080   5.047  0.2011  0.4177 -0.1583
 9432TIP3    H149787   6.606   2.172   5.037 -1.2285  0.6480 -2.0308
 9432TIP3    H249788   6.518   2.079   5.118  0.7827  0.7378  0.3801
 9433TIP3   OH249789   4.023   1.984   3.000  0.2925  0.0007  1.0418
 9433TIP3    H149790   3.946   1.934   3.027  0.3473 -0.0143  1.1727
 9433TIP3    H249791   4.016   1.990   2.904 -0.0688  0.3334  1.0881
 9434TIP3   OH249792   0.261   3.348  11.440 -0.2496  0.2925 -0.0076
 9434TIP3    H149793   0.295   3.374  11.525 -1.2653 -1.1015  0.8769
 9434TIP3    H249794   0.338   3.317  11.392  0.2463  0.4883  0.6412
 9435TIP3   OH249795   3.172   1.335   0.573 -0.0260 -0.0607 -0.0460
 9435TIP3    H149796   3.099   1.361   0.628  0.0622 -3.6023  2.0225
 9435TIP3    H249797   3.141   1.259   0.524  1.8620 -0.8901 -0.0606
 9436TIP3   OH249798   6.654   3.023  13.608  0.2022  0.0058  0.3949
 9436TIP3    H149799   6.620   2.944  13.650  1.0339 -1.3745 -1.3618
 9436TIP3    H249800   6.604   3.029  13.526  1.0069  0.5798 -0.0657
 9437TIP3   OH249801   2.694   1.307  11.886  0.0875 -0.0759  0.3042
 9437TIP3    H149802   2.670   1.215  11.874  2.0690 -0.8596  1.7862
 9437TIP3    H249803   2.739   1.330  11.804 -0.2614 -0.4838 -0.0057
 9438TIP3   OH249804   5.039   4.639  13.126 -0.2305 -0.0007  0.0377
 9438TIP3    H149805   4.970   4.705  13.127  1.3292  1.7359 -0.9415
 9438TIP3    H249806   4.994   4.557  13.144 -2.3658  1.2101  0.5394
 9439TIP3   OH249807   6.352   1.420   4.148 -0.2080 -0.3294  0.2346
 9439TIP3    H149808   6.362   1.514   4.156  1.0611 -0.5476  1.5834
 9439TIP3    H249809   6.440   1.388   4.125 -0.8019 -1.1242 -1.1025
 9440TIP3   OH249810   3.076   1.975  11.869 -0.0916 -0.0499 -0.0196
 9440TIP3    H149811   2.981   1.963  11.873 -0.3399  0.1376 -2.9045
 9440TIP3    H249812   3.098   2.021  11.950 -2.3019 -0.9125  1.1538
 9441TIP3   OH249813   6.725   2.939  15.404  0.2612 -0.0467  0.1571
 9441TIP3    H149814   6.654   2.963  15.344 -0.4095  0.1716  1.0099
 9441TIP3    H249815   6.772   3.021  15.419 -1.3558  0.6016  2.1934
 9442TIP3   OH249816   1.146   2.811   1.361 -0.2538 -0.1988 -0.3506
 9442TIP3    H149817   1.109   2.865   1.291  0.6129  0.7937 -0.0637
 9442TIP3    H249818   1.098   2.728   1.355 -0.4258 -0.0162 -1.8981
 9443TIP3   OH249819   1.190   5.925  15.415  0.7596  0.0777  0.4025
 9443TIP3    H149820   1.127   5.989  15.448  0.4531  0.5190 -0.9625
 9443TIP3    H249821   1.237   5.895  15.493 -0.6431  0.2647  1.3593
 9444TIP3   OH249822   2.964   6.785  10.772 -0.1950  0.0062  0.4320
 9444TIP3    H149823   2.894   6.775  10.707 -0.3133 -1.9971  0.8005
 9444TIP3    H249824   3.041   6.809  10.721 -0.9130  1.2789 -0.0915
 9445TIP3   OH249825   0.888   0.332   3.483 -0.0384  0.4997  0.0172
 9445TIP3    H149826   0.954   0.316   3.550 -1.5236  1.7540  1.8816
 9445TIP3    H249827   0.860   0.245   3.454  1.0833 -0.0445  0.5360
 9446TIP3   OH249828   1.245   2.175  14.715 -0.0986 -0.2592 -0.0371
 9446TIP3    H149829   1.206   2.239  14.774  0.0507 -0.1492 -0.0564
 9446TIP3    H249830   1.318   2.222  14.673  0.5689 -0.7029  0.5980
 9447TIP3   OH249831   3.865   3.723   1.015  0.2289 -0.1708 -0.3779
 9447TIP3    H149832   3.858   3.793   1.080  0.5920 -1.1212  0.7111
 9447TIP3    H249833   3.955   3.693   1.022 -0.2069 -1.4483 -0.0919
 9448TIP3   OH249834   3.046   1.542   1.948 -0.1915  0.1165  0.2768
 9448TIP3    H149835   3.070   1.634   1.933 -1.9211  0.5004 -0.3670
 9448TIP3    H249836   3.096   1.517   2.026  1.5080  1.1027 -0.4370
 9449TIP3   OH249837   3.308   2.148  16.923  0.3907 -0.0181  0.1802
 9449TIP3    H149838   3.383   2.208  16.926 -0.5799  1.2031  2.7061
 9449TIP3    H249839   3.336   2.072  16.975 -0.3460  0.8263  1.8958
 9450TIP3   OH249840   5.561   0.652   2.546 -0.0329  0.3298  0.2068
 9450TIP3    H149841   5.548   0.665   2.640  0.6221 -1.6227  0.6257
 9450TIP3    H249842   5.496   0.586   2.522  0.8106 -0.3163 -0.3614
 9451TIP3   OH249843   5.344   4.492  15.267 -0.0880  0.1610 -0.3724
 9451TIP3    H149844   5.419   4.487  15.208  1.1370  0.5890  1.0870
 9451TIP3    H249845   5.326   4.586  15.276 -1.0662  0.0562 -0.9857
 9452TIP3   OH249846   2.087   0.301   1.544 -0.3179 -0.1374 -0.0892
 9452TIP3    H149847   2.149   0.241   1.586 -1.3399 -2.1310 -1.2519
 9452TIP3    H249848   2.051   0.250   1.471 -1.5798  1.7828 -0.8833
 9453TIP3   OH249849   6.254   4.272   5.406 -0.1096  0.3820  0.0396
 9453TIP3    H149850   6.349   4.285   5.411 -0.0352  0.0830 -0.4956
 9453TIP3    H249851   6.230   4.239   5.493  0.5573 -1.2321 -0.3545
 9454TIP3   OH249852   3.875   6.454  13.999 -0.5578 -0.4723 -0.0824
 9454TIP3    H149853   3.850   6.363  13.987 -0.6970 -0.2203 -1.9248
 9454TIP3    H249854   3.793   6.502  14.006 -0.5709 -0.1612 -1.9784
 9455TIP3   OH249855   2.367   0.337   1.165  0.8594 -0.3050  0.3248
 9455TIP3    H149856   2.333   0.398   1.230 -1.4467 -1.3508  0.2118
 9455TIP3    H249857   2.341   0.374   1.080  2.1586  0.0720  0.0646
 9456TIP3   OH249858   3.567   5.139   1.187 -0.3620 -0.1976  0.2628
 9456TIP3    H149859   3.556   5.219   1.135 -0.1055 -1.3161 -1.5991
 9456TIP3    H249860   3.587   5.071   1.123  0.0308 -1.6569  1.8561
 9457TIP3   OH249861   2.460   6.387   1.164 -0.5240  0.2218 -0.1867
 9457TIP3    H149862   2.422   6.302   1.142  2.2662 -1.4122  0.8572
 9457TIP3    H249863   2.463   6.388   1.260 -0.2193  1.3636 -0.1920
 9458TIP3   OH249864   1.641   6.097  10.613  0.1723 -0.5377 -0.7728
 9458TIP3    H149865   1.553   6.080  10.648  0.8568  1.1313  2.0774
 9458TIP3    H249866   1.626   6.121  10.521 -2.3624 -0.1214 -0.3256
 9459TIP3   OH249867   2.490   4.210  11.392  0.3244 -0.0967 -0.8888
 9459TIP3    H149868   2.481   4.172  11.304  0.2571  0.7646 -1.2592
 9459TIP3    H249869   2.500   4.134  11.450  1.0329 -0.6525 -1.7191
 9460TIP3   OH249870   1.162   0.374  14.189 -0.0443  0.4838 -0.0665
 9460TIP3    H149871   1.204   0.400  14.107 -1.1096 -1.2337 -1.2303
 9460TIP3    H249872   1.069   0.372  14.169 -0.2769 -0.5924  0.9921
 9461TIP3   OH249873   3.924   4.268   4.299  0.2944  0.1208  0.0263
 9461TIP3    H149874   3.940   4.342   4.241 -0.5311  0.6861  0.4966
 9461TIP3    H249875   3.950   4.191   4.248  1.0011  0.7182 -0.5285
 9462TIP3   OH249876   3.569   1.396   4.329  0.2963  0.1001  0.2460
 9462TIP3    H149877   3.529   1.475   4.293 -0.4465 -0.8018 -0.9903
 9462TIP3    H249878   3.642   1.378   4.271  0.4523 -0.1426  0.5148
 9463TIP3   OH249879   2.171   0.527   4.610  0.3950 -0.2445 -0.1901
 9463TIP3    H149880   2.205   0.457   4.554 -1.3253 -0.7385 -0.6588
 9463TIP3    H249881   2.103   0.485   4.663  0.5372  0.7000  0.7774
 9464TIP3   OH249882   6.037   2.314   1.219 -0.3902 -0.4846 -0.2515
 9464TIP3    H149883   5.988   2.361   1.152 -0.1770 -0.1199 -0.1556
 9464TIP3    H249884   6.038   2.374   1.294  1.6817  0.2590 -0.8201
 9465TIP3   OH249885   2.519   6.586  12.380  0.2603 -0.4364  0.5347
 9465TIP3    H149886   2.567   6.523  12.435  0.5871  0.2721  1.0782
 9465TIP3    H249887   2.567   6.668  12.390  0.9030 -0.5050 -1.6038
 9466TIP3   OH249888   2.938   2.548  14.762 -0.5191 -0.4119  0.7274
 9466TIP3    H149889   2.873   2.602  14.718 -0.9847  0.0103  1.9092
 9466TIP3    H249890   2.965   2.599  14.838  1.7088 -0.2629 -0.0670
 9467TIP3   OH249891   0.910   6.815  13.238  0.5527  0.2888 -0.0803
 9467TIP3    H149892   0.897   6.722  13.219 -0.3043  0.2289  0.7372
 9467TIP3    H249893   0.858   6.860  13.172  1.6529  0.2259 -1.0155
 9468TIP3   OH249894   0.903   1.485  11.726  0.5255 -0.6052 -0.8015
 9468TIP3    H149895   0.823   1.520  11.766  0.0471 -1.0118 -1.3856
 9468TIP3    H249896   0.875   1.451  11.641  1.5181  0.2193 -1.4791
 9469TIP3   OH249897   1.845   1.490  15.365  0.0642 -0.3408 -0.2926
 9469TIP3    H149898   1.906   1.558  15.336  1.0825 -2.8201 -4.6990
 9469TIP3    H249899   1.759   1.523  15.338  0.4015 -0.2150 -1.2494
 9470TIP3   OH249900   6.580   4.686   2.315  0.3510  0.2435 -0.8867
 9470TIP3    H149901   6.493   4.684   2.276  0.3948 -1.1951 -0.9566
 9470TIP3    H249902   6.566   4.722   2.402  0.0128  1.9508 -1.6055
 9471TIP3   OH249903   3.198   5.301   0.820 -0.0457 -0.0493  0.0021
 9471TIP3    H149904   3.163   5.317   0.908  0.3369 -1.1092  0.3641
 9471TIP3    H249905   3.160   5.217   0.794 -1.5543  1.0562 -1.5952
 9472TIP3   OH249906   1.823   1.030  15.852  0.0515  0.3934  0.2232
 9472TIP3    H149907   1.831   1.034  15.948  1.8109 -0.5073  0.1499
 9472TIP3    H249908   1.889   1.092  15.821  1.7519 -1.6423 -0.4066
 9473TIP3   OH249909   5.100   6.689   4.428  0.1114  0.3555 -0.0195
 9473TIP3    H149910   5.107   6.756   4.360  0.3289  0.9016  0.5264
 9473TIP3    H249911   5.112   6.606   4.382 -1.1599  0.6204 -0.8648
 9474TIP3   OH249912   3.567   3.802  16.075 -0.6339  0.0678 -0.2568
 9474TIP3    H149913   3.496   3.858  16.042 -1.8623 -1.4273 -0.2512
 9474TIP3    H249914   3.527   3.716  16.084  1.3372 -0.9490 -0.7631
 9475TIP3   OH249915   0.352   2.032  15.657 -0.5054  0.3214 -0.1858
 9475TIP3    H149916   0.312   2.112  15.691 -1.2265 -0.3393  0.5628
 9475TIP3    H249917   0.366   2.050  15.564 -0.0761  1.5436  0.1024
 9476TIP3   OH249918   1.109   6.781  11.610  0.6561  0.4686  0.5076
 9476TIP3    H149919   1.104   6.829  11.692 -1.8903 -1.4231  1.6089
 9476TIP3    H249920   1.156   6.701  11.632  0.0741  0.0096  0.1127
 9477TIP3   OH249921   5.845   4.957  16.621  0.0991 -0.3548  0.3951
 9477TIP3    H149922   5.889   4.881  16.659 -1.7030 -0.4251  2.5131
 9477TIP3    H249923   5.824   4.930  16.531  1.4288 -1.5086  0.3994
 9478TIP3   OH249924   5.666   0.611  14.446  0.0413 -0.0256  0.0463
 9478TIP3    H149925   5.695   0.582  14.532 -2.5862  1.8523  1.7152
 9478TIP3    H249926   5.741   0.660  14.411  0.4748  1.0506  2.2789
 9479TIP3   OH249927   0.896   6.354  14.510 -0.9438  0.3258  0.1223
 9479TIP3    H149928   0.873   6.351  14.603  2.1996 -0.1959  1.0047
 9479TIP3    H249929   0.879   6.444  14.483 -1.3464  0.6359  1.3628
 9480TIP3   OH249930   5.417   1.103  14.103  0.1416 -0.7952 -0.9370
 9480TIP3    H149931   5.436   1.147  14.020  0.4840  0.4130 -0.2394
 9480TIP3    H249932   5.408   1.174  14.166 -2.1646 -1.5615 -0.3101
 9481TIP3   OH249933   6.170   4.828   0.779  0.1042  0.4294  0.2458
 9481TIP3    H149934   6.126   4.749   0.811  1.2308 -0.1077  0.5466
 9481TIP3    H249935   6.112   4.863   0.712 -0.7762 -0.2327  0.6490
 9482TIP3   OH249936   2.494   6.462   4.036 -0.2611 -0.5547  0.4773
 9482TIP3    H149937   2.539   6.470   3.952  0.3261 -3.3037  0.4456
 9482TIP3    H249938   2.512   6.373   4.065 -0.6532  0.2200  3.4423
 9483TIP3   OH249939   1.354   1.033  12.545  0.1448 -0.5588 -0.1180
 9483TIP3    H149940   1.358   1.096  12.473  0.7152  0.0487  0.4370
 9483TIP3    H249941   1.434   1.047  12.594 -0.4694 -0.6197  0.9369
 9484TIP3   OH249942   4.023   1.923  12.240  0.8971 -0.4241 -0.5481
 9484TIP3    H149943   3.949   1.866  12.223 -0.2190  0.6451  0.5497
 9484TIP3    H249944   4.020   1.987  12.169  1.9806 -1.5061 -1.6179
 9485TIP3   OH249945   6.535   1.569   4.794  0.3370  0.5556  0.0810
 9485TIP3    H149946   6.525   1.653   4.837  2.1990  1.5293 -1.2414
 9485TIP3    H249947   6.591   1.587   4.718 -0.5828 -1.5593 -1.2092
 9486TIP3   OH249948   5.213   4.346  12.072  0.2421  0.5118 -0.2549
 9486TIP3    H149949   5.302   4.373  12.096 -0.1164  1.6096 -0.1252
 9486TIP3    H249950   5.199   4.264  12.120  1.6436 -0.3753 -1.2667
 9487TIP3   OH249951   1.845   4.937   1.442 -0.0719 -0.1843 -0.2972
 9487TIP3    H149952   1.846   4.976   1.530 -1.3663 -0.7534 -0.0197
 9487TIP3    H249953   1.891   5.001   1.387 -0.3892  0.7775  0.5420
 9488TIP3   OH249954   4.036   0.756   0.155  0.1283  0.3036  0.1639
 9488TIP3    H149955   4.001   0.676   0.195  0.6583  1.0963  2.3426
 9488TIP3    H249956   4.001   0.755   0.066  0.3278 -2.4688  0.0223
 9489TIP3   OH249957   3.049   5.422   4.288 -0.4314  0.5357 -0.0480
 9489TIP3    H149958   3.115   5.354   4.276 -1.3472 -0.2776 -0.6586
 9489TIP3    H249959   3.089   5.484   4.349  1.2692  0.5933 -1.1662
 9490TIP3   OH249960   5.853   0.284   1.022 -0.2259  0.4299 -0.1712
 9490TIP3    H149961   5.791   0.241   0.963  0.0302 -1.6373  0.9855
 9490TIP3    H249962   5.936   0.283   0.974 -0.1278 -0.7766  0.0069
 9491TIP3   OH249963   5.139   3.848  14.695 -0.2409 -0.5610  0.0623
 9491TIP3    H149964   5.052   3.855  14.735  0.0697 -1.4199  0.9396
 9491TIP3    H249965   5.190   3.798  14.759  0.5043 -1.2841 -1.0716
 9492TIP3   OH249966   5.715   3.305  15.716 -0.3619 -0.0235  0.5577
 9492TIP3    H149967   5.767   3.225  15.720 -1.7322 -1.0579 -1.1924
 9492TIP3    H249968   5.770   3.366  15.665  1.1322  0.6116  2.7533
 9493TIP3   OH249969   1.766   4.166  15.339 -0.3891 -0.2226 -0.1257
 9493TIP3    H149970   1.843   4.220  15.357 -0.3996 -0.8494  2.0597
 9493TIP3    H249971   1.691   4.223  15.357 -0.4026 -0.4026  0.4201
 9494TIP3   OH249972   5.197   6.145  12.630  0.1318 -0.0890  0.3161
 9494TIP3    H149973   5.287   6.114  12.627  0.3050  0.4791 -1.3161
 9494TIP3    H249974   5.199   6.229  12.583 -1.2513 -0.1125  0.1745
 9495TIP3   OH249975   3.062   0.315  10.798  0.7490 -0.4970  0.0151
 9495TIP3    H149976   3.009   0.289  10.723 -2.2308 -0.5355  1.9632
 9495TIP3    H249977   3.054   0.243  10.860 -1.3043  1.6057  2.4250
 9496TIP3   OH249978   4.979   2.574  14.539  0.6933  0.2933 -0.0870
 9496TIP3    H149979   4.973   2.574  14.443  1.3116  0.4435 -0.1309
 9496TIP3    H249980   5.073   2.568  14.557  0.4907 -1.2736  0.5267
 9497TIP3   OH249981   0.225   0.739   3.633  0.7600 -0.2116  0.1748
 9497TIP3    H149982   0.261   0.827   3.617 -0.0824 -0.3243 -2.9924
 9497TIP3    H249983   0.261   0.714   3.718  1.7225  2.8341  0.8065
 9498TIP3   OH249984   3.858   5.751   3.863 -0.3473  0.1030  0.6808
 9498TIP3    H149985   3.794   5.817   3.838 -0.0315  1.2260  2.6509
 9498TIP3    H249986   3.938   5.774   3.815 -0.4768  0.6887  0.7440
 9499TIP3   OH249987   4.274   1.811   1.002 -0.3187  0.3263  0.2198
 9499TIP3    H149988   4.344   1.841   0.944 -0.5847  0.5142 -0.0092
 9499TIP3    H249989   4.311   1.818   1.090 -0.0612  0.4565  0.1040
 9500TIP3   OH249990   2.944   1.386  10.804 -0.1405  0.5051 -0.2565
 9500TIP3    H149991   2.889   1.317  10.767 -1.0975  1.5198 -0.8309
 9500TIP3    H249992   2.890   1.465  10.796  0.0129  0.9609  2.4549
 9501TIP3   OH249993   2.942   3.594   5.166 -0.0747  0.1912  0.0521
 9501TIP3    H149994   2.962   3.673   5.114  1.9002 -0.5019 -0.3444
 9501TIP3    H249995   2.871   3.621   5.224 -0.2027  1.9368 -0.8309
 9502TIP3   OH249996   3.341   1.284   6.071 -0.4077 -0.3307  0.5096
 9502TIP3    H149997   3.423   1.265   6.117 -0.2627 -0.3719  0.2333
 9502TIP3    H249998   3.288   1.205   6.082 -0.1781 -0.5352  0.1812
 9503TIP3   OH249999   1.915   5.425   6.033  0.4297  0.3485 -0.0991
 9503TIP3    H150000   1.876   5.341   6.011  3.0673 -0.4909 -2.0260
 9503TIP3    H250001   1.876   5.448   6.117 -2.0446 -1.6626 -0.5604
 9504TIP3   OH250002   2.404   0.346   5.790  0.1366 -0.2632 -0.0059
 9504TIP3    H150003   2.359   0.332   5.874 -0.2718  1.3826  0.0876
 9504TIP3    H250004   2.361   0.286   5.729 -0.8700 -0.1216  0.5440
 9505TIP3   OH250005   5.047   4.187   0.030 -0.2606 -0.1218 -0.0536
 9505TIP3    H150006   5.065   4.255   0.095 -0.4822  0.7815 -0.9140
 9505TIP3    H250007   4.997   4.121   0.078 -3.4952  2.0933 -0.0217
 9506TIP3   OH250008   0.188   1.041  15.996 -0.2938  0.1527 -0.3685
 9506TIP3    H150009   0.155   1.002  15.915 -0.8593  1.7515 -0.9394
 9506TIP3    H250010   0.243   1.113  15.968  0.2444  0.1659  0.6684
 9507TIP3   OH250011   1.303   5.245   3.701 -0.4519 -0.1011 -0.7489
 9507TIP3    H150012   1.295   5.185   3.775 -1.1270 -0.0904 -0.8055
 9507TIP3    H250013   1.212   5.265   3.677 -0.2343  0.2386 -1.2979
 9508TIP3   OH250014   2.541   0.924  12.644 -0.5642  0.1003  0.0642
 9508TIP3    H150015   2.468   0.875  12.683  0.6031 -1.6781  0.1659
 9508TIP3    H250016   2.619   0.890  12.688  0.4901  0.5652 -1.3502
 9509TIP3   OH250017   1.319   2.511   2.308 -0.1648 -0.2612 -0.6954
 9509TIP3    H150018   1.295   2.515   2.401 -0.1835 -0.0969 -0.7073
 9509TIP3    H250019   1.235   2.497   2.263 -0.0260 -1.5341 -0.6054
 9510TIP3   OH250020   1.612   3.397   3.940  0.4272  0.6663  0.1253
 9510TIP3    H150021   1.546   3.431   3.880 -2.3906  0.5011  2.8773
 9510TIP3    H250022   1.680   3.465   3.942  0.1288  1.1232 -2.3830
 9511TIP3   OH250023   0.111   5.745   0.655  0.4289 -0.7432 -0.2744
 9511TIP3    H150024   0.183   5.794   0.615  0.3905 -0.8298 -0.4523
 9511TIP3    H250025   0.037   5.761   0.597 -0.9383  2.9958  2.1859
 9512TIP3   OH250026   4.679   0.226  11.373  0.4688  0.4251 -0.5838
 9512TIP3    H150027   4.613   0.167  11.412  0.6279  0.8230  0.3225
 9512TIP3    H250028   4.645   0.314  11.391 -0.3404  0.6593 -2.9067
 9513TIP3   OH250029   6.470   2.880   0.605 -0.0754 -0.3842  0.4625
 9513TIP3    H150030   6.471   2.886   0.701  0.6213  0.3377  0.4151
 9513TIP3    H250031   6.425   2.959   0.576  2.6123  1.1449  0.1027
 9514TIP3   OH250032   4.915   6.346   2.076  0.1819 -0.2241  0.5846
 9514TIP3    H150033   4.874   6.395   2.005  0.8523  0.1881  0.4698
 9514TIP3    H250034   4.914   6.255   2.046 -2.9483 -0.6508  1.6944
 9515TIP3   OH250035   4.055   5.868  15.594  0.3732 -0.1946 -0.4011
 9515TIP3    H150036   4.006   5.787  15.604  0.1329 -0.0477 -0.3658
 9515TIP3    H250037   4.002   5.921  15.535 -0.1106  0.4312  0.5628
 9516TIP3   OH250038   3.687   5.419  13.689  0.6058 -0.2572  0.4540
 9516TIP3    H150039   3.760   5.434  13.629  0.6884 -1.7611  0.1321
 9516TIP3    H250040   3.725   5.365  13.758  0.2101  0.4479  1.2331
 9517TIP3   OH250041   3.594   4.021  11.421 -0.6279 -0.1080  0.0015
 9517TIP3    H150042   3.533   3.990  11.488 -0.2710 -0.1006  0.3360
 9517TIP3    H250043   3.578   4.115  11.416  0.4480  0.1640  1.2343
 9518TIP3   OH250044   4.184   2.506   0.704  0.1316 -0.5867  0.6540
 9518TIP3    H150045   4.156   2.498   0.613  2.8961 -1.9439 -0.1722
 9518TIP3    H250046   4.172   2.419   0.742  1.2280 -0.6780  0.8450
 9519TIP3   OH250047   6.153   5.067   0.176 -0.8539 -0.2226  0.4579
 9519TIP3    H150048   6.145   5.097   0.267 -1.8363 -0.9123  0.6255
 9519TIP3    H250049   6.147   5.146   0.123  0.9299  0.3324  1.0188
 9520TIP3   OH250050   5.169   6.190  15.509  0.2662 -0.3619  0.3659
 9520TIP3    H150051   5.235   6.227  15.567  0.9058  1.6704 -1.5099
 9520TIP3    H250052   5.088   6.234  15.534  0.5691  0.6236 -0.3175
 9521TIP3   OH250053   0.287   0.582  14.572  0.1040 -0.4157 -1.0437
 9521TIP3    H150054   0.252   0.565  14.484 -0.6311  0.9478 -1.0237
 9521TIP3    H250055   0.319   0.496  14.601 -2.2441 -1.5242 -1.4868
 9522TIP3   OH250056   5.268   5.984  14.591 -0.4652 -0.0317  0.0969
 9522TIP3    H150057   5.220   5.957  14.669  0.2056  0.6424  0.7598
 9522TIP3    H250058   5.320   6.059  14.620  1.8470 -1.4006 -0.3016
 9523TIP3   OH250059   0.061   2.532   5.315  0.4967  0.0266  0.7331
 9523TIP3    H150060  -0.023   2.534   5.362  1.6643 -3.2118  3.3255
 9523TIP3    H250061   0.036   2.519   5.224 -1.8944 -1.5546  1.5131
 9524TIP3   OH250062   0.755   0.407   6.219  0.8641 -0.0988  0.4941
 9524TIP3    H150063   0.714   0.451   6.294 -0.0311  0.4706 -0.3077
 9524TIP3    H250064   0.806   0.476   6.176  1.1296 -0.3516  0.4016
 9525TIP3   OH250065   6.553   0.856  17.064  0.4227 -0.6301  0.1436
 9525TIP3    H150066   6.590   0.768  17.075  0.9916 -1.1074 -4.1678
 9525TIP3    H250067   6.628   0.915  17.066  0.2456 -0.4158  1.1143
 9526TIP3   OH250068   4.445   0.385   4.565 -0.3210  0.0223 -0.4588
 9526TIP3    H150069   4.481   0.299   4.547 -0.2511  0.2990 -1.7192
 9526TIP3    H250070   4.514   0.430   4.615 -1.2586 -1.3792  2.3221
 9527TIP3   OH250071   3.546   5.987   5.964 -0.1850 -0.2562  0.5845
 9527TIP3    H150072   3.574   6.061   5.911  1.7560 -0.9983  0.4776
 9527TIP3    H250073   3.482   5.942   5.909  2.3956 -1.5059 -1.6899
 9528TIP3   OH250074   5.350   6.051  16.370  0.1970  0.2404  0.3989
 9528TIP3    H150075   5.383   6.041  16.280  0.5511 -0.0393  0.5595
 9528TIP3    H250076   5.398   6.126  16.405  1.6846 -0.9637  1.0788
 9529TIP3   OH250077   2.817   4.080  10.811  0.0316 -0.5766  0.7468
 9529TIP3    H150078   2.764   4.157  10.793 -0.7287 -1.2697 -0.0795
 9529TIP3    H250079   2.898   4.114  10.848  0.6125  0.7677 -1.5936
 9530TIP3   OH250080   4.248   5.748   5.956 -0.1022  0.3550 -0.4630
 9530TIP3    H150081   4.334   5.707   5.949  0.5566  1.5709  0.2129
 9530TIP3    H250082   4.213   5.718   6.040  0.4479  1.2858  0.1057
 9531TIP3   OH250083   6.095   4.498   3.399  0.0089 -0.6815  0.0581
 9531TIP3    H150084   6.001   4.508   3.384  0.1254 -0.2716 -0.4045
 9531TIP3    H250085   6.137   4.536   3.321  0.5008 -3.7371 -1.3499
 9532TIP3   OH250086   5.149   2.333   4.661  0.0550  0.3192  0.3572
 9532TIP3    H150087   5.123   2.318   4.752 -0.5023 -1.1944 -0.0212
 9532TIP3    H250088   5.240   2.364   4.667  0.0469  0.1770  1.4261
 9533TIP3   OH250089   0.657   6.001   5.622 -0.1886 -0.0884 -0.1291
 9533TIP3    H150090   0.715   6.073   5.594 -2.0280  2.0139  1.1515
 9533TIP3    H250091   0.583   6.006   5.562 -0.8235 -0.2063  0.6384
 9534TIP3   OH250092   0.971   2.106   5.559  0.2984  0.6315 -0.2822
 9534TIP3    H150093   0.908   2.057   5.613  0.9695  1.3008  1.1698
 9534TIP3    H250094   0.946   2.197   5.571 -1.5582  0.7657 -3.7244
 9535TIP3   OH250095   4.886   0.022   5.511  0.5310  0.1035 -0.0702
 9535TIP3    H150096   4.947  -0.002   5.581  3.3127  3.3572 -1.0529
 9535TIP3    H250097   4.801   0.027   5.554  1.4898 -1.3951  2.2298
 9536TIP3   OH250098   2.225   5.616   4.098 -0.4180  0.2492 -0.5839
 9536TIP3    H150099   2.297   5.672   4.071  0.8132 -0.7089  0.5533
 9536TIP3    H250100   2.246   5.530   4.060 -0.9963 -0.0220 -0.3065
 9537TIP3   OH250101   1.658   2.346   5.205 -0.4749 -0.4910 -0.1302
 9537TIP3    H150102   1.644   2.284   5.133  1.8772 -2.6557  1.1251
 9537TIP3    H250103   1.698   2.423   5.164 -0.5702 -1.0637 -1.3310
 9538TIP3   OH250104   5.336   5.023  14.984 -0.5608  0.0027  0.2934
 9538TIP3    H150105   5.252   4.986  14.958 -0.6366 -0.9205  1.7461
 9538TIP3    H250106   5.313   5.092  15.046 -0.2433 -1.5686  2.2669
 9539TIP3   OH250107   4.746   1.491  16.650  0.7111 -0.0574  0.0807
 9539TIP3    H150108   4.775   1.568  16.601  0.8827 -0.2241 -0.0815
 9539TIP3    H250109   4.662   1.467  16.611  1.0958 -0.5038 -0.4837
 9540TIP3   OH250110   3.184   1.619  15.402 -0.0673 -0.4771  0.2679
 9540TIP3    H150111   3.112   1.556  15.410 -0.3830 -0.2342 -0.5737
 9540TIP3    H250112   3.261   1.565  15.384 -0.2483 -0.6612  0.0384
 9541TIP3   OH250113   6.366   1.625   0.750  0.1641 -0.1361  0.0706
 9541TIP3    H150114   6.441   1.592   0.701 -0.2580  1.3243 -1.6471
 9541TIP3    H250115   6.366   1.574   0.831  2.3586 -0.9069 -0.3545
 9542TIP3   OH250116   1.207   1.270   5.687  0.5693 -0.5935 -0.8248
 9542TIP3    H150117   1.121   1.308   5.673  0.1478 -1.2596 -0.1551
 9542TIP3    H250118   1.261   1.343   5.719 -0.2139 -0.5261  0.4165
 9543TIP3   OH250119   5.738   6.599   2.017 -0.9526 -0.1707  0.3696
 9543TIP3    H150120   5.670   6.569   1.956  0.5922 -1.0064 -1.0300
 9543TIP3    H250121   5.816   6.610   1.963  0.5702 -1.1614  2.2015
 9544TIP3   OH250122   2.945   3.762   3.511  0.1950 -0.2844  0.3272
 9544TIP3    H150123   2.932   3.823   3.585  1.1731 -1.1225  1.2235
 9544TIP3    H250124   2.911   3.810   3.435  0.0488  0.9993  1.1574
 9545TIP3   OH250125   1.132   4.888   5.315  0.2312  0.1780  0.5714
 9545TIP3    H150126   1.080   4.920   5.389  2.1687  1.3522  1.5125
 9545TIP3    H250127   1.216   4.865   5.354  1.8510  2.2487 -1.4199
 9546TIP3   OH250128   3.953   3.427  10.642  0.3007  0.0129  0.3810
 9546TIP3    H150129   3.938   3.361  10.710  2.7880  0.8477  1.8960
 9546TIP3    H250130   4.041   3.460  10.660  0.6130  1.1310 -2.5899
 9547TIP3   OH250131   1.970   5.723   4.048 -0.2115 -0.2384 -0.8081
 9547TIP3    H150132   2.060   5.692   4.057 -0.0959  0.2757 -0.0383
 9547TIP3    H250133   1.960   5.742   3.955  0.7574  0.4845 -0.7874
 9548TIP3   OH250134   1.001   1.706  11.840  0.2678 -0.4401 -0.0621
 9548TIP3    H150135   0.925   1.756  11.812 -0.1536 -1.5458 -1.0189
 9548TIP3    H250136   0.981   1.616  11.813  0.6216 -1.3008  2.3382
 9549TIP3   OH250137   1.858   1.781   5.644  0.1808  0.0598 -0.8548
 9549TIP3    H150138   1.796   1.841   5.686 -1.9118 -1.8842 -0.9071
 9549TIP3    H250139   1.815   1.757   5.562  0.3905 -2.2122 -0.3773
 9550TIP3   OH250140   1.737   5.989   1.592  0.0722 -0.3182  0.0151
 9550TIP3    H150141   1.769   5.935   1.520 -1.4587 -0.1211 -0.8579
 9550TIP3    H250142   1.814   6.002   1.648  1.0712 -1.2715 -1.0728
 9551TIP3   OH250143   0.614   3.836  13.510  0.3578  0.8183  0.1315
 9551TIP3    H150144   0.594   3.845  13.417 -2.0056  2.7747  0.7233
 9551TIP3    H250145   0.659   3.752  13.517 -1.9292 -0.7853 -2.4183
 9552TIP3   OH250146   2.617   4.610   0.294 -0.1031 -0.3179  0.3058
 9552TIP3    H150147   2.535   4.561   0.298  0.0150 -0.6580 -0.9690
 9552TIP3    H250148   2.666   4.580   0.371 -1.2958  0.1523  1.2754
 9553TIP3   OH250149   5.220   6.762   1.392 -0.3977  0.4383 -0.3690
 9553TIP3    H150150   5.282   6.692   1.372 -1.2879 -0.0625 -1.4627
 9553TIP3    H250151   5.262   6.812   1.461  0.1765 -1.3054  0.6128
 9554TIP3   OH250152   2.746   1.685  15.553 -0.2902 -0.2622  0.5466
 9554TIP3    H150153   2.750   1.755  15.489 -0.9798  1.4955  2.3130
 9554TIP3    H250154   2.785   1.723  15.632  5.3365 -3.8320  0.1099
 9555TIP3   OH250155   6.310   4.647  10.582  0.1211 -0.3494 -0.6589
 9555TIP3    H150156   6.230   4.659  10.532  0.3804 -0.6691 -1.1574
 9555TIP3    H250157   6.333   4.735  10.613 -0.5067 -0.2846 -0.3768
 9556TIP3   OH250158   0.751   1.063   1.420  0.4883  0.1477 -0.6442
 9556TIP3    H150159   0.690   1.136   1.431 -0.7174 -0.8630 -0.4653
 9556TIP3    H250160   0.822   1.099   1.365  0.2923  1.6456  0.0484
 9557TIP3   OH250161   4.796   0.079  12.917 -0.1610 -0.3756 -0.0689
 9557TIP3    H150162   4.759  -0.009  12.928  1.8815 -1.3173 -0.3463
 9557TIP3    H250163   4.886   0.072  12.947  0.6522  1.1105 -1.8987
 9558TIP3   OH250164   6.296   3.815   0.880  0.1663  0.2733 -0.1425
 9558TIP3    H150165   6.349   3.736   0.887  0.9177  0.6163 -1.5124
 9558TIP3    H250166   6.357   3.887   0.897 -0.6113  0.5667  1.5722
 9559TIP3   OH250167   4.940   4.764   2.298 -0.2730  0.1952 -0.4507
 9559TIP3    H150168   5.020   4.812   2.277 -0.5430  0.0362 -1.9298
 9559TIP3    H250169   4.968   4.697   2.361  0.8356 -0.0808 -1.2119
 9560TIP3   OH250170   2.051   5.385   0.006  0.0463 -0.5239  0.0658
 9560TIP3    H150171   1.966   5.423  -0.018  0.8436  1.9521  0.7926
 9560TIP3    H250172   2.104   5.392  -0.074  0.3709  0.5927  0.3476
 9561TIP3   OH250173   6.401   4.488  17.038  0.2403  0.0884 -0.7219
 9561TIP3    H150174   6.421   4.536  17.118 -0.4416 -2.0623  0.8359
 9561TIP3    H250175   6.484   4.481  16.992  0.1911  3.5381 -1.5640
 9562TIP3   OH250176   2.580   3.929   2.599  0.0605  0.4934  0.0859
 9562TIP3    H150177   2.630   3.976   2.533 -1.3520  1.2395 -0.5146
 9562TIP3    H250178   2.599   3.974   2.681 -1.6620  2.5686 -0.5535
 9563TIP3   OH250179   5.044   3.568   0.746  0.0546 -0.0520 -0.4758
 9563TIP3    H150180   5.112   3.625   0.711  0.2412  0.2527  0.3619
 9563TIP3    H250181   5.085   3.525   0.820 -0.7503  0.3846  0.2441
 9564TIP3   OH250182   3.493   5.735  16.937  0.0028  0.2766 -0.0402
 9564TIP3    H150183   3.516   5.735  16.845  0.3535  1.3139  0.0364
 9564TIP3    H250184   3.549   5.668  16.976  2.6735  2.3716  0.0586
 9565TIP3   OH250185   3.101   4.679   3.711  0.4342  0.2724 -0.3070
 9565TIP3    H150186   3.156   4.726   3.649  1.2265 -0.6328 -0.3096
 9565TIP3    H250187   3.087   4.741   3.783  0.1394  1.0595 -1.0225
 9566TIP3   OH250188   1.484   6.693   4.223  0.2832 -0.4448 -0.3680
 9566TIP3    H150189   1.536   6.750   4.168  1.6307 -2.3477 -1.1631
 9566TIP3    H250190   1.523   6.701   4.310 -0.7351  1.2046 -0.0051
 9567TIP3   OH250191   1.223   0.474  13.918  0.1415  0.2290 -0.2557
 9567TIP3    H150192   1.185   0.560  13.904  1.3508  0.8499  0.1603
 9567TIP3    H250193   1.308   0.478  13.875  1.5571  0.3266  2.3613
 9568TIP3   OH250194   3.935   5.825  10.178 -0.3241  0.1039  0.5762
 9568TIP3    H150195   3.870   5.754  10.184  0.5236 -0.7273  0.2044
 9568TIP3    H250196   3.926   5.857  10.088  0.5960 -0.8371  0.1294
 9569TIP3   OH250197   4.258   2.498  17.089  0.8457 -0.5965 -0.3374
 9569TIP3    H150198   4.327   2.435  17.069  0.5950 -1.2491  0.7747
 9569TIP3    H250199   4.181   2.465  17.042  1.3304  0.3010 -1.8316
 9570TIP3   OH250200   1.139   4.834   2.008  0.2537 -0.1850 -0.2359
 9570TIP3    H150201   1.119   4.873   2.093  0.0261 -1.1349  0.1690
 9570TIP3    H250202   1.212   4.885   1.973 -0.4563  0.9886 -0.0328
 9571TIP3   OH250203   1.606   2.976   6.000  0.5375 -0.6933 -0.8675
 9571TIP3    H150204   1.569   2.893   6.031  0.2726 -0.4650 -0.5690
 9571TIP3    H250205   1.543   3.042   6.027  0.0890 -0.5131 -2.2429
 9572TIP3   OH250206   0.024   5.639  10.532  0.1137 -0.3617  0.4045
 9572TIP3    H150207  -0.054   5.671  10.576  1.5010  0.0963  2.6694
 9572TIP3    H250208   0.062   5.716  10.489  0.4865 -0.1099  1.1746
 9573TIP3   OH250209   5.117   1.956  13.392 -0.1112 -0.5176 -0.4167
 9573TIP3    H150210   5.061   1.940  13.467  0.5583  1.4854  0.6037
 9573TIP3    H250211   5.060   1.946  13.316 -1.7722  0.9420  0.5541
 9574TIP3   OH250212   4.560   2.531  13.642  0.0125  0.6404 -0.3230
 9574TIP3    H150213   4.551   2.462  13.577  0.3762  0.6378 -0.3755
 9574TIP3    H250214   4.538   2.489  13.725  2.3274 -0.1546 -0.0321
 9575TIP3   OH250215   3.228   2.595  16.307  0.1339  0.0235 -0.1500
 9575TIP3    H150216   3.176   2.674  16.295  2.4836  1.7209  0.2502
 9575TIP3    H250217   3.169   2.534  16.352 -1.5414  1.7653  0.1106
 9576TIP3   OH250218   0.246   2.830   5.589 -0.1474 -0.6251  0.1636
 9576TIP3    H150219   0.216   2.921   5.597 -0.9210 -0.7881 -0.7435
 9576TIP3    H250220   0.277   2.823   5.498 -0.4649 -1.3719  0.1058
 9577TIP3   OH250221   4.178   4.111  13.690  0.4066  0.3060  0.2766
 9577TIP3    H150222   4.183   4.071  13.776 -1.4721  0.0019  0.2835
 9577TIP3    H250223   4.176   4.037  13.629  1.2872  0.5108 -0.0166
 9578TIP3   OH250224   6.678   1.856   6.175 -0.0862  0.7503  0.3278
 9578TIP3    H150225   6.626   1.780   6.202 -2.2754  1.9087 -0.4101
 9578TIP3    H250226   6.768   1.822   6.168 -1.2125 -2.2290 -1.6551
 9579TIP3   OH250227   0.342   1.627  12.579  0.3629  0.7334  0.1663
 9579TIP3    H150228   0.380   1.646  12.665  0.3756  0.7408  0.1594
 9579TIP3    H250229   0.254   1.596  12.598  0.1050  1.4318  0.1459
 9580TIP3   OH250230   6.433   6.701   3.991  0.3319  0.4732  0.0099
 9580TIP3    H150231   6.398   6.753   4.064  0.2833 -1.6390  1.5619
 9580TIP3    H250232   6.512   6.748   3.965  0.1933  1.4282  1.2062
 9581TIP3   OH250233   4.797   0.126   5.931 -0.0510  0.3838 -0.2054
 9581TIP3    H150234   4.776   0.044   5.886 -1.6625  1.4203 -1.4875
 9581TIP3    H250235   4.830   0.099   6.016 -2.8277 -1.6080  0.3998
 9582TIP3   OH250236   1.359   1.080  14.461  0.2498 -0.4482  0.1851
 9582TIP3    H150237   1.426   1.118  14.518 -0.5205 -0.4464  1.1081
 9582TIP3    H250238   1.292   1.046  14.520  1.1368 -3.8190 -0.5339
 9583TIP3   OH250239   1.483   5.202   0.524 -0.3122 -0.1064  0.0283
 9583TIP3    H150240   1.408   5.183   0.467  1.2712 -1.4893 -1.7027
 9583TIP3    H250241   1.533   5.267   0.476 -0.2989  0.6831  1.0984
 9584TIP3   OH250242   2.007   6.562   3.954 -0.0589 -0.7060 -0.0445
 9584TIP3    H150243   2.092   6.582   3.916  0.0870 -1.4966 -0.1516
 9584TIP3    H250244   1.948   6.628   3.917 -0.1961 -2.1677 -2.6945
 9585TIP3   OH250245   1.083   1.789   3.167 -0.6608 -0.0099  0.3676
 9585TIP3    H150246   1.159   1.844   3.149 -0.2294 -0.9232 -0.6863
 9585TIP3    H250247   1.094   1.712   3.111 -1.6656 -0.7991  1.1984
 9586TIP3   OH250248   3.717   5.363   4.328 -0.3865 -0.5274 -0.2930
 9586TIP3    H150249   3.669   5.289   4.366  0.4883  0.2238  2.5701
 9586TIP3    H250250   3.801   5.326   4.303 -1.0673 -1.0923 -1.8523
 9587TIP3   OH250251   5.964   4.034  15.838 -0.0137 -0.3060 -0.1901
 9587TIP3    H150252   5.928   3.996  15.758 -0.4616 -1.6021  0.6004
 9587TIP3    H250253   5.958   3.964  15.903  0.7308  0.5829  0.8743
 9588TIP3   OH250254   2.557   2.549   1.307  0.1699  0.4259  0.3221
 9588TIP3    H150255   2.644   2.514   1.324  1.2867  2.7591 -0.2296
 9588TIP3    H250256   2.571   2.623   1.248 -2.3002  0.2993 -0.5749
 9589TIP3   OH250257   0.928   1.482  12.066  0.3982  0.2298  0.0279
 9589TIP3    H150258   0.846   1.502  12.020 -0.0142 -1.5766 -0.0878
 9589TIP3    H250259   0.968   1.567  12.080 -1.4133  1.1585 -0.0844
 9590TIP3   OH250260   0.135   6.658   1.745  0.2419  0.4854 -0.5708
 9590TIP3    H150261   0.147   6.706   1.827 -1.0104  0.3315 -0.2771
 9590TIP3    H250262   0.106   6.723   1.682 -1.8687  0.0954 -0.0652
 9591TIP3   OH250263   4.978   5.778  15.911 -0.2832  0.5455  0.1895
 9591TIP3    H150264   4.979   5.685  15.936 -0.8349  0.2894 -0.7182
 9591TIP3    H250265   5.003   5.778  15.819 -1.7919  1.1469 -0.2473
 9592TIP3   OH250266   4.556   3.409  12.233  0.5698 -0.0982 -0.2684
 9592TIP3    H150267   4.600   3.366  12.307  1.0741  1.1815  0.2146
 9592TIP3    H250268   4.468   3.428  12.266  0.1269 -1.2859 -0.7044
 9593TIP3   OH250269   5.743   3.473  12.112 -0.1184 -0.0500 -0.6930
 9593TIP3    H150270   5.679   3.471  12.184 -0.9632 -0.8241 -1.4444
 9593TIP3    H250271   5.695   3.508  12.038  0.0124 -1.6168 -1.5526
 9594TIP3   OH250272   4.043   3.926  11.822  0.2881 -0.6654 -0.9146
 9594TIP3    H150273   4.114   3.986  11.800 -0.5608  0.4208 -0.8197
 9594TIP3    H250274   4.045   3.859  11.754 -0.1707  0.7681 -2.4062
 9595TIP3   OH250275   5.549   3.012   6.134  0.1467  0.1912  0.3555
 9595TIP3    H150276   5.537   3.004   6.228 -1.9099  0.8844  0.2072
 9595TIP3    H250277   5.601   3.092   6.123  1.3071 -0.4682  0.9164
 9596TIP3   OH250278   2.009   4.267   2.115  0.3571 -0.4411 -0.4393
 9596TIP3    H150279   1.975   4.334   2.175  1.3866  1.3348 -1.7261
 9596TIP3    H250280   1.931   4.224   2.080 -0.2873 -0.8941  1.4293
 9597TIP3   OH250281   1.660   5.408  16.543  0.0206  0.6647  0.5046
 9597TIP3    H150282   1.660   5.372  16.454  1.4513  2.5996 -0.3477
 9597TIP3    H250283   1.730   5.360  16.588  0.5024  0.8878  0.0147
 9598TIP3   OH250284   3.709   1.100   3.306  0.6760 -0.0177  0.2743
 9598TIP3    H150285   3.662   1.069   3.383 -1.8605 -0.3422 -1.2806
 9598TIP3    H250286   3.701   1.195   3.310  0.2686 -0.0478  0.2663
 9599TIP3   OH250287   1.521   3.566   0.280  0.5811  0.0752  0.1709
 9599TIP3    H150288   1.451   3.522   0.329  0.2821  0.1634 -0.1744
 9599TIP3    H250289   1.602   3.530   0.317  0.4257  1.6816  2.2056
 9600TIP3   OH250290   6.461   2.841  15.843 -0.6959  0.2495  0.1870
 9600TIP3    H150291   6.440   2.752  15.870 -1.1273  1.0071  2.5721
 9600TIP3    H250292   6.556   2.841  15.829 -0.7080 -0.5767  0.0657
 9601TIP3   OH250293   1.041   4.773   2.730 -0.1270  0.1769  0.1361
 9601TIP3    H150294   1.025   4.715   2.806 -1.2938  1.4018  0.8738
 9601TIP3    H250295   0.987   4.735   2.660 -1.3223  0.6472  0.7733
 9602TIP3   OH250296   6.310   0.088   4.704  0.3305 -0.1958  0.4076
 9602TIP3    H150297   6.243   0.021   4.717 -3.9401  3.5908  0.6977
 9602TIP3    H250298   6.325   0.088   4.610 -1.1343 -0.3301  0.1475
 9603TIP3   OH250299   2.016   3.062  11.771  0.4044  0.5746  0.0907
 9603TIP3    H150300   2.035   3.050  11.864  0.9589  0.3737 -0.0491
 9603TIP3    H250301   1.986   3.153  11.765 -0.5707  0.2988  0.6116
 9604TIP3   OH250302   2.566   3.579   5.485  0.0900  0.0795  0.5520
 9604TIP3    H150303   2.525   3.592   5.571  0.2254  0.6465  0.5333
 9604TIP3    H250304   2.493   3.565   5.425  0.0449 -1.9862  1.0235
 9605TIP3   OH250305   0.445   5.136  15.379  0.6406  0.1435 -0.0795
 9605TIP3    H150306   0.450   5.205  15.446  0.4813 -0.8008  0.9306
 9605TIP3    H250307   0.514   5.074  15.402  1.3058  0.3298 -1.4400
 9606TIP3   OH250308   0.483   4.677  12.078  0.5494 -0.1213  0.4124
 9606TIP3    H150309   0.469   4.658  11.986 -0.1052 -0.5939  0.6041
 9606TIP3    H250310   0.556   4.621  12.104  0.6171 -0.1185  0.2313
 9607TIP3   OH250311   1.565   3.401  12.934  0.1938  0.2832 -0.3482
 9607TIP3    H150312   1.608   3.408  13.020  0.6170  0.1862 -0.5504
 9607TIP3    H250313   1.588   3.482  12.889 -1.1530  0.9729  0.1261
 9608TIP3   OH250314   2.001   2.097  14.188  0.1518  0.0407 -1.0814
 9608TIP3    H150315   2.009   2.172  14.130  0.3298 -0.6612 -1.9893
 9608TIP3    H250316   2.091   2.063  14.196 -0.2401 -1.4662 -2.6005
 9609TIP3   OH250317   4.505   2.370  11.372 -0.8198 -0.5156  0.2600
 9609TIP3    H150318   4.426   2.405  11.330  0.8020  0.4047 -2.2493
 9609TIP3    H250319   4.566   2.354  11.300  2.0051  0.5873  2.2055
 9610TIP3   OH250320   2.396   1.361  10.796  0.7515 -0.5831  0.0642
 9610TIP3    H150321   2.388   1.437  10.739 -0.1003 -0.3889  0.4344
 9610TIP3    H250322   2.362   1.390  10.880 -0.2676 -1.5791  0.0177
 9611TIP3   OH250323   1.685   5.165  15.576  0.1273 -0.1617  0.9273
 9611TIP3    H150324   1.676   5.152  15.671  0.4326 -1.5058  0.7989
 9611TIP3    H250325   1.744   5.095  15.548 -0.1445  0.0741 -0.2916
 9612TIP3   OH250326   5.428   3.109  10.605 -0.5133  0.4499  0.0843
 9612TIP3    H150327   5.426   3.015  10.626  1.3321  0.1908 -0.7363
 9612TIP3    H250328   5.345   3.142  10.638 -0.5226 -1.1659  1.8830
 9613TIP3   OH250329   3.769   1.164   2.935 -0.1809 -0.1286  0.3923
 9613TIP3    H150330   3.845   1.174   2.992  0.4886 -0.1242 -0.4892
 9613TIP3    H250331   3.739   1.075   2.950  0.6011 -0.4661  0.0258
 9614TIP3   OH250332   0.358   4.101   4.402 -0.2220 -0.2193  0.2964
 9614TIP3    H150333   0.441   4.133   4.437 -0.6585  0.8878  0.3683
 9614TIP3    H250334   0.375   4.010   4.377  1.1407  0.1426 -0.1580
 9615TIP3   OH250335   0.772   6.127   3.824  0.1258  0.3339 -0.5840
 9615TIP3    H150336   0.842   6.187   3.797 -1.3170  2.4443  0.1044
 9615TIP3    H250337   0.691   6.169   3.794 -0.9495 -1.5055 -0.4357
 9616TIP3   OH250338   5.310   4.535  11.714 -0.5384  0.1952 -0.5198
 9616TIP3    H150339   5.219   4.559  11.696 -1.2764 -1.8477  0.2431
 9616TIP3    H250340   5.340   4.601  11.778 -1.1549  1.4309 -1.4711
 9617TIP3   OH250341   2.686   1.613  12.840 -0.3855 -0.0371  0.0531
 9617TIP3    H150342   2.634   1.685  12.804  0.5977  0.2634 -0.8226
 9617TIP3    H250343   2.672   1.540  12.779 -2.7182 -1.2200  1.8151
 9618TIP3   OH250344   4.817   2.766   3.865  0.2392 -0.5754 -0.8622
 9618TIP3    H150345   4.740   2.728   3.907  0.5448 -0.8834 -0.5780
 9618TIP3    H250346   4.863   2.812   3.935  1.0542 -1.5763 -0.7124
 9619TIP3   OH250347   0.783   5.075  16.418 -0.3925  0.5688 -0.6981
 9619TIP3    H150348   0.835   5.070  16.338  0.2614 -1.1725 -0.2166
 9619TIP3    H250349   0.719   5.143  16.401  1.0496  1.6982 -1.9058
 9620TIP3   OH250350   4.112   1.545  13.725 -0.4450  0.0927  0.0674
 9620TIP3    H150351   4.069   1.626  13.752 -0.3744  0.7756 -1.7672
 9620TIP3    H250352   4.205   1.568  13.719 -0.6251  0.4425 -2.2305
 9621TIP3   OH250353   4.794   5.646   0.089 -0.0729  0.4335  0.7639
 9621TIP3    H150354   4.768   5.559   0.121  1.9790 -0.9097 -0.9254
 9621TIP3    H250355   4.815   5.631  -0.003  1.1733  2.5623  0.6581
 9622TIP3   OH250356   2.428   2.604   1.919 -0.8277 -0.1425  0.1786
 9622TIP3    H150357   2.358   2.635   1.977 -0.2664  0.5341  0.5142
 9622TIP3    H250358   2.388   2.604   1.832 -0.6567  2.3421  0.0255
 9623TIP3   OH250359   4.533   1.548   0.175  0.1571  0.3302 -0.3124
 9623TIP3    H150360   4.600   1.557   0.243  0.9793  0.0877 -1.0714
 9623TIP3    H250361   4.581   1.556   0.092 -0.5585 -0.9860 -0.8964
 9624TIP3   OH250362   5.146   5.605  12.692  0.5799 -0.3084  0.1182
 9624TIP3    H150363   5.159   5.553  12.613  0.3950 -0.0306 -0.0991
 9624TIP3    H250364   5.192   5.557  12.761  1.6429 -0.0002 -0.3674
 9625TIP3   OH250365   6.101   6.186   3.926 -0.7129  0.3337 -0.3640
 9625TIP3    H150366   6.149   6.112   3.962 -1.7793 -0.8039 -1.1568
 9625TIP3    H250367   6.015   6.181   3.968 -0.3975  1.9182  0.5312
 9626TIP3   OH250368   1.890   2.066   3.221  0.2190  0.1405 -0.7961
 9626TIP3    H150369   1.858   2.085   3.310 -0.3044 -1.0035 -0.7208
 9626TIP3    H250370   1.985   2.063   3.230  0.1281 -0.8381 -0.0844
 9627TIP3   OH250371   5.776   6.431   2.846  0.4987  0.1346 -0.2389
 9627TIP3    H150372   5.730   6.418   2.929  1.0383 -1.7469 -0.1973
 9627TIP3    H250373   5.712   6.407   2.779  0.2563  1.0836 -0.3643
 9628TIP3   OH250374   0.409   1.372   4.817 -0.6082 -0.1902 -0.4015
 9628TIP3    H150375   0.477   1.439   4.809 -0.9449 -0.0340 -2.6436
 9628TIP3    H250376   0.371   1.387   4.903  1.7082  0.1528  0.6423
 9629TIP3   OH250377   6.392   4.855  14.712 -0.2316  0.0535  0.1726
 9629TIP3    H150378   6.341   4.936  14.714  0.2783  0.3916 -0.1390
 9629TIP3    H250379   6.451   4.862  14.787 -1.0648 -0.6243  0.9020
 9630TIP3   OH250380   2.344   3.732   6.703  1.0579  0.0956 -0.2247
 9630TIP3    H150381   2.393   3.814   6.690  2.2633 -0.7633 -1.4661
 9630TIP3    H250382   2.407   3.674   6.746 -0.0984  0.0785  1.5561
 9631TIP3   OH250383   3.251   4.959   0.169  0.3376 -0.8275 -0.1823
 9631TIP3    H150384   3.340   4.990   0.187 -0.2853  1.1523 -0.1785
 9631TIP3    H250385   3.222   5.013   0.094 -1.7100  0.4286  1.4020
 9632TIP3   OH250386   6.793   1.435  14.350 -0.4201  0.3683  0.0719
 9632TIP3    H150387   6.733   1.499  14.387 -2.0697 -0.0526 -1.6844
 9632TIP3    H250388   6.863   1.488  14.310 -0.3420  0.9209  0.9089
 9633TIP3   OH250389   3.154   4.229  11.679 -0.9941  0.4546 -0.5741
 9633TIP3    H150390   3.110   4.314  11.686  0.3472  1.3497 -2.2981
 9633TIP3    H250391   3.150   4.193  11.768 -1.5331  2.3499  0.2270
 9634TIP3   OH250392   3.361   4.408   0.829 -0.1932 -0.5533  0.3435
 9634TIP3    H150393   3.394   4.497   0.837 -1.1332 -0.1414 -0.1298
 9634TIP3    H250394   3.326   4.387   0.916 -0.0843 -0.4055  0.4222
 9635TIP3   OH250395   0.794   2.648  14.098 -0.1091 -0.0288  0.1641
 9635TIP3    H150396   0.845   2.653  14.179  2.9546  0.7563 -1.6563
 9635TIP3    H250397   0.826   2.569  14.055 -0.7326  0.2741 -0.8716
 9636TIP3   OH250398   1.466   0.562  13.568 -0.2594 -0.9119  0.3061
 9636TIP3    H150399   1.463   0.532  13.659 -1.3711 -0.4597  0.4406
 9636TIP3    H250400   1.466   0.658  13.575 -1.3583 -0.8672 -0.1781
 9637TIP3   OH250401   1.602   2.417  13.544 -0.4763 -0.5528  0.0093
 9637TIP3    H150402   1.625   2.366  13.622  1.0875  0.7033  0.4204
 9637TIP3    H250403   1.509   2.438  13.556 -0.5752 -1.4212  0.9084
 9638TIP3   OH250404   5.218   5.365  13.411 -0.0908 -0.5760  0.5974
 9638TIP3    H150405   5.220   5.438  13.349  0.9315 -0.3966  0.8322
 9638TIP3    H250406   5.297   5.376  13.464 -1.0851 -0.5503  2.1373
 9639TIP3   OH250407   0.311   6.022   1.262  0.5389 -0.0625 -0.2815
 9639TIP3    H150408   0.350   6.029   1.349  0.9928  0.1080 -0.4967
 9639TIP3    H250409   0.293   5.929   1.251 -0.8189  0.0828  0.5548
 9640TIP3   OH250410   4.545   6.078   5.324 -0.2912  0.0490 -0.4863
 9640TIP3    H150411   4.550   6.167   5.360 -1.4536  1.0347 -2.5529
 9640TIP3    H250412   4.466   6.041   5.362 -2.2929  1.5862 -2.8212
 9641TIP3   OH250413   1.388   3.298  16.480  0.3482 -0.5378  0.5125
 9641TIP3    H150414   1.463   3.309  16.539  0.6238  0.0074  0.0675
 9641TIP3    H250415   1.400   3.211  16.442  1.7191  0.1973 -0.8602
 9642TIP3   OH250416   0.573   2.626  13.777  0.0506 -0.4745  0.3792
 9642TIP3    H150417   0.531   2.709  13.758 -0.1754 -0.9938 -1.5726
 9642TIP3    H250418   0.629   2.609  13.701 -0.0872 -2.1982  0.6176
 9643TIP3   OH250419   2.672   0.883   0.431 -0.0284  0.3990  0.0361
 9643TIP3    H150420   2.733   0.833   0.485 -0.8885  0.4368  1.0769
 9643TIP3    H250421   2.615   0.927   0.494  2.8522  5.7680 -0.5038
 9644TIP3   OH250422   1.944   2.881   4.206 -0.2694  0.3796  0.6323
 9644TIP3    H150423   2.038   2.886   4.227 -0.2628  1.6861  0.3872
 9644TIP3    H250424   1.941   2.878   4.110 -0.4636 -0.4497  0.6582
 9645TIP3   OH250425   2.145   0.794   3.126 -0.1696  0.0867 -0.3723
 9645TIP3    H150426   2.137   0.713   3.075  0.3752  0.7864 -1.6296
 9645TIP3    H250427   2.208   0.773   3.195  1.7326  0.0094 -2.0228
 9646TIP3   OH250428   5.568   3.032  13.606  0.4242 -0.0684 -0.4131
 9646TIP3    H150429   5.559   2.958  13.666  1.2486 -0.3702 -0.6494
 9646TIP3    H250430   5.611   2.995  13.529  0.2384  0.5212 -0.8040
 9647TIP3   OH250431   2.828   4.477  16.881  0.0814  0.8220  0.2606
 9647TIP3    H150432   2.841   4.440  16.794 -0.1516  1.3219  0.0143
 9647TIP3    H250433   2.877   4.559  16.881 -0.6123  1.2425  0.3131
 9648TIP3   OH250434   1.905   1.585  16.240 -0.3610  0.0836 -0.3166
 9648TIP3    H150435   1.986   1.594  16.289 -0.9922 -2.3056  1.3218
 9648TIP3    H250436   1.842   1.550  16.303 -3.0849  2.9075 -1.1885
 9649TIP3   OH250437   4.493   1.897   2.108 -0.0155  0.0711  0.0192
 9649TIP3    H150438   4.487   1.895   2.204 -0.7425 -0.4999 -0.0261
 9649TIP3    H250439   4.403   1.911   2.079  0.2815  0.7870 -0.5766
 9650TIP3   OH250440   2.567   1.784   2.389 -0.1150  0.4833 -0.2428
 9650TIP3    H150441   2.609   1.720   2.446 -1.9981  0.1388  0.8605
 9650TIP3    H250442   2.531   1.850   2.450 -1.8613  0.2974 -1.0293
 9651TIP3   OH250443   4.904   5.428  13.218  0.7719  0.4728 -0.4258
 9651TIP3    H150444   4.876   5.339  13.194 -1.5571  1.6323 -2.4539
 9651TIP3    H250445   4.889   5.433  13.313  2.3268 -1.6979 -0.0001
 9652TIP3   OH250446   5.740   4.447  14.691  0.2068  0.2163  0.2505
 9652TIP3    H150447   5.704   4.486  14.771  0.2521 -0.0855  0.4218
 9652TIP3    H250448   5.664   4.423  14.639  0.1727  0.1999  0.3080
 9653TIP3   OH250449   1.457   0.015  13.745 -0.0705  0.1669 -0.0643
 9653TIP3    H150450   1.470   0.070  13.823 -0.8678  0.6521 -0.2685
 9653TIP3    H250451   1.543  -0.025  13.730  0.0434 -0.0841  1.1769
 9654TIP3   OH250452   1.304   2.208   3.399 -0.1637  0.0946 -0.3301
 9654TIP3    H150453   1.280   2.144   3.332  0.4248 -0.7584  0.2454
 9654TIP3    H250454   1.398   2.217   3.391 -0.1209  0.1663  0.2267
 9655TIP3   OH250455   0.349   2.753  11.876  0.2705 -0.2091  0.2029
 9655TIP3    H150456   0.381   2.832  11.919 -1.7565  0.0467  1.3935
 9655TIP3    H250457   0.295   2.786  11.804  0.3906 -0.5445 -0.0402
 9656TIP3   OH250458   2.349   0.526   2.909  0.3360  0.4927  0.6106
 9656TIP3    H150459   2.407   0.599   2.933  0.9284  0.1868  0.1540
 9656TIP3    H250460   2.368   0.458   2.973 -1.6377  1.4136  2.2484
 9657TIP3   OH250461   3.971   3.348   5.901  0.0473 -0.4133 -0.1417
 9657TIP3    H150462   4.041   3.282   5.907  0.0917 -0.7540 -3.0047
 9657TIP3    H250463   4.009   3.427   5.941  1.2282 -1.1918  0.3340
 9658TIP3   OH250464   5.075   2.466  12.813  0.2953  0.2822  0.1148
 9658TIP3    H150465   5.040   2.429  12.894  0.7093 -0.3013  0.0278
 9658TIP3    H250466   5.170   2.454  12.820  0.3845  0.7908 -0.1813
 9659TIP3   OH250467   4.917   0.408   1.774  0.1459  0.2382 -0.5627
 9659TIP3    H150468   4.908   0.355   1.695 -0.4853 -0.5517  0.0150
 9659TIP3    H250469   4.922   0.344   1.845  0.7582  0.9305  0.0316
 9660TIP3   OH250470   6.144   4.855   4.969 -0.1377  0.2354  0.2953
 9660TIP3    H150471   6.132   4.928   5.029  0.1459  2.2700 -2.0022
 9660TIP3    H250472   6.056   4.835   4.937 -0.2030 -0.4105  0.8472
 9661TIP3   OH250473   2.126   5.771  10.967  0.3228  0.2396  0.6431
 9661TIP3    H150474   2.114   5.865  10.980  0.5182  0.2542  0.7151
 9661TIP3    H250475   2.144   5.763  10.873 -1.8624  0.0565  0.1682
 9662TIP3   OH250476   4.727   6.387   3.230 -0.4208 -0.7697 -0.3241
 9662TIP3    H150477   4.642   6.407   3.191  0.5131  2.2405 -1.0943
 9662TIP3    H250478   4.717   6.411   3.323 -0.0561  1.0294 -0.7161
 9663TIP3   OH250479   2.554   4.934  15.791 -0.1214 -0.2728  0.1738
 9663TIP3    H150480   2.556   4.906  15.883 -0.8723  0.4854  0.4269
 9663TIP3    H250481   2.568   5.028  15.794  0.7624 -0.3634 -0.5699
 9664TIP3   OH250482   1.459   3.934  15.505  0.4439 -0.4434 -0.4392
 9664TIP3    H150483   1.424   3.899  15.423 -0.7703  0.3248 -0.2663
 9664TIP3    H250484   1.451   4.029  15.496  0.3691 -0.3527  0.5333
 9665TIP3   OH250485   0.147   1.903  14.691 -0.2114 -0.2480  0.1141
 9665TIP3    H150486   0.224   1.930  14.641 -0.7266  1.1711  0.0444
 9665TIP3    H250487   0.149   1.957  14.769 -1.8451  0.8024 -0.5205
 9666TIP3   OH250488   2.376   6.696  15.523 -0.7302  0.1484 -0.2077
 9666TIP3    H150489   2.408   6.692  15.433 -2.6987  0.2737 -0.9663
 9666TIP3    H250490   2.282   6.678  15.516 -0.8742 -0.1613  1.8687
 9667TIP3   OH250491   1.932   6.608   2.388  0.2285  0.1035 -0.1732
 9667TIP3    H150492   1.930   6.520   2.424  1.6506  0.7104  1.5118
 9667TIP3    H250493   1.980   6.600   2.305 -0.8363 -0.8909 -0.7189
 9668TIP3   OH250494   3.850   1.942   5.656  0.6615  0.0634  0.1486
 9668TIP3    H150495   3.768   1.977   5.690  1.0671  1.3939 -0.1772
 9668TIP3    H250496   3.836   1.938   5.561  0.1994 -1.8391  0.2664
 9669TIP3   OH250497   4.851   1.136  11.829 -0.1858 -0.4666  0.0838
 9669TIP3    H150498   4.807   1.181  11.757  0.7240 -0.6840 -0.6260
 9669TIP3    H250499   4.934   1.105  11.791  0.5561 -0.1217  1.3541
 9670TIP3   OH250500   5.099   3.007  14.934  0.4623 -0.5609 -0.3166
 9670TIP3    H150501   5.173   2.998  14.994  0.6680 -0.5001 -0.5591
 9670TIP3    H250502   5.116   2.943  14.865 -1.1474 -2.5723  1.0550
 9671TIP3   OH250503   3.747   5.347   3.285  0.2553 -0.1959  0.2668
 9671TIP3    H150504   3.793   5.425   3.255 -0.8381  0.8277  1.1660
 9671TIP3    H250505   3.803   5.309   3.353  0.2470  0.4820  0.6544
 9672TIP3   OH250506   1.525   3.651  14.685  0.1672  0.2646  0.1718
 9672TIP3    H150507   1.431   3.639  14.699  0.0214 -1.0569 -1.5566
 9672TIP3    H250508   1.537   3.746  14.681 -1.0527  0.4549  0.6295
 9673TIP3   OH250509   1.597   4.266   2.229  0.8022 -0.6766  0.3870
 9673TIP3    H150510   1.542   4.341   2.208  0.6137 -0.3738  1.8591
 9673TIP3    H250511   1.560   4.231   2.310 -0.3391 -3.5664 -1.2090
 9674TIP3   OH250512   4.246   6.184  16.978  0.0464  0.1406  0.1964
 9674TIP3    H150513   4.206   6.099  16.961  1.5585 -0.9347  1.6296
 9674TIP3    H250514   4.192   6.223  17.046 -0.3423  0.0793 -0.0756
 9675TIP3   OH250515   0.369   6.755  14.780  0.0089 -0.5157 -0.1024
 9675TIP3    H150516   0.402   6.672  14.747 -1.4808 -0.6281 -1.4471
 9675TIP3    H250517   0.363   6.811  14.703 -1.7925 -0.1644  0.2354
 9676TIP3   OH250518   5.220   2.064   4.587 -0.0680  0.0651 -0.0653
 9676TIP3    H150519   5.232   2.017   4.505 -3.4638 -0.4684 -0.4291
 9676TIP3    H250520   5.300   2.116   4.598  0.9021 -0.5623 -3.1904
 9677TIP3   OH250521   0.731   6.735   5.850 -0.1470  0.0106  0.1403
 9677TIP3    H150522   0.684   6.652   5.857  1.8587 -1.0994  1.2928
 9677TIP3    H250523   0.809   6.714   5.799 -1.0589  1.9402 -2.2686
 9678TIP3   OH250524   3.947   6.608   0.479 -0.0543 -0.6521  0.6978
 9678TIP3    H150525   3.987   6.694   0.489  0.5292 -0.6900 -1.0233
 9678TIP3    H250526   4.008   6.548   0.521  1.5010 -0.6361 -1.3716
 9679TIP3   OH250527   3.472   1.909  12.202  0.3107 -0.6519 -0.2437
 9679TIP3    H150528   3.429   1.918  12.287 -0.0764  1.1601 -0.5878
 9679TIP3    H250529   3.417   1.847  12.154  0.2744 -1.3363  0.6444
 9680TIP3   OH250530   6.716   6.008  12.288 -0.3675 -0.5172  0.0751
 9680TIP3    H150531   6.694   5.926  12.244  0.3292 -0.9630  0.5321
 9680TIP3    H250532   6.809   6.021  12.269 -0.9423  1.3074 -1.8223
 9681TIP3   OH250533   4.234   3.288  13.013  0.1157 -1.0624  0.2049
 9681TIP3    H150534   4.235   3.229  13.088 -0.0501 -1.3679 -0.0286
 9681TIP3    H250535   4.187   3.366  13.044  0.0672 -1.1776  0.4232
 9682TIP3   OH250536   4.050   5.268  16.185  0.3620 -0.4206  0.5000
 9682TIP3    H150537   4.092   5.184  16.205  0.9930 -0.4121 -0.7145
 9682TIP3    H250538   3.965   5.263  16.229  1.0544 -1.0044  1.8321
 9683TIP3   OH250539   6.720   0.682  14.264  0.5312 -0.0510 -0.7386
 9683TIP3    H150540   6.687   0.606  14.314  0.7339 -0.1990 -0.8286
 9683TIP3    H250541   6.805   0.701  14.303  1.4024 -1.1411 -2.0264
 9684TIP3   OH250542   5.941   6.784  15.984 -0.1254 -0.4869  0.0707
 9684TIP3    H150543   6.027   6.827  15.991  0.3280 -1.4244  0.3208
 9684TIP3    H250544   5.954   6.714  15.920 -1.5656  1.4143 -2.5058
 9685TIP3   OH250545   4.983   3.112  12.047 -0.3469  0.2709  0.1451
 9685TIP3    H150546   5.060   3.116  11.991  0.8594  0.1053  1.7062
 9685TIP3    H250547   4.958   3.020  12.048  1.5611 -0.3051  2.2747
 9686TIP3   OH250548   0.660   6.335   0.125  0.3044 -0.1039 -0.4323
 9686TIP3    H150549   0.748   6.340   0.089 -0.2788 -2.4155 -2.4262
 9686TIP3    H250550   0.616   6.413   0.092  2.0975  2.3654  2.4834
 9687TIP3   OH250551   3.269   6.069   1.835  0.3968 -0.8353  0.8626
 9687TIP3    H150552   3.250   6.096   1.745  1.2892 -0.5296  0.7573
 9687TIP3    H250553   3.342   6.008   1.828  0.9718 -0.2358  1.4334
 9688TIP3   OH250554   3.186   4.679   5.910 -0.3096  0.0056  0.0396
 9688TIP3    H150555   3.188   4.587   5.885  0.1392 -0.1538  0.6452
 9688TIP3    H250556   3.147   4.724   5.834  0.7446 -0.5050 -0.8305
 9689TIP3   OH250557   2.715   6.822  12.416  0.6480 -0.4712 -0.3229
 9689TIP3    H150558   2.692   6.859  12.331 -1.8467  0.5321  0.6642
 9689TIP3    H250559   2.652   6.862  12.477  1.5629 -2.0392  1.7945
 9690TIP3   OH250560   6.831   1.660   4.000 -0.0562  0.1430  0.1896
 9690TIP3    H150561   6.811   1.569   4.022 -0.1248  0.4866  1.6271
 9690TIP3    H250562   6.901   1.685   4.060  0.7203  0.7204 -0.9263
 9691TIP3   OH250563   0.223   0.421  11.752 -0.0876 -0.5089 -0.3636
 9691TIP3    H150564   0.285   0.351  11.736  0.2473 -0.0652 -1.0725
 9691TIP3    H250565   0.240   0.485  11.682 -1.6901 -0.6229 -0.9075
 9692TIP3   OH250566   0.620   2.199   0.246 -0.7530  0.1026  0.2464
 9692TIP3    H150567   0.692   2.261   0.260 -0.1586 -0.3946 -0.5190
 9692TIP3    H250568   0.591   2.175   0.334 -1.3620  1.8729  0.5652
 9693TIP3   OH250569   2.118   0.448  12.993  0.8300  0.8449 -0.1909
 9693TIP3    H150570   2.098   0.531  12.949  0.2491  0.0780 -1.4265
 9693TIP3    H250571   2.148   0.390  12.923  1.0173 -0.0571  0.6203
 9694TIP3   OH250572   4.040   4.546   1.434  0.4296  0.7474  0.2208
 9694TIP3    H150573   4.106   4.545   1.365  1.6755 -1.3016  1.3350
 9694TIP3    H250574   4.034   4.637   1.461  0.2928  1.5161 -2.1738
 9695TIP3   OH250575   5.515   0.439   1.170  0.1602  0.2056 -0.2656
 9695TIP3    H150576   5.466   0.358   1.185  1.0650 -0.4726 -0.8651
 9695TIP3    H250577   5.523   0.445   1.075 -1.0918  1.7521 -0.3118
 9696TIP3   OH250578   4.604   6.399   6.009  0.1338  0.5007  0.2800
 9696TIP3    H150579   4.652   6.482   6.002 -0.8360  1.4265  3.1639
 9696TIP3    H250580   4.582   6.392   6.102  0.5440 -3.2440  0.2572
 9697TIP3   OH250581   1.101   1.218   0.764 -0.1720 -0.1083  0.1512
 9697TIP3    H150582   1.098   1.187   0.673  0.2157 -2.4420  0.8575
 9697TIP3    H250583   1.191   1.202   0.791 -0.5752 -0.5761  1.2854
 9698TIP3   OH250584   0.561   2.113  15.870  0.2190  0.3456  0.2613
 9698TIP3    H150585   0.493   2.054  15.841 -1.3948  0.9748  2.4818
 9698TIP3    H250586   0.549   2.192  15.817  0.1978 -0.0894 -0.3858
 9699TIP3   OH250587   1.215   0.944   4.799 -0.1302  0.6535 -0.1706
 9699TIP3    H150588   1.283   1.009   4.780 -0.0941  0.9216  0.8300
 9699TIP3    H250589   1.178   0.971   4.883 -0.8503 -0.0159 -0.2559
 9700TIP3   OH250590   2.166   1.417   2.927  0.0333 -0.6262 -0.1497
 9700TIP3    H150591   2.154   1.429   3.021 -0.7918 -1.9537 -0.0626
 9700TIP3    H250592   2.102   1.476   2.887  1.2930  0.9439  0.0573
 9701TIP3   OH250593   6.672   1.464  13.376 -0.0405 -0.4430 -0.0159
 9701TIP3    H150594   6.634   1.422  13.453 -1.6430  1.5908  0.3815
 9701TIP3    H250595   6.739   1.522  13.411 -0.7633  0.4783 -0.1134
 9702TIP3   OH250596   0.030   1.527   1.774  0.0532 -0.3697 -0.0874
 9702TIP3    H150597   0.068   1.611   1.748 -0.2790 -0.1889  0.0175
 9702TIP3    H250598   0.064   1.512   1.863 -0.7853  0.1960  0.3395
 9703TIP3   OH250599   4.207   3.693   1.994 -0.0885 -0.2726 -0.3099
 9703TIP3    H150600   4.277   3.645   2.038 -0.4796 -0.7329 -0.1702
 9703TIP3    H250601   4.233   3.785   1.999  0.7994 -0.4955 -0.8156
 9704TIP3   OH250602   3.113   0.364  17.024 -0.6367 -0.0609  0.0819
 9704TIP3    H150603   3.202   0.338  17.047 -0.5595  0.6726  0.6402
 9704TIP3    H250604   3.098   0.445  17.072 -0.6832  1.2526 -2.0091
 9705TIP3   OH250605   3.777   4.599   4.652 -0.1705 -0.2178 -0.1410
 9705TIP3    H150606   3.817   4.662   4.711  0.0026 -0.9993  0.6003
 9705TIP3    H250607   3.733   4.537   4.710 -0.7070 -0.5244 -0.8724
 9706TIP3   OH250608   0.961   6.037   3.376 -0.1124  0.2738  0.0282
 9706TIP3    H150609   0.961   5.943   3.396  2.9399 -0.0153 -0.8287
 9706TIP3    H250610   0.874   6.053   3.339 -0.2065 -2.5783 -1.2765
 9707TIP3   OH250611   4.108   2.447   1.368 -0.0360  0.0195 -0.1294
 9707TIP3    H150612   4.146   2.503   1.301  0.7910 -1.0070 -0.5528
 9707TIP3    H250613   4.166   2.456   1.444 -1.2895  1.6257  0.6909
 9708TIP3   OH250614   2.040   0.485  15.010 -0.1113 -0.1061 -0.0833
 9708TIP3    H150615   1.952   0.488  15.047 -0.1592 -0.4668 -0.1655
 9708TIP3    H250616   2.072   0.575  15.017 -1.4526  0.6331 -2.4173
 9709TIP3   OH250617   2.036   0.421   4.833  0.1097 -0.2010 -0.3584
 9709TIP3    H150618   1.963   0.452   4.886 -0.3803 -2.0681  0.1522
 9709TIP3    H250619   2.114   0.434   4.888 -0.1145 -0.1262 -0.0576
 9710TIP3   OH250620   0.336   2.408  13.331 -0.3485 -0.2332  0.4590
 9710TIP3    H150621   0.249   2.412  13.292 -0.1143 -1.6505 -0.3004
 9710TIP3    H250622   0.386   2.353  13.271  1.5002  1.7240  0.1135
 9711TIP3   OH250623   3.407   6.134  14.609 -0.3712 -0.0197 -0.2949
 9711TIP3    H150624   3.369   6.178  14.686  0.5864 -0.6513  0.5741
 9711TIP3    H250625   3.480   6.191  14.584  0.6702 -0.8924  0.6345
 9712TIP3   OH250626   5.460   1.388   3.552  0.4974  0.2877 -0.4304
 9712TIP3    H150627   5.457   1.293   3.540 -1.5192 -0.0337  1.8652
 9712TIP3    H250628   5.539   1.403   3.605 -1.8169 -0.8995  3.7655
 9713TIP3   OH250629   2.791   0.472  17.039  0.0967 -0.2477 -0.5572
 9713TIP3    H150630   2.697   0.467  17.058  0.0541 -0.1859 -0.7476
 9713TIP3    H250631   2.833   0.435  17.116 -0.0098  1.3641  0.3136
 9714TIP3   OH250632   0.836   6.386   1.120 -0.8650  0.3831 -0.1849
 9714TIP3    H150633   0.931   6.394   1.126 -0.8530 -0.4581  1.0652
 9714TIP3    H250634   0.819   6.293   1.132 -1.7757  0.2771 -1.9236
 9715TIP3   OH250635   6.551   1.126   2.046  0.1266  0.1103  0.2503
 9715TIP3    H150636   6.502   1.204   2.020  0.4451 -0.2181 -1.4472
 9715TIP3    H250637   6.642   1.156   2.051  0.3267 -0.2402 -0.9460
 9716TIP3   OH250638   1.502   3.244  12.687 -0.0233 -0.1405 -1.0521
 9716TIP3    H150639   1.504   3.265  12.780 -0.0735 -2.5467 -0.4494
 9716TIP3    H250640   1.524   3.327  12.643  0.9793  0.8195  1.1149
 9717TIP3   OH250641   1.182   1.492   0.845 -0.3135 -0.2463  0.5956
 9717TIP3    H150642   1.246   1.475   0.914  0.3372  1.2856  0.4204
 9717TIP3    H250643   1.151   1.406   0.818  2.0803 -1.1030  0.3188
 9718TIP3   OH250644   1.743   0.536   5.471  0.8207  0.2625 -0.2992
 9718TIP3    H150645   1.702   0.614   5.508 -0.1233 -1.1959  1.9246
 9718TIP3    H250646   1.702   0.462   5.517  2.6951 -1.5018 -1.2598
 9719TIP3   OH250647   0.889   6.370   4.417  0.0412 -0.3086  0.3168
 9719TIP3    H150648   0.938   6.394   4.338 -0.0253 -0.5865  0.1912
 9719TIP3    H250649   0.956   6.361   4.485  0.0006  0.9156  0.5332
 9720TIP3   OH250650   6.607   5.116   4.305 -0.5937 -0.0920  0.4631
 9720TIP3    H150651   6.531   5.163   4.339 -0.2976 -0.4141  1.6300
 9720TIP3    H250652   6.665   5.108   4.380  1.3747  1.6227 -0.7606
 9721TIP3   OH250653   3.703   0.014   0.979  0.1574  0.0975 -0.6382
 9721TIP3    H150654   3.763  -0.016   0.911 -0.3964 -1.4449 -0.5081
 9721TIP3    H250655   3.749   0.087   1.021  0.9441  0.4207 -1.9845
 9722TIP3   OH250656   1.661   1.945   2.585 -0.2899  0.7785 -0.0009
 9722TIP3    H150657   1.650   2.015   2.649 -2.2439 -1.3263  2.1577
 9722TIP3    H250658   1.622   1.868   2.626  0.7226 -1.3601 -2.6992
 9723TIP3   OH250659   1.696   3.018  15.122  0.0103 -0.4028  1.0115
 9723TIP3    H150660   1.728   2.985  15.206  1.2433 -0.6632  0.4657
 9723TIP3    H250661   1.685   2.940  15.068 -1.8057 -0.3457  1.2298
 9724TIP3   OH250662   2.853   4.307  12.868  0.4226 -0.0302 -0.5652
 9724TIP3    H150663   2.905   4.234  12.903 -1.7521 -1.0436  0.7468
 9724TIP3    H250664   2.918   4.367  12.831  2.5917 -0.7799  1.7803
 9725TIP3   OH250665   6.070   2.815   2.668 -0.7169 -0.2090 -0.1211
 9725TIP3    H150666   6.123   2.774   2.600 -0.8802 -1.2382  0.3481
 9725TIP3    H250667   6.045   2.900   2.632  1.7736  0.6046 -0.1167
 9726TIP3   OH250668   5.411   6.782  14.275 -0.0697  0.4893  0.2837
 9726TIP3    H150669   5.481   6.790  14.341 -1.0501 -0.5671  1.5145
 9726TIP3    H250670   5.331   6.802  14.323 -0.6734  1.3133 -1.0180
 9727TIP3   OH250671   4.829   5.328  11.036 -0.0294 -0.4865  0.2630
 9727TIP3    H150672   4.816   5.405  11.091  0.1729 -0.8540  0.8311
 9727TIP3    H250673   4.765   5.338  10.965  1.4678  1.3238 -0.9259
 9728TIP3   OH250674   6.075   1.358   5.789 -0.1405  0.0464 -0.2969
 9728TIP3    H150675   5.990   1.400   5.803  0.8368  1.4870  1.8948
 9728TIP3    H250676   6.109   1.344   5.878  2.2208  0.2023 -1.1237
 9729TIP3   OH250677   0.434   6.845   1.914  0.0771 -0.7192 -0.1279
 9729TIP3    H150678   0.421   6.883   1.827  1.2134  1.2753  0.4978
 9729TIP3    H250679   0.354   6.866   1.962 -0.5288 -1.7754 -0.6514
 9730TIP3   OH250680   2.668   1.184   6.339  0.1541 -0.0446  0.1866
 9730TIP3    H150681   2.588   1.202   6.388 -0.2594 -0.4170 -0.3299
 9730TIP3    H250682   2.738   1.189   6.403 -0.2378  0.7088  0.5676
 9731TIP3   OH250683   1.458   3.443  15.240  0.8064 -0.3623 -0.6076
 9731TIP3    H150684   1.386   3.397  15.197 -0.2871  1.4827 -0.8283
 9731TIP3    H250685   1.433   3.535  15.238  1.7880  0.0401  1.9894
 9732TIP3   OH250686   3.009   1.444  13.340 -0.1885  0.0236  0.2535
 9732TIP3    H150687   2.992   1.388  13.415 -0.4408 -1.8717 -1.1546
 9732TIP3    H250688   3.091   1.412  13.303 -0.3939  0.4922 -0.6584
 9733TIP3   OH250689   1.273   4.745  17.012  0.5680 -0.1066 -0.0541
 9733TIP3    H150690   1.243   4.824  16.967  0.5297  0.0675  0.2773
 9733TIP3    H250691   1.269   4.677  16.945 -0.1175  0.0101 -0.1424
 9734TIP3   OH250692   6.135   2.103   3.890 -0.3905 -0.2239  0.4354
 9734TIP3    H150693   6.176   2.128   3.972 -3.5365  1.4388  1.6816
 9734TIP3    H250694   6.112   2.011   3.900  1.9106 -0.8920  0.1038
 9735TIP3   OH250695   6.153   4.109  15.456  0.4468  0.2272 -0.2963
 9735TIP3    H150696   6.206   4.053  15.513 -1.5343 -1.4105  0.0166
 9735TIP3    H250697   6.138   4.188  15.508 -1.9538 -1.5156  1.9522
 9736TIP3   OH250698   6.679   1.267   4.400 -0.2378  0.1709  0.0606
 9736TIP3    H150699   6.774   1.255   4.392 -0.1019  1.0713  0.2314
 9736TIP3    H250700   6.642   1.206   4.336  0.5187  1.1241 -1.3240
 9737TIP3   OH250701   3.387   4.383   0.555 -0.2900  0.2346 -0.1714
 9737TIP3    H150702   3.371   4.405   0.647 -0.6728 -1.7003  0.2589
 9737TIP3    H250703   3.436   4.301   0.558 -0.3053  0.1399 -1.6970
 9738TIP3   OH250704   3.574   2.343   5.258 -0.6081  0.5279  0.1350
 9738TIP3    H150705   3.592   2.269   5.200 -1.3941  0.3335  0.1340
 9738TIP3    H250706   3.556   2.303   5.343 -0.0432  0.7806  0.3785
 9739TIP3   OH250707   3.558   4.845  11.980  0.1825 -0.3964 -0.0834
 9739TIP3    H150708   3.576   4.913  11.915 -0.9961 -0.8087 -0.8853
 9739TIP3    H250709   3.592   4.765  11.942 -1.0917 -0.7533 -0.5118
 9740TIP3   OH250710   1.822   4.294   0.568  0.6777  0.1862  0.2678
 9740TIP3    H150711   1.797   4.224   0.508  1.5805 -0.3011  0.4314
 9740TIP3    H250712   1.801   4.375   0.520 -2.0380 -0.1253  0.7737
 9741TIP3   OH250713   2.870   5.941   0.519  0.5964 -0.5216 -0.6310
 9741TIP3    H150714   2.802   6.002   0.490 -0.7582 -1.5278  0.2851
 9741TIP3    H250715   2.911   5.910   0.438 -0.6344 -0.5361 -1.2695
 9742TIP3   OH250716   1.369   5.877   4.084 -0.7209  0.0651 -0.3812
 9742TIP3    H150717   1.424   5.856   4.159  0.0490  1.5330 -0.5044
 9742TIP3    H250718   1.413   5.950   4.041 -1.3548 -0.4873 -2.0511
 9743TIP3   OH250719   1.813   1.010  15.347 -0.5145  0.0229  0.0336
 9743TIP3    H150720   1.861   0.966  15.416 -1.4401  0.2477  0.8360
 9743TIP3    H250721   1.880   1.061  15.301  0.5197 -1.8886 -0.7093
 9744TIP3   OH250722   2.179   2.864  16.131 -0.3672  0.1259 -0.3949
 9744TIP3    H150723   2.201   2.857  16.224 -0.5780  1.1002 -0.2586
 9744TIP3    H250724   2.251   2.916  16.094  0.3176 -1.2060 -1.0229
 9745TIP3   OH250725   2.792   1.339  13.139 -0.1089 -0.0709 -0.2353
 9745TIP3    H150726   2.885   1.360  13.153  0.2619 -1.2559 -0.7425
 9745TIP3    H250727   2.792   1.284  13.061 -0.9232 -2.0952  1.0872
 9746TIP3   OH250728   3.948   5.660   1.926 -0.6116  0.4091 -0.1047
 9746TIP3    H150729   3.900   5.669   1.844  0.4490  2.0113 -0.5876
 9746TIP3    H250730   3.990   5.745   1.940 -0.0032 -0.1132  1.6228
 9747TIP3   OH250731   3.101   0.933   2.488 -0.0229 -0.0737  0.4846
 9747TIP3    H150732   3.072   1.024   2.501 -1.9780 -0.7029  0.9504
 9747TIP3    H250733   3.156   0.935   2.410  1.6840  1.8294  1.6491
 9748TIP3   OH250734   2.211   6.062  17.100  0.3032 -0.3473 -0.2660
 9748TIP3    H150735   2.288   6.050  17.155  0.4826 -3.1563 -1.0002
 9748TIP3    H250736   2.231   6.014  17.020 -2.4322 -1.6866 -0.2403
 9749TIP3   OH250737   6.248   6.111   5.811 -0.1957 -0.1208  0.4025
 9749TIP3    H150738   6.156   6.130   5.797  0.0517  0.1955 -0.9522
 9749TIP3    H250739   6.255   6.016   5.800 -0.2938 -0.0892  0.0536
 9750TIP3   OH250740   5.768   5.191  16.713 -0.1768 -0.3138  0.9101
 9750TIP3    H150741   5.755   5.197  16.808 -1.5899 -3.5576  1.0768
 9750TIP3    H250742   5.808   5.104  16.700 -0.4606 -0.1555 -1.4900
 9751TIP3   OH250743   1.388   5.424  15.950 -0.2655  0.1603 -0.0338
 9751TIP3    H150744   1.317   5.439  15.888  0.7867  0.6644 -1.1606
 9751TIP3    H250745   1.399   5.509  15.994 -0.8941 -0.1475  0.7357
 9752TIP3   OH250746   1.634   6.747   5.911  0.5221  0.5072  0.2991
 9752TIP3    H150747   1.622   6.771   6.003 -0.8675  2.5848 -0.3536
 9752TIP3    H250748   1.571   6.676   5.897  2.4621 -1.5702  1.4864
 9753TIP3   OH250749   1.589   5.557  12.829 -0.1137 -0.3455  0.5336
 9753TIP3    H150750   1.632   5.630  12.786 -0.4144  0.6079  1.8015
 9753TIP3    H250751   1.574   5.586  12.919 -2.0930 -1.1620  0.5439
 9754TIP3   OH250752   5.593   1.169   4.750 -0.2366  0.3194 -0.7158
 9754TIP3    H150753   5.603   1.074   4.752  2.2413  0.5032 -0.7349
 9754TIP3    H250754   5.651   1.198   4.679 -0.9644  1.8440 -0.7271
 9755TIP3   OH250755   4.678   1.181  13.074 -0.0688 -0.2435 -0.0534
 9755TIP3    H150756   4.622   1.107  13.048 -1.3295  0.7988 -0.4114
 9755TIP3    H250757   4.719   1.151  13.155 -1.6140 -0.8623  0.5578
 9756TIP3   OH250758   5.905   2.329  14.596 -0.3180 -0.3223 -0.1075
 9756TIP3    H150759   5.871   2.250  14.637  1.1581 -0.2212  1.3963
 9756TIP3    H250760   5.995   2.337  14.629  0.0403  1.2207 -1.3243
 9757TIP3   OH250761   3.348   0.791  16.371  0.2201 -0.3897  0.1157
 9757TIP3    H150762   3.386   0.747  16.295  0.3593  0.8132 -0.5242
 9757TIP3    H250763   3.364   0.884  16.356  0.3328 -0.1331  1.6614
 9758TIP3   OH250764   2.175   2.357  16.413 -0.1943 -0.0034 -0.0545
 9758TIP3    H150765   2.103   2.348  16.351  0.6883 -0.2244 -1.0894
 9758TIP3    H250766   2.241   2.295  16.382 -0.0814 -0.7867  1.6543
 9759TIP3   OH250767   2.519   2.473  15.700 -0.1315  0.1231 -0.2898
 9759TIP3    H150768   2.474   2.451  15.619 -0.0137 -1.0984 -0.0571
 9759TIP3    H250769   2.612   2.472  15.677 -0.0831 -0.5275 -0.0844
 9760TIP3   OH250770   1.434   1.261   4.023 -0.0626  0.1041 -0.2782
 9760TIP3    H150771   1.420   1.326   4.093 -0.8246 -2.1048  1.7841
 9760TIP3    H250772   1.529   1.258   4.012 -0.0514  2.9452 -1.9340
 9761TIP3   OH250773   0.159   0.773   2.368  0.4094 -0.0308  0.0770
 9761TIP3    H150774   0.139   0.839   2.301 -1.4059 -0.3557  0.2353
 9761TIP3    H250775   0.212   0.820   2.432 -0.6309  1.2482  0.0652
 9762TIP3   OH250776   0.735   3.162   1.713 -0.1174  0.8443 -0.2843
 9762TIP3    H150777   0.697   3.163   1.625 -0.7375  1.9951 -0.0218
 9762TIP3    H250778   0.672   3.211   1.767  0.7496  1.0377  0.5756
 9763TIP3   OH250779   0.356   4.806   3.030  0.2579 -0.3454  0.0134
 9763TIP3    H150780   0.276   4.830   3.078 -0.2116 -1.2688 -0.2869
 9763TIP3    H250781   0.369   4.878   2.969 -1.4367 -1.0476 -1.2581
 9764TIP3   OH250782   1.952   2.464  13.716 -0.9145  0.4338  0.6628
 9764TIP3    H150783   1.964   2.403  13.643  1.5241  1.8394 -0.2164
 9764TIP3    H250784   1.896   2.416  13.777  0.0499 -2.3139 -0.4186
 9765TIP3   OH250785   3.489   5.888  13.334  0.0424  0.3523  0.1849
 9765TIP3    H150786   3.539   5.846  13.404 -1.5974 -0.8901  0.6908
 9765TIP3    H250787   3.472   5.817  13.272 -0.6024  0.8821 -0.2516
 9766TIP3   OH250788   4.934   5.891  11.909  0.0217 -0.2184 -0.4768
 9766TIP3    H150789   4.855   5.868  11.860 -1.0733  0.6095  0.8400
 9766TIP3    H250790   5.006   5.869  11.849 -1.1815 -1.0478 -1.6864
 9767TIP3   OH250791   1.250   1.007  12.814  0.6621 -0.2318  0.0931
 9767TIP3    H150792   1.259   1.070  12.743 -0.5083  1.9472  1.7519
 9767TIP3    H250793   1.167   0.962  12.796  0.0059  0.8237  0.4356
 9768TIP3   OH250794   2.417   2.487   3.242  0.6028 -0.1756 -0.3852
 9768TIP3    H150795   2.505   2.524   3.245  0.2228  0.7160  0.3268
 9768TIP3    H250796   2.413   2.426   3.316  1.0027 -1.1333 -1.1398
 9769TIP3   OH250797   5.466   5.435  13.539  0.2951  0.3328  0.0235
 9769TIP3    H150798   5.557   5.462  13.540  0.3762  0.1837 -1.5871
 9769TIP3    H250799   5.417   5.517  13.552  0.6368  0.4738  0.4493
 9770TIP3   OH250800   1.237   0.112  16.587 -0.2744 -0.6085  0.2644
 9770TIP3    H150801   1.260   0.205  16.582 -0.4306 -0.5902 -0.1678
 9770TIP3    H250802   1.223   0.096  16.680  3.8184 -1.2102  0.9605
 9771TIP3   OH250803   6.450   5.553   3.644 -0.5888 -0.3323  0.4932
 9771TIP3    H150804   6.462   5.588   3.555 -0.4537 -1.2370  0.1489
 9771TIP3    H250805   6.503   5.610   3.699 -1.4005  0.8188  0.1357
 9772TIP3   OH250806   0.679   5.268   3.884 -0.5905 -0.0219  0.5149
 9772TIP3    H150807   0.674   5.238   3.794  0.4175  0.1105  0.4085
 9772TIP3    H250808   0.644   5.195   3.936 -2.3814  0.3919 -0.0510
 9773TIP3   OH250809   2.131   5.118  12.072 -0.1408 -0.2835  0.1556
 9773TIP3    H150810   2.145   5.086  12.161 -0.0274  0.7999  0.5433
 9773TIP3    H250811   2.036   5.118  12.061 -0.1836  0.1727  0.5063
 9774TIP3   OH250812   0.065   4.824   2.737  0.8095 -0.9483  0.3047
 9774TIP3    H150813   0.122   4.859   2.669 -0.6559 -0.0729 -0.5485
 9774TIP3    H250814  -0.004   4.891   2.747 -1.1848 -2.8025 -0.1859
 9775TIP3   OH250815   1.928   2.021   0.457 -0.0472 -0.6327 -0.1517
 9775TIP3    H150816   1.859   2.045   0.395  0.1951 -0.0709 -0.2129
 9775TIP3    H250817   1.884   1.964   0.520  0.0041 -2.3171 -1.5597
 9776TIP3   OH250818   5.360   6.075  14.013  0.6749 -0.7393 -0.5679
 9776TIP3    H150819   5.403   6.133  13.950 -1.0883  1.3050  0.0094
 9776TIP3    H250820   5.373   6.118  14.097  1.3273 -2.4339  0.2391
 9777TIP3   OH250821   6.751   5.191   2.563 -0.3263  0.3568  0.2204
 9777TIP3    H150822   6.813   5.260   2.538 -1.6996  1.2041 -1.0188
 9777TIP3    H250823   6.673   5.238   2.590 -0.4120 -0.6945  1.9404
 9778TIP3   OH250824   0.774   4.044   4.211 -0.5792 -0.2829 -0.2281
 9778TIP3    H150825   0.723   4.050   4.131 -0.0140  0.3837 -0.5533
 9778TIP3    H250826   0.828   3.965   4.200  2.4442  1.8430 -2.3454
 9779TIP3   OH250827   6.613   2.328  12.167 -0.2654  0.3341  0.2080
 9779TIP3    H150828   6.699   2.294  12.143 -0.8191 -0.4874 -0.7061
 9779TIP3    H250829   6.629   2.419  12.191  0.8346  0.2300 -0.0525
 9780TIP3   OH250830   3.975   3.863   3.060 -0.3957 -0.8931  0.0636
 9780TIP3    H150831   4.026   3.824   3.131  0.4761 -1.2499 -0.7431
 9780TIP3    H250832   4.039   3.882   2.992 -1.0321  0.5633 -0.1703
 9781TIP3   OH250833   5.476   3.250  15.110  0.3734 -0.2867 -0.5308
 9781TIP3    H150834   5.383   3.251  15.086 -0.0050 -1.2253  0.7891
 9781TIP3    H250835   5.520   3.214  15.033 -0.4522 -0.5737 -0.8813
 9782TIP3   OH250836   0.865   1.067  15.133  0.1096  0.0873  0.0803
 9782TIP3    H150837   0.852   0.973  15.144 -0.7376  0.3202  1.1922
 9782TIP3    H250838   0.904   1.096  15.215 -1.3604  1.0065  0.4848
 9783TIP3   OH250839   2.986   3.884   0.203  0.0281 -0.4580  0.6655
 9783TIP3    H150840   2.969   3.808   0.147 -0.9734 -1.0830  1.7799
 9783TIP3    H250841   2.980   3.958   0.143 -0.7812 -1.1254 -0.1271
 9784TIP3   OH250842   5.751   2.656   3.193  0.2572 -0.3218  0.1588
 9784TIP3    H150843   5.781   2.643   3.104 -0.4146 -0.7736 -0.0105
 9784TIP3    H250844   5.812   2.720   3.230  0.3378  0.1313 -0.7273
 9785TIP3   OH250845   4.137   1.399  11.922 -0.4593  0.1756 -0.4768
 9785TIP3    H150846   4.132   1.435  11.834  1.8038  0.9859 -0.3566
 9785TIP3    H250847   4.114   1.472  11.979  0.6264  0.4538 -0.3578
 9786TIP3   OH250848   5.729   5.174   2.458  0.0035 -1.0191 -0.3283
 9786TIP3    H150849   5.795   5.135   2.400  1.7353 -1.6255  1.8925
 9786TIP3    H250850   5.771   5.253   2.492 -0.4425 -1.3248  1.0020
 9787TIP3   OH250851   0.430   3.762  15.600  0.8906  0.2796 -0.2270
 9787TIP3    H150852   0.449   3.690  15.660 -1.2913 -1.1802 -1.1755
 9787TIP3    H250853   0.340   3.787  15.621  1.6330  2.9086  0.1922
 9788TIP3   OH250854   3.485   6.548  13.341 -0.7178  0.2686  0.3581
 9788TIP3    H150855   3.461   6.613  13.276 -2.3120 -2.3381 -1.9140
 9788TIP3    H250856   3.573   6.519  13.316 -0.9299 -0.0272 -0.0598
 9789TIP3   OH250857   1.075   0.272   6.369 -0.4731  0.3034 -0.5146
 9789TIP3    H150858   1.027   0.302   6.446 -0.7284  0.0036 -0.5546
 9789TIP3    H250859   1.072   0.346   6.308 -1.2859  0.1336 -0.6998
 9790TIP3   OH250860   1.129   0.806  11.570 -0.2383 -0.3174 -0.1746
 9790TIP3    H150861   1.087   0.850  11.497 -0.3364 -0.6492 -0.3222
 9790TIP3    H250862   1.198   0.866  11.598 -1.9149  1.0454  1.2288
 9791TIP3   OH250863   0.954   2.819   3.455  0.4324  0.2938  0.1941
 9791TIP3    H150864   0.910   2.824   3.539  1.5693 -4.0887  1.2893
 9791TIP3    H250865   0.909   2.749   3.408  1.4228  0.9284 -1.8595
 9792TIP3   OH250866   2.777   6.144  16.581 -0.5626  0.5735 -0.5145
 9792TIP3    H150867   2.719   6.114  16.510  0.0339 -2.4167  0.1168
 9792TIP3    H250868   2.732   6.118  16.661  0.5246  0.3851  0.0540
 9793TIP3   OH250869   4.724   3.557   5.257 -0.0396  0.5071 -0.2899
 9793TIP3    H150870   4.787   3.548   5.328 -0.9089 -0.2925  0.4023
 9793TIP3    H250871   4.675   3.636   5.278  0.3277  0.7955 -0.5099
 9794TIP3   OH250872   0.843   3.245  14.706 -0.2090  0.6637 -0.1161
 9794TIP3    H150873   0.933   3.216  14.694  0.7514  3.2829  0.1509
 9794TIP3    H250874   0.792   3.164  14.709  2.0615 -0.8784 -0.6498
 9795TIP3   OH250875   3.750   6.509  12.559  0.1904 -0.2171 -0.3221
 9795TIP3    H150876   3.834   6.495  12.514  0.8521  0.9515  0.4977
 9795TIP3    H250877   3.757   6.458  12.640 -0.4532 -1.1949 -0.8502
 9796TIP3   OH250878   5.579   0.306   2.336 -0.5425  0.1914 -0.1857
 9796TIP3    H150879   5.556   0.272   2.249 -0.8646 -0.3880  0.1204
 9796TIP3    H250880   5.506   0.365   2.358 -0.4750  0.3162 -0.2939
 9797TIP3   OH250881   5.928   5.967  15.700 -0.1410 -0.4041  0.0356
 9797TIP3    H150882   5.936   5.997  15.609  0.3103  1.2863  0.6128
 9797TIP3    H250883   5.948   6.044  15.753 -2.4690 -0.7634  1.5891
 9798TIP3   OH250884   5.477   2.014  16.106  0.1417 -0.6584 -0.3321
 9798TIP3    H150885   5.465   2.073  16.032 -0.0620 -0.3804 -0.0809
 9798TIP3    H250886   5.420   1.939  16.087 -1.3051  0.2081  0.3746
 9799TIP3   OH250887   6.332   5.564   5.002  0.0874  0.2217  0.4333
 9799TIP3    H150888   6.396   5.595   5.065  0.3614 -0.1942  0.3587
 9799TIP3    H250889   6.349   5.471   4.993 -1.6582 -0.2788  1.7510
 9800TIP3   OH250890   6.589   2.400  12.694  0.0183  0.5680 -0.3636
 9800TIP3    H150891   6.665   2.448  12.661 -0.5039  1.0599 -0.8697
 9800TIP3    H250892   6.558   2.350  12.619 -0.6720  1.0335 -0.3941
 9801TIP3   OH250893   4.679   4.272   4.795 -0.7800 -0.2457 -0.7153
 9801TIP3    H150894   4.586   4.287   4.814 -0.5260 -0.2358  0.6445
 9801TIP3    H250895   4.706   4.349   4.745 -1.8853 -1.0540 -2.6482
 9802TIP3   OH250896   5.122   2.658   5.074 -0.7406  0.1472  0.0207
 9802TIP3    H150897   5.106   2.731   5.133  1.9075  0.2318  0.7849
 9802TIP3    H250898   5.160   2.590   5.129 -2.0093 -1.3859 -0.8986
 9803TIP3   OH250899   1.320   1.205  11.772  0.0931 -0.3660  0.1009
 9803TIP3    H150900   1.298   1.285  11.820  0.5583 -1.2105  1.8180
 9803TIP3    H250901   1.282   1.135  11.824  0.9754 -1.3655 -0.5483
 9804TIP3   OH250902   4.283   2.138  15.438 -0.2737  0.2482  0.0783
 9804TIP3    H150903   4.230   2.186  15.374  0.2637  0.3633 -0.2908
 9804TIP3    H250904   4.373   2.154  15.411 -0.0601 -0.2697  0.4595
 9805TIP3   OH250905   0.672   5.929  15.903  0.2008  0.5914 -0.1304
 9805TIP3    H150906   0.710   5.860  15.957  0.5172 -0.0803 -1.1657
 9805TIP3    H250907   0.605   5.969  15.958  1.6791  1.1012  1.3640
 9806TIP3   OH250908   0.641   3.840  16.677 -0.5215 -0.0267 -0.3134
 9806TIP3    H150909   0.696   3.912  16.708 -1.8364  2.0616 -2.4637
 9806TIP3    H250910   0.560   3.848  16.728 -0.0114 -1.1866  0.7201
 9807TIP3   OH250911   0.226   4.851  13.158 -0.3039  0.4635  0.0715
 9807TIP3    H150912   0.305   4.905  13.153  0.7635 -1.1633 -2.4876
 9807TIP3    H250913   0.234   4.806  13.242  2.6509 -1.1617 -0.9099
 9808TIP3   OH250914   6.702   1.834   1.944 -0.5304  0.2443 -0.4418
 9808TIP3    H150915   6.694   1.858   2.036  1.4055  0.4718 -0.2970
 9808TIP3    H250916   6.667   1.745   1.939  0.4693 -0.2512  0.7915
 9809TIP3   OH250917   3.028   0.617  16.138  0.1865 -0.0078 -0.1551
 9809TIP3    H150918   3.110   0.574  16.163  0.4226 -0.3122 -1.3976
 9809TIP3    H250919   3.041   0.645  16.048 -0.3391  1.8046  0.2819
 9810TIP3   OH250920   5.375   0.915  13.868  0.4622  0.0995  0.8149
 9810TIP3    H150921   5.467   0.941  13.870  1.0638 -1.8957  1.6670
 9810TIP3    H250922   5.364   0.859  13.945 -0.5183 -2.5754 -1.0949
 9811TIP3   OH250923   4.440   1.534  15.024 -0.4115  0.2933  0.7912
 9811TIP3    H150924   4.346   1.522  15.036 -0.1896 -0.1538  2.3235
 9811TIP3    H250925   4.451   1.628  15.015 -0.9285  0.4236  1.4485
 9812TIP3   OH250926   4.213   5.172  13.181  0.2825 -0.4946 -0.6014
 9812TIP3    H150927   4.244   5.151  13.269  1.1219  2.3550 -0.1150
 9812TIP3    H250928   4.292   5.200  13.134 -0.3896 -0.5314 -1.7774
 9813TIP3   OH250929   4.875   1.524  13.794 -0.2085  0.2671  0.5356
 9813TIP3    H150930   4.858   1.600  13.738  0.5665  0.5939  0.7252
 9813TIP3    H250931   4.967   1.505  13.781 -0.3851 -0.6185  0.5358
 9814TIP3   OH250932   1.694   5.783  13.919 -0.3354  0.3546 -0.1716
 9814TIP3    H150933   1.631   5.759  13.987  0.7165  0.2904  0.8109
 9814TIP3    H250934   1.741   5.702  13.899  0.7606  0.7896  0.5375
 9815TIP3   OH250935   0.608   4.598  15.808  0.2141 -0.6568  0.8081
 9815TIP3    H150936   0.664   4.662  15.852 -0.5922  0.7122 -0.0745
 9815TIP3    H250937   0.543   4.573  15.874 -1.2539  1.7055  0.3917
 9816TIP3   OH250938   1.174   0.154   0.625 -0.1689 -0.4440 -0.2286
 9816TIP3    H150939   1.182   0.236   0.673  0.3328  1.1297 -2.8351
 9816TIP3    H250940   1.090   0.118   0.653 -0.1504  0.6730  1.3623
 9817TIP3   OH250941   1.410   1.756  12.802 -0.0964 -0.1247 -0.0102
 9817TIP3    H150942   1.455   1.727  12.881 -0.6523  1.2077  0.8395
 9817TIP3    H250943   1.396   1.850  12.816 -0.1004  0.1650 -1.7550
 9818TIP3   OH250944   0.704   5.788  15.073 -0.3997  0.1060  0.2520
 9818TIP3    H150945   0.712   5.834  15.156 -0.6719  0.3921  0.1242
 9818TIP3    H250946   0.610   5.769  15.065 -0.2734 -0.6034  0.3694
 9819TIP3   OH250947   0.165   6.833   6.937 -0.5355 -0.1442 -0.0290
 9819TIP3    H150948   0.197   6.768   6.874 -2.4045 -2.8232  1.5703
 9819TIP3    H250949   0.072   6.843   6.917 -0.6934  0.5784  0.9781
 9820TIP3   OH250950   3.622   3.569   6.236 -0.6251 -0.2119 -0.4418
 9820TIP3    H150951   3.710   3.535   6.256 -1.0044 -0.3142  1.1816
 9820TIP3    H250952   3.631   3.664   6.244 -0.3789 -0.1218 -1.5764
 9821TIP3   OH250953   0.054   3.459   1.990 -0.1177 -0.3291 -0.3060
 9821TIP3    H150954   0.077   3.367   1.978  2.3280  0.3381 -1.6286
 9821TIP3    H250955   0.114   3.490   2.057 -0.2648  0.5035 -0.5489
 9822TIP3   OH250956   6.093   0.635   5.685 -0.3080  0.0154 -0.0177
 9822TIP3    H150957   6.141   0.650   5.603 -0.4505 -0.8931 -0.2735
 9822TIP3    H250958   6.151   0.668   5.753  0.0942  0.1777 -0.4366
 9823TIP3   OH250959   2.404   5.081  14.535  0.9829  0.5691  0.0822
 9823TIP3    H150960   2.314   5.050  14.530  1.6368 -1.6346  0.7100
 9823TIP3    H250961   2.457   5.005  14.509  2.6582  1.8423 -0.3912
 9824TIP3   OH250962   2.260   1.389   4.858 -0.5439 -0.5258  0.1944
 9824TIP3    H150963   2.198   1.422   4.794 -0.7517 -0.8697  0.2192
 9824TIP3    H250964   2.259   1.294   4.847  1.2413 -0.4687 -1.0016
 9825TIP3   OH250965   5.704   6.108  11.441 -0.1705 -0.1356  0.4073
 9825TIP3    H150966   5.647   6.147  11.506  1.1138  0.6825  1.0891
 9825TIP3    H250967   5.775   6.171  11.430 -1.1120  0.5217 -2.9928
 9826TIP3   OH250968   0.873   2.528  11.194  0.0740  0.5626  0.5264
 9826TIP3    H150969   0.886   2.529  11.099 -1.2121  1.2365  0.3500
 9826TIP3    H250970   0.872   2.435  11.216  0.0536  0.3922 -0.1622
 9827TIP3   OH250971   0.191   0.449  14.361 -0.2078 -0.0433  0.2329
 9827TIP3    H150972   0.109   0.419  14.321  0.5319  0.8047 -2.0721
 9827TIP3    H250973   0.252   0.456  14.288  1.3624  1.2325  1.5999
 9828TIP3   OH250974   3.670   4.308  14.147 -0.3644  0.0011 -0.3327
 9828TIP3    H150975   3.749   4.363  14.150 -0.3239 -0.1078  0.8890
 9828TIP3    H250976   3.599   4.366  14.176 -0.2490 -0.6852  1.4267
 9829TIP3   OH250977   6.246   3.880  17.027 -0.3742  0.3731 -0.4385
 9829TIP3    H150978   6.194   3.866  16.947 -0.0768  0.1598 -0.5968
 9829TIP3    H250979   6.295   3.799  17.038  1.6736  1.3593 -1.5820
 9830TIP3   OH250980   2.573   0.015   2.098 -0.7121 -0.6687  0.2749
 9830TIP3    H150981   2.655   0.052   2.065 -0.1096 -1.3072  1.0343
 9830TIP3    H250982   2.505   0.077   2.068  0.0352 -0.1396 -0.3630
 9831TIP3   OH250983   4.952   5.368  16.241  0.1174  0.4141 -0.2115
 9831TIP3    H150984   4.967   5.439  16.178  0.0180  0.6694  0.0441
 9831TIP3    H250985   5.030   5.370  16.297  0.4588 -0.1733 -0.6653
 9832TIP3   OH250986   0.818   1.346   5.870 -0.6132  0.1920  0.3862
 9832TIP3    H150987   0.770   1.331   5.952 -2.3820  0.9876 -0.4490
 9832TIP3    H250988   0.819   1.260   5.827 -2.8941  0.4799 -0.3627
 9833TIP3   OH250989   2.303   0.440  15.582 -0.4328 -0.2426  0.4157
 9833TIP3    H150990   2.221   0.394  15.563  0.6404 -1.4570 -1.6724
 9833TIP3    H250991   2.369   0.371  15.584  0.7899  0.8833  0.3941
 9834TIP3   OH250992   5.808   3.902  15.611  0.3765  0.0090 -0.7236
 9834TIP3    H150993   5.845   3.861  15.533 -0.9803 -0.1133 -1.3273
 9834TIP3    H250994   5.736   3.956  15.579 -1.2347 -1.2620  0.5410
 9835TIP3   OH250995   0.007   6.075   2.981 -0.0242 -0.3099 -0.0444
 9835TIP3    H150996  -0.087   6.079   3.002 -0.2617 -0.1595 -1.0990
 9835TIP3    H250997   0.046   6.140   3.040 -0.3522 -1.4032  1.4588
 9836TIP3   OH250998   4.253   3.009  15.478 -0.1617 -0.2081 -0.0055
 9836TIP3    H150999   4.299   2.962  15.409  0.6632  2.1013 -1.1289
 9836TIP3    H251000   4.270   3.101  15.460 -0.0087  0.5235  3.2328
 9837TIP3   OH251001   1.989   6.199   4.797  0.1415  0.6369 -0.8058
 9837TIP3    H151002   2.021   6.285   4.771  0.6722  0.7912  0.2967
 9837TIP3    H251003   1.895   6.211   4.811  0.0371  0.7914 -1.6004
 9838TIP3   OH251004   5.535   3.526  10.789  0.3605 -0.4362 -0.2483
 9838TIP3    H151005   5.454   3.551  10.834  1.0394  0.0305  0.7346
 9838TIP3    H251006   5.508   3.513  10.698 -1.0374 -1.3641  0.2585
 9839TIP3   OH251007   2.594   5.454   1.578 -0.0818  0.0530 -0.4799
 9839TIP3    H151008   2.575   5.364   1.549 -2.4883  0.3416 -0.0245
 9839TIP3    H251009   2.610   5.503   1.498 -3.4304  0.1459 -1.2361
 9840TIP3   OH251010   5.727   1.218  15.996  0.4331  0.0504  0.5841
 9840TIP3    H151011   5.797   1.217  15.930  1.2532 -1.7227  1.4105
 9840TIP3    H251012   5.661   1.276  15.960  0.9497 -0.6785 -1.6917
 9841TIP3   OH251013   4.575   5.753  12.087 -0.3836  0.2054  0.1450
 9841TIP3    H151014   4.556   5.846  12.074 -1.9128 -0.1468 -0.3626
 9841TIP3    H251015   4.543   5.734  12.175 -0.3783  0.0893  0.1221
 9842TIP3   OH251016   1.660   5.666   6.223  0.1093  0.2097  0.0284
 9842TIP3    H151017   1.714   5.596   6.258 -0.2453 -1.0618 -1.8326
 9842TIP3    H251018   1.605   5.624   6.157 -0.2703  2.1786 -1.0071
 9843TIP3   OH251019   1.303   4.576  11.988 -0.0870  0.1587 -0.4552
 9843TIP3    H151020   1.316   4.488  11.952  1.7042  0.1641  0.1184
 9843TIP3    H251021   1.299   4.633  11.912  2.3222 -0.0031 -0.7694
 9844TIP3   OH251022   4.690   0.116  13.350  0.3438  0.0762 -0.6056
 9844TIP3    H151023   4.643   0.036  13.326 -0.8003  0.6862 -0.4926
 9844TIP3    H251024   4.755   0.088  13.415 -1.5508 -0.4609  1.1717
 9845TIP3   OH251025   2.465   3.196   0.596  0.6152 -0.4931  0.2585
 9845TIP3    H151026   2.430   3.145   0.668 -1.1402  0.0240 -0.1989
 9845TIP3    H251027   2.393   3.251   0.567  2.3514  2.1529  0.5923
 9846TIP3   OH251028   0.237   4.017   4.098  0.5612  0.6079 -0.0439
 9846TIP3    H151029   0.328   3.987   4.090  0.9120  1.5318  0.3829
 9846TIP3    H251030   0.244   4.111   4.114 -0.4770  0.6965 -0.0622
 9847TIP3   OH251031   0.534   0.784   5.057 -0.7952 -0.0429 -0.3993
 9847TIP3    H151032   0.457   0.827   5.021 -0.9194 -0.1125 -0.2159
 9847TIP3    H251033   0.570   0.847   5.119 -1.0610 -0.2629 -0.0215
 9848TIP3   OH251034   5.793   1.587   1.452  0.3270  0.8418 -0.5400
 9848TIP3    H151035   5.869   1.613   1.505  0.1330  0.7835 -0.2361
 9848TIP3    H251036   5.791   1.651   1.381 -0.3951  1.9178  0.4296
 9849TIP3   OH251037   1.084   3.149   0.924 -0.2971 -0.5813  0.6165
 9849TIP3    H151038   1.130   3.221   0.969 -0.8883  0.2145 -0.0146
 9849TIP3    H251039   1.018   3.193   0.871 -0.6806 -1.6109  0.2232
 9850TIP3   OH251040   3.214   0.176   3.819  0.3552 -0.1743 -0.1014
 9850TIP3    H151041   3.301   0.160   3.782  0.4241 -1.5590  0.6111
 9850TIP3    H251042   3.217   0.137   3.906 -1.3148 -1.1688 -0.4498
 9851TIP3   OH251043   0.072   0.894   2.116 -0.3784 -0.2992  0.3508
 9851TIP3    H151044  -0.018   0.885   2.149 -0.2115 -1.9805  0.4163
 9851TIP3    H251045   0.067   0.967   2.054 -1.8288 -0.4963  0.2013
 9852TIP3   OH251046   6.550   0.036  16.837 -0.3848  0.2855  0.2556
 9852TIP3    H151047   6.614   0.040  16.765 -1.2409 -1.7846 -0.7228
 9852TIP3    H251048   6.478   0.091  16.807 -0.4820 -0.0928 -0.2360
 9853TIP3   OH251049   4.830   4.108   0.420  0.6691 -0.0881 -0.3586
 9853TIP3    H151050   4.750   4.145   0.458  0.8767  1.3710 -1.2606
 9853TIP3    H251051   4.880   4.076   0.495 -0.3043 -0.0762  0.3103
 9854TIP3   OH251052   0.993   4.686   6.397 -0.6430 -0.6863 -0.4873
 9854TIP3    H151053   1.027   4.596   6.389 -1.1821 -0.8069 -1.5651
 9854TIP3    H251054   1.070   4.738   6.422 -0.3312 -1.4465  0.1879
 9855TIP3   OH251055   1.293   0.294  12.818  0.7668 -0.2234  0.1513
 9855TIP3    H151056   1.355   0.221  12.810  1.9343  0.5961  1.3476
 9855TIP3    H251057   1.219   0.269  12.763  1.4712 -1.9603 -0.0513
 9856TIP3   OH251058   0.672   1.278  13.982 -0.3080  0.1892 -0.6771
 9856TIP3    H151059   0.696   1.283  13.890  1.3608  0.7877 -0.2490
 9856TIP3    H251060   0.750   1.309  14.029 -0.8485 -0.7863  0.9569
 9857TIP3   OH251061   3.215   3.490  16.847 -0.0937  0.3307 -0.3037
 9857TIP3    H151062   3.231   3.438  16.926  1.6996  1.3320  0.0332
 9857TIP3    H251063   3.181   3.573  16.880  3.4615  1.9279 -0.2233
 9858TIP3   OH251064   6.678   1.023  11.593 -0.0385  0.2055 -0.0780
 9858TIP3    H151065   6.622   0.953  11.629  0.0588 -0.7911 -1.7636
 9858TIP3    H251066   6.627   1.103  11.607 -0.9945 -0.4262  0.2277
 9859TIP3   OH251067   1.279   1.538  16.914  0.2455  0.1048  0.5835
 9859TIP3    H151068   1.367   1.576  16.923  0.1402  0.6049 -0.3276
 9859TIP3    H251069   1.283   1.491  16.831  0.3473 -1.8618  1.6541
 9860TIP3   OH251070   2.174   5.173   5.635 -0.1144 -0.3829 -0.0677
 9860TIP3    H151071   2.142   5.245   5.582  1.3150 -0.4824 -1.1309
 9860TIP3    H251072   2.146   5.094   5.589  0.1828 -0.4764 -0.0945
 9861TIP3   OH251073   0.224   2.651  12.882 -0.1450 -0.0710  0.0376
 9861TIP3    H151074   0.215   2.740  12.916  2.6561 -0.3786  1.9195
 9861TIP3    H251075   0.272   2.661  12.800  2.4507  0.1229  1.4706
 9862TIP3   OH251076   4.750   4.833  12.277 -0.1601  0.3425  0.1602
 9862TIP3    H151077   4.767   4.844  12.370 -0.3438  1.7891  0.0390
 9862TIP3    H251078   4.701   4.911  12.251  0.1843  0.1373 -1.2194
 9863TIP3   OH251079   1.797   3.693  15.223 -0.2289  0.0647  0.2545
 9863TIP3    H151080   1.707   3.719  15.204  0.1851  1.4760  0.0901
 9863TIP3    H251081   1.821   3.744  15.300  0.2702 -0.6886  0.6134
 9864TIP3   OH251082   4.626   1.338  16.361  0.4272 -0.1184  0.0588
 9864TIP3    H151083   4.720   1.344  16.375  0.2834 -0.5525  1.4362
 9864TIP3    H251084   4.609   1.245  16.348 -0.0705 -0.4595  2.5012
 9865TIP3   OH251085   4.303   4.023  14.259  0.5292 -0.5857  0.8741
 9865TIP3    H151086   4.226   3.969  14.274  0.9503 -1.5193 -0.1527
 9865TIP3    H251087   4.375   3.960  14.252  1.0630  0.1059 -0.1356
 9866TIP3   OH251088   4.419   5.976  11.799  0.1491 -0.4499  0.4668
 9866TIP3    H151089   4.343   6.029  11.823 -0.3049 -0.9103  0.0653
 9866TIP3    H251090   4.479   5.984  11.873 -0.7738 -1.0068  1.2807
 9867TIP3   OH251091   6.481   1.570   3.496 -0.7109  0.8365  0.2102
 9867TIP3    H151092   6.435   1.631   3.438  1.2139  1.2195 -1.0267
 9867TIP3    H251093   6.561   1.617   3.521 -0.3895 -0.2474  1.2952
 9868TIP3   OH251094   4.047   1.716   4.868 -0.2089 -0.0825  0.1292
 9868TIP3    H151095   4.007   1.801   4.889 -0.2716  0.2698 -1.3011
 9868TIP3    H251096   4.141   1.732   4.871 -0.2151 -0.1428  0.5761
 9869TIP3   OH251097   4.766   0.243   5.115 -0.3186 -0.1195 -0.1731
 9869TIP3    H151098   4.754   0.165   5.169 -2.3262 -1.0781 -1.8945
 9869TIP3    H251099   4.845   0.225   5.064 -0.4502 -0.7767 -0.1525
 9870TIP3   OH251100   6.138   6.412  12.735 -0.2647 -0.6052  0.4136
 9870TIP3    H151101   6.179   6.368  12.660  0.3601 -1.9291  1.4914
 9870TIP3    H251102   6.089   6.343  12.779 -0.5007  0.1244  1.3108
 9871TIP3   OH251103   5.015   0.641   4.669  0.2434 -0.1186 -0.3451
 9871TIP3    H151104   5.052   0.653   4.757  0.5598 -1.5817 -0.2577
 9871TIP3    H251105   5.086   0.664   4.610 -0.7051  3.3400 -0.3337
 9872TIP3   OH251106   6.122   0.288   0.972 -0.0626  0.2046  0.2204
 9872TIP3    H151107   6.160   0.203   0.950 -1.6260 -0.2001 -1.1697
 9872TIP3    H251108   6.187   0.352   0.941  0.2404 -0.4631 -0.5515
 9873TIP3   OH251109   1.944   6.021  15.923  0.4163  0.2088  0.1852
 9873TIP3    H151110   2.025   6.071  15.913  0.2681  0.2123 -1.2392
 9873TIP3    H251111   1.881   6.066  15.867 -0.8752  0.7533  1.9672
 9874TIP3   OH251112   6.498   2.171   6.287 -0.0144  0.5875  0.3821
 9874TIP3    H151113   6.571   2.177   6.225  0.4153  2.2158  0.9970
 9874TIP3    H251114   6.536   2.126   6.363 -0.4749 -1.1818 -0.3807
 9875TIP3   OH251115   6.533   2.502   0.867 -0.3613 -0.0956 -0.2903
 9875TIP3    H151116   6.600   2.439   0.894  0.5429  0.6973 -0.6211
 9875TIP3    H251117   6.574   2.552   0.796 -1.2829  0.4565 -0.4577
 9876TIP3   OH251118   3.225   4.876   4.336 -0.1772  0.5402  0.0430
 9876TIP3    H151119   3.301   4.923   4.372  0.5588 -0.2549 -0.4266
 9876TIP3    H251120   3.177   4.943   4.288  0.3359  1.0223  0.1840
 9877TIP3   OH251121   1.675   1.095  11.374 -1.0438 -0.1981  0.1079
 9877TIP3    H151122   1.616   1.116  11.301 -2.1450 -1.9093  0.4486
 9877TIP3    H251123   1.648   1.153  11.444 -2.7432 -1.2882  0.4253
 9878TIP3   OH251124   1.365   4.465   1.950 -0.1286 -0.0595 -0.1757
 9878TIP3    H151125   1.385   4.484   2.042  0.8881 -0.0637 -0.3846
 9878TIP3    H251126   1.396   4.376   1.937 -1.5683 -0.5979 -0.1673
 9879TIP3   OH251127   6.528   5.349   2.624 -0.2198 -0.5597  0.3915
 9879TIP3    H151128   6.487   5.408   2.562 -0.4286 -1.0280  0.0782
 9879TIP3    H251129   6.455   5.313   2.675 -0.4655 -2.8068 -1.3752
 9880TIP3   OH251130   2.240   0.290  15.169  0.5629  0.9250 -0.1750
 9880TIP3    H151131   2.199   0.333  15.245  1.9406  2.6340 -0.3326
 9880TIP3    H251132   2.243   0.358  15.102  0.2217 -0.2950 -1.4572
 9881TIP3   OH251133   0.856   0.683   5.319  0.1326 -0.1299 -0.8810
 9881TIP3    H151134   0.816   0.694   5.405 -0.8575 -1.5651 -1.1226
 9881TIP3    H251135   0.806   0.741   5.261 -0.9119 -1.0785 -0.9617
 9882TIP3   OH251136   2.531   1.532  13.982 -0.3712  0.1070  0.2210
 9882TIP3    H151137   2.545   1.505  14.073 -0.7215 -0.0413  0.2323
 9882TIP3    H251138   2.582   1.469  13.930 -4.4293 -3.4227 -0.0546
 9883TIP3   OH251139   4.684   1.071   5.522 -0.4374  0.1244  0.1413
 9883TIP3    H151140   4.615   1.005   5.513 -1.5565  1.3675 -0.9360
 9883TIP3    H251141   4.732   1.046   5.600  0.6867 -3.3190 -1.4823
 9884TIP3   OH251142   1.741   0.145  15.422 -0.0323  0.4642  0.1530
 9884TIP3    H151143   1.683   0.088  15.473  1.5794 -1.6546 -0.2662
 9884TIP3    H251144   1.783   0.201  15.488 -0.3129 -0.0755  0.8002
 9885TIP3   OH251145   4.582   2.504   5.239 -0.0235  0.3617 -0.0085
 9885TIP3    H151146   4.562   2.457   5.320 -0.4399  0.0479 -0.2910
 9885TIP3    H251147   4.505   2.490   5.184  0.3890  0.3196 -0.5793
 9886TIP3   OH251148   3.894   6.654   0.116  0.8560  0.4102  0.4450
 9886TIP3    H151149   3.854   6.649   0.029 -0.5813 -0.7963  1.1261
 9886TIP3    H251150   3.846   6.590   0.169  4.4454 -2.1028  1.0686
 9887TIP3   OH251151   5.047   2.808  14.705 -0.3833 -0.6498  0.2953
 9887TIP3    H151152   4.988   2.769  14.640 -0.7647 -0.1942  0.3632
 9887TIP3    H251153   5.008   2.785  14.789 -0.6172 -0.1255  0.3359
 9888TIP3   OH251154   0.634   0.174  14.693 -0.1538  0.2319  0.0037
 9888TIP3    H151155   0.584   0.137  14.621  0.8357  0.3738 -0.7873
 9888TIP3    H251156   0.688   0.101  14.725 -0.2130  0.2979  0.2526
 9889TIP3   OH251157   4.127   2.777   5.092  0.4100 -0.6727 -0.1072
 9889TIP3    H151158   4.137   2.838   5.019 -0.3273 -0.5965 -0.1524
 9889TIP3    H251159   4.217   2.754   5.116  0.7446  1.0899  0.4728
 9890TIP3   OH251160   0.547   2.399   2.404  0.2014  0.4971 -0.4944
 9890TIP3    H151161   0.500   2.318   2.385  1.8847 -0.6917  0.1990
 9890TIP3    H251162   0.479   2.466   2.408 -1.2425 -0.8876 -0.9853
 9891TIP3   OH251163   0.801   6.568   2.594  0.4550  1.0738  0.3665
 9891TIP3    H151164   0.807   6.640   2.658 -1.7935  0.3765  1.4771
 9891TIP3    H251165   0.731   6.594   2.534  0.3209  0.2912  0.1643
 9892TIP3   OH251166   1.625   5.319   1.105 -0.3087 -0.2389 -0.3675
 9892TIP3    H151167   1.657   5.291   1.019  0.4342 -1.5890  0.3279
 9892TIP3    H251168   1.553   5.259   1.124 -0.7066  0.2884 -0.1955
 9893TIP3   OH251169   6.491   3.871   6.468  0.4831  0.1576  0.1137
 9893TIP3    H151170   6.414   3.911   6.427  0.2945  0.3168  0.6024
 9893TIP3    H251171   6.538   3.945   6.506 -0.5505 -0.1494  2.1617
 9894TIP3   OH251172   4.392   3.917  12.536  0.4771  0.5210  0.4010
 9894TIP3    H151173   4.442   3.999  12.539  3.0443 -0.9315  1.5170
 9894TIP3    H251174   4.398   3.889  12.445  4.2483 -0.8898  0.8829
 9895TIP3   OH251175   1.634   0.719  13.909 -0.1704  0.0164  0.3958
 9895TIP3    H151176   1.713   0.707  13.961  1.4154 -0.6162 -1.9778
 9895TIP3    H251177   1.645   0.806  13.869  0.0697 -0.6283 -1.0230
 9896TIP3   OH251178   0.385   4.209   5.871 -0.5900  0.1763 -0.0274
 9896TIP3    H151179   0.448   4.248   5.809 -3.3396  3.0999 -1.2877
 9896TIP3    H251180   0.357   4.128   5.829  1.1449 -0.3807 -0.1823
 9897TIP3   OH251181   2.958   1.483   0.682 -0.1296 -0.3781  0.1005
 9897TIP3    H151182   2.954   1.538   0.760  2.0333  0.0535 -0.0140
 9897TIP3    H251183   2.904   1.407   0.702  0.9476 -0.6342  2.3388
 9898TIP3   OH251184   5.793   1.391   5.139  0.4944  0.2561 -0.4452
 9898TIP3    H151185   5.767   1.429   5.055 -0.4988  1.5880  0.4323
 9898TIP3    H251186   5.720   1.333   5.162  0.2283  0.7697  0.0252
 9899TIP3   OH251187   1.435   4.718   0.842 -0.2590 -0.0078 -0.2729
 9899TIP3    H151188   1.528   4.735   0.858 -0.0390 -0.3142 -1.1583
 9899TIP3    H251189   1.389   4.777   0.902  0.5040 -0.9159  1.2685
 9900TIP3   OH251190   6.619   2.564  14.285 -0.1659 -0.1912 -0.5557
 9900TIP3    H151191   6.566   2.628  14.238  1.8001  2.3896  0.5264
 9900TIP3    H251192   6.688   2.539  14.223  0.9877  1.3466  0.0362
 9901TIP3   OH251193   4.427   3.397   3.446  0.1481  0.2206 -0.3846
 9901TIP3    H151194   4.506   3.343   3.453  0.3455  0.4081 -1.1671
 9901TIP3    H251195   4.361   3.338   3.410 -0.1793 -0.0326  0.5835
 9902TIP3   OH251196   0.796   2.870  11.408  0.7048 -0.1453 -0.5892
 9902TIP3    H151197   0.822   2.887  11.499 -0.6028 -0.1601 -0.1903
 9902TIP3    H251198   0.782   2.957  11.371  0.7514 -0.1489 -0.6140
 9903TIP3   OH251199   3.623   3.463  15.010  0.0455 -0.2999  0.5416
 9903TIP3    H151200   3.591   3.407  15.081  0.3928 -2.3538 -0.8521
 9903TIP3    H251201   3.545   3.484  14.959  0.0214 -0.0757  0.6678
 9904TIP3   OH251202   0.529   5.089   4.024  0.6191  0.2997  0.1399
 9904TIP3    H151203   0.450   5.042   4.050  1.5480 -0.5252  1.5957
 9904TIP3    H251204   0.601   5.030   4.046  1.6829  1.2247 -0.7113
 9905TIP3   OH251205   0.360   4.633   1.642  0.2211  0.0567  0.3053
 9905TIP3    H151206   0.375   4.538   1.638 -0.6848 -0.1210  0.7912
 9905TIP3    H251207   0.320   4.648   1.727 -1.5815  0.5611 -0.5662
 9906TIP3   OH251208   5.006   4.776  15.372 -0.5559  0.0803 -0.0431
 9906TIP3    H151209   4.991   4.857  15.422  3.0760  1.1658 -0.4674
 9906TIP3    H251210   5.013   4.708  15.439 -1.8334  0.3751  0.4317
 9907TIP3   OH251211   2.310   3.554  11.011 -0.2309  0.5613 -0.3284
 9907TIP3    H151212   2.260   3.635  10.999  1.5333  1.7001 -0.3108
 9907TIP3    H251213   2.328   3.523  10.923 -0.9290  0.1528 -0.3352
 9908TIP3   OH251214   2.621   6.570  11.287  0.4759  0.1713  0.3339
 9908TIP3    H151215   2.588   6.536  11.204  1.1860  2.7758 -1.1190
 9908TIP3    H251216   2.635   6.663  11.271  0.0036  0.9193  3.6194
 9909TIP3   OH251217   2.249   0.349   5.517  0.3912 -0.4305 -0.2574
 9909TIP3    H151218   2.234   0.257   5.495  1.1598 -1.0789  1.7180
 9909TIP3    H251219   2.327   0.374   5.467 -0.6130 -0.4025 -1.8690
 9910TIP3   OH251220   3.572   6.539   2.910 -0.2482 -0.2171  0.1692
 9910TIP3    H151221   3.604   6.486   2.983 -1.1267 -0.3160  0.4997
 9910TIP3    H251222   3.517   6.480   2.860 -0.6489  0.1828  0.1287
 9911TIP3   OH251223   0.732   5.530  11.822 -0.4724 -0.3524 -0.6045
 9911TIP3    H151224   0.733   5.482  11.739 -0.3704 -1.0738 -0.1974
 9911TIP3    H251225   0.733   5.461  11.889  2.2782  0.1951  0.0334
 9912TIP3   OH251226   1.375   5.828  13.879  0.7200 -0.1331 -0.1819
 9912TIP3    H151227   1.287   5.791  13.881  1.3552 -1.7267  0.9024
 9912TIP3    H251228   1.393   5.853  13.970  0.0038  3.8583 -0.9758
 9913TIP3   OH251229   5.531   4.462  15.015 -0.0723  0.0789 -0.5040
 9913TIP3    H151230   5.559   4.379  14.977  1.1334  0.3097 -0.1442
 9913TIP3    H251231   5.488   4.508  14.943  1.2704  0.0830 -1.3395
 9914TIP3   OH251232   1.960   5.786  11.334  0.1837  0.0296 -0.0989
 9914TIP3    H151233   1.864   5.777  11.334 -0.0517  2.0565  0.4634
 9914TIP3    H251234   1.985   5.764  11.244 -0.7361 -0.9717 -0.1401
 9915TIP3   OH251235   5.707   2.565   1.493  0.6017 -0.1312 -0.6537
 9915TIP3    H151236   5.665   2.546   1.409  0.9397  2.6357 -1.5630
 9915TIP3    H251237   5.646   2.533   1.559 -0.6569 -0.4736 -1.9487
 9916TIP3   OH251238   0.632   1.474   1.312 -0.3956  0.7423 -0.2792
 9916TIP3    H151239   0.678   1.555   1.287  1.8799 -0.5694 -0.5891
 9916TIP3    H251240   0.590   1.445   1.232  1.2649  0.1026 -0.9581
 9917TIP3   OH251241   1.289   3.022  16.304  0.1124  1.0578 -0.2313
 9917TIP3    H151242   1.295   2.929  16.283 -0.6586  1.4606 -2.4759
 9917TIP3    H251243   1.257   3.024  16.394  0.5032 -0.8369 -0.0076
 9918TIP3   OH251244   6.782   4.256  15.284  0.4667 -0.2756  0.4396
 9918TIP3    H151245   6.750   4.252  15.374 -0.6432 -0.8242  0.0400
 9918TIP3    H251246   6.708   4.227  15.230  1.8007 -2.2034 -0.5015
 9919TIP3   OH251247   1.055   2.647   4.066  0.1770  0.4599  0.2010
 9919TIP3    H151248   1.115   2.667   4.138  1.8151 -2.7209 -0.1127
 9919TIP3    H251249   1.097   2.687   3.990 -0.4578  2.0039  0.6249
 9920TIP3   OH251250   6.760   6.054   0.252 -0.0735  0.0150 -0.3989
 9920TIP3    H151251   6.735   5.964   0.231 -2.1640  0.1168  1.2354
 9920TIP3    H251252   6.690   6.108   0.216  1.2682  1.0567 -1.5605
 9921TIP3   OH251253   3.529   4.170   1.918 -0.9872  0.7910  0.0083
 9921TIP3    H151254   3.542   4.171   2.013  0.5502  2.4136 -0.1585
 9921TIP3    H251255   3.537   4.262   1.893  0.3000  0.2000 -1.8859
 9922TIP3   OH251256   4.847   0.853  14.610  0.5442 -0.4276 -0.5243
 9922TIP3    H151257   4.838   0.893  14.697 -0.1122  0.1738 -0.8642
 9922TIP3    H251258   4.802   0.913  14.551  1.0069 -0.8226 -1.2922
 9923TIP3   OH251259   4.808   4.289   1.290 -0.2057 -0.4023 -0.1402
 9923TIP3    H151260   4.807   4.372   1.339  0.6402  0.1572 -1.0330
 9923TIP3    H251261   4.764   4.310   1.207  1.2303 -0.4486 -0.9441
 9924TIP3   OH251262   0.873   4.814  17.062  0.0041  0.1623 -0.7899
 9924TIP3    H151263   0.912   4.759  16.995  0.1585 -0.9962  0.1965
 9924TIP3    H251264   0.812   4.871  17.015 -0.1618 -0.8670 -1.8592
 9925TIP3   OH251265   1.763   6.709  11.770  0.6017 -0.0564 -0.3742
 9925TIP3    H151266   1.823   6.706  11.845 -0.1036 -0.7229  0.1938
 9925TIP3    H251267   1.804   6.652  11.705  1.4754  0.9315 -0.7058
 9926TIP3   OH251268   3.854   1.222  13.298  0.2398 -0.7108  0.3913
 9926TIP3    H151269   3.891   1.309  13.282  1.2538 -0.7804  2.1671
 9926TIP3    H251270   3.925   1.162  13.278 -0.1204 -1.0887  0.2268
 9927TIP3   OH251271   1.083   1.741  10.422  0.7542 -0.6599  0.2351
 9927TIP3    H151272   1.150   1.697  10.369 -0.1007 -2.7897  0.8074
 9927TIP3    H251273   1.059   1.676  10.488 -0.0402  1.0004  1.6557
 9928TIP3   OH251274   4.804   5.083   2.123  0.2553  0.1369  0.4557
 9928TIP3    H151275   4.820   5.070   2.217  0.3962 -2.3145  0.1606
 9928TIP3    H251276   4.860   5.018   2.080 -0.1472  0.9066 -1.3025
 9929TIP3   OH251277   0.486   2.277  13.121 -0.1827 -0.0392  0.1775
 9929TIP3    H151278   0.430   2.325  13.059 -0.8539 -0.7065  0.2486
 9929TIP3    H251279   0.472   2.185  13.098  2.1398 -0.1855 -0.8620
 9930TIP3   OH251280   1.523   4.356   0.873 -0.2466 -0.2039  0.4806
 9930TIP3    H151281   1.451   4.326   0.928 -0.8932  0.2147 -0.1243
 9930TIP3    H251282   1.482   4.409   0.805  0.7667  1.3270  0.9888
 9931TIP3   OH251283   3.265   2.592   5.335  0.7794 -0.4569  0.2125
 9931TIP3    H151284   3.256   2.512   5.386  0.7486 -0.5607  0.0469
 9931TIP3    H251285   3.359   2.605   5.325  0.8257  0.4656  1.6986
 9932TIP3   OH251286   1.176   5.963   1.673  0.2316  0.5059  0.1009
 9932TIP3    H151287   1.120   5.928   1.603  0.5721 -0.3186  0.2329
 9932TIP3    H251288   1.156   6.056   1.675 -0.2170  0.4347 -0.7021
 9933TIP3   OH251289   3.591   5.844   4.950  0.4839  0.1557 -0.2092
 9933TIP3    H151290   3.623   5.781   4.884 -0.9232  1.1382 -1.9092
 9933TIP3    H251291   3.658   5.843   5.018  1.3076 -1.9677 -0.9629
 9934TIP3   OH251292   1.729   0.954  16.212 -0.4372  0.2243  0.2803
 9934TIP3    H151293   1.769   0.903  16.141 -0.2491 -1.9074  1.8103
 9934TIP3    H251294   1.710   1.039  16.173  1.9765  0.0055 -1.6066
 9935TIP3   OH251295   3.539   3.625   1.643  0.4320  0.0389 -0.1794
 9935TIP3    H151296   3.612   3.682   1.669  0.2994  0.0149  0.2581
 9935TIP3    H251297   3.578   3.538   1.635  0.4090 -0.0193  0.2961
 9936TIP3   OH251298   3.106   2.608   2.571 -0.0425 -0.2319 -0.5548
 9936TIP3    H151299   3.167   2.681   2.567 -1.9421  1.4862  0.1520
 9936TIP3    H251300   3.046   2.623   2.498  0.1021 -1.6646 -0.9994
 9937TIP3   OH251301   5.271   4.150   3.569 -0.0530  0.3290  0.0690
 9937TIP3    H151302   5.261   4.158   3.664 -1.6837 -1.1282  0.0572
 9937TIP3    H251303   5.181   4.149   3.536  0.4340 -1.1439 -1.2953
 9938TIP3   OH251304   1.598   5.850   0.628 -0.1894  0.2775  0.1964
 9938TIP3    H151305   1.653   5.922   0.658 -1.5185  0.4184  2.5310
 9938TIP3    H251306   1.655   5.773   0.631  0.7654  0.9264 -0.6867
 9939TIP3   OH251307   5.429   1.024   3.013  0.3997 -0.1045 -0.5054
 9939TIP3    H151308   5.407   1.117   3.010  0.2953 -0.1568 -3.0967
 9939TIP3    H251309   5.419   1.000   3.106 -1.2162  2.0484 -0.0490
 9940TIP3   OH251310   5.430   3.327  14.648  0.3240 -0.5959 -1.0312
 9940TIP3    H151311   5.335   3.325  14.642  0.2511  0.1342 -0.3153
 9940TIP3    H251312   5.454   3.419  14.633  0.7818 -0.4707  0.2746
 9941TIP3   OH251313   2.027   3.343  12.368 -0.4356  0.1200 -0.2270
 9941TIP3    H151314   2.043   3.266  12.422  1.0047  0.7868  0.3432
 9941TIP3    H251315   1.963   3.394  12.418 -1.8234 -0.9310 -0.8699
 9942TIP3   OH251316   2.590   3.910  13.280 -0.0549  0.1865 -0.0964
 9942TIP3    H151317   2.538   3.837  13.246 -0.6627  0.3173  0.5298
 9942TIP3    H251318   2.588   3.976  13.211  1.0487 -0.6456 -0.9382
 9943TIP3   OH251319   3.755   4.223  14.536  0.3209  0.0720 -0.0584
 9943TIP3    H151320   3.674   4.216  14.487  0.6872  0.3831 -0.7185
 9943TIP3    H251321   3.807   4.287  14.488  1.3214 -0.7855 -0.1516
 9944TIP3   OH251322   1.801   1.657   2.955 -0.3216  0.3635  0.1623
 9944TIP3    H151323   1.788   1.729   3.017 -2.5248  0.8937 -0.8163
 9944TIP3    H251324   1.878   1.682   2.905  0.6440  0.6172  1.6919
 9945TIP3   OH251325   0.018   3.581   0.810  0.6699  0.1354 -1.1223
 9945TIP3    H151326   0.016   3.605   0.718 -1.6754  2.7814 -0.5241
 9945TIP3    H251327  -0.047   3.639   0.851  0.9618 -1.5740  2.0398
 9946TIP3   OH251328   1.764   2.305  11.231  0.8912  0.2864  0.1464
 9946TIP3    H151329   1.784   2.350  11.149 -2.0538  1.3692 -0.0716
 9946TIP3    H251330   1.777   2.213  11.212  2.6567  0.6783 -0.7465
 9947TIP3   OH251331   4.442   0.307  11.819 -0.1849 -0.1168  0.3901
 9947TIP3    H151332   4.417   0.238  11.758  0.5690  1.1357 -1.4266
 9947TIP3    H251333   4.536   0.294  11.832 -0.1759  0.1493  0.5839
 9948TIP3   OH251334   5.056   5.415   5.241  0.3936 -0.4681 -0.4672
 9948TIP3    H151335   5.006   5.370   5.172  0.4395 -0.5272 -0.4625
 9948TIP3    H251336   5.080   5.499   5.202  0.0878 -0.3411 -0.3856
 9949TIP3   OH251337   6.184   3.001  12.374  0.1029  0.4102 -0.5728
 9949TIP3    H151338   6.137   2.919  12.386  0.2107  0.3167 -0.7915
 9949TIP3    H251339   6.242   2.986  12.299  1.7360 -0.0417  0.7158
 9950TIP3   OH251340   6.545   1.189  16.616 -0.1005  0.3829 -0.3855
 9950TIP3    H151341   6.606   1.196  16.689  0.4481 -1.1967 -0.6386
 9950TIP3    H251342   6.591   1.135  16.552 -1.9729 -1.3978 -0.3266
 9951TIP3   OH251343   5.718   3.457   1.380 -0.1572 -0.1355 -0.4569
 9951TIP3    H151344   5.717   3.423   1.470 -1.7446 -1.7649 -1.0351
 9951TIP3    H251345   5.790   3.410   1.338 -0.2332 -0.3211 -0.3811
 9952TIP3   OH251346   1.857   4.351   0.073 -0.3055 -0.2351  1.1031
 9952TIP3    H151347   1.894   4.264   0.089  0.6833 -0.0755 -0.1030
 9952TIP3    H251348   1.796   4.338   0.000  2.5992  0.5819 -1.7459
 9953TIP3   OH251349   0.346   2.277  14.352  0.3259  0.0973  0.4144
 9953TIP3    H151350   0.348   2.256  14.259  2.3294  1.2079  0.1315
 9953TIP3    H251351   0.274   2.339  14.362  1.4573  1.7165 -0.8798
 9954TIP3   OH251352   1.329   4.160   3.265 -0.5874 -0.0683 -0.9992
 9954TIP3    H151353   1.257   4.180   3.205  0.6283  0.9765 -2.1958
 9954TIP3    H251354   1.353   4.245   3.302 -0.0371 -0.4128 -0.5599
 9955TIP3   OH251355   2.245   6.213  13.538 -0.1456 -0.1063 -0.0022
 9955TIP3    H151356   2.334   6.236  13.513 -0.2236 -0.0488 -0.2328
 9955TIP3    H251357   2.195   6.294  13.528  0.1882  0.4200  2.1720
 9956TIP3   OH251358   2.037   2.304  13.979 -0.8592  0.3370 -0.1681
 9956TIP3    H151359   1.963   2.313  13.919  0.5351  1.4313 -1.8176
 9956TIP3    H251360   2.100   2.249  13.933  0.2504  1.2121  0.2455
 9957TIP3   OH251361   3.518   0.213   0.913  0.0617 -0.2289  0.8700
 9957TIP3    H151362   3.581   0.154   0.954  0.8534  0.1496  0.2328
 9957TIP3    H251363   3.462   0.156   0.860  0.8664 -0.4154  0.2016
 9958TIP3   OH251364   2.490   4.017  16.927  0.2007  0.3888  0.4580
 9958TIP3    H151365   2.475   4.095  16.981  1.4096  0.5348  0.6215
 9958TIP3    H251366   2.520   3.950  16.989  0.5116  0.2207  0.1348
 9959TIP3   OH251367   1.089   6.429   5.478 -0.2321 -0.4159 -0.0836
 9959TIP3    H151368   1.145   6.425   5.556 -2.4285 -1.8547  1.5103
 9959TIP3    H251369   1.073   6.522   5.465 -0.1601 -0.1708  1.4515
 9960TIP3   OH251370   2.632   3.503  15.360 -0.3753  0.1893  0.0151
 9960TIP3    H151371   2.550   3.490  15.312 -0.2487  0.6074 -0.3195
 9960TIP3    H251372   2.659   3.414  15.385 -0.2573 -0.0805 -1.0089
 9961TIP3   OH251373   2.090   3.275   3.077 -0.2658  0.3952  0.7558
 9961TIP3    H151374   2.145   3.345   3.043  0.3631 -1.0324 -1.3100
 9961TIP3    H251375   2.005   3.288   3.034 -0.2545  0.1026  0.6438
 9962TIP3   OH251376   1.847   6.448  16.842 -0.5079  0.4173  0.3278
 9962TIP3    H151377   1.898   6.385  16.892  0.4585  0.6627 -0.3136
 9962TIP3    H251378   1.864   6.532  16.884  0.0486  0.5753 -0.1952
 9963TIP3   OH251379   2.021   2.545   5.353 -0.1270  0.0426 -0.5100
 9963TIP3    H151380   1.948   2.601   5.379 -0.6484 -1.3202  1.1449
 9963TIP3    H251381   2.034   2.563   5.260 -1.0211  2.0274 -0.2861
 9964TIP3   OH251382   4.216   3.966   4.097  0.1295  0.1936  0.1210
 9964TIP3    H151383   4.248   4.057   4.098  1.3873 -0.2058 -1.0770
 9964TIP3    H251384   4.167   3.958   4.179  1.6184  1.3829  1.1995
 9965TIP3   OH251385   1.216   4.707  12.701 -0.0382 -0.0303  0.2686
 9965TIP3    H151386   1.298   4.677  12.740  0.6273  0.0150 -1.0438
 9965TIP3    H251387   1.233   4.707  12.606 -1.0480  1.4570  0.0592
 9966TIP3   OH251388   3.357   5.831   2.618  0.6707  0.0394 -0.6804
 9966TIP3    H151389   3.311   5.890   2.678  3.8145  2.2574 -0.2373
 9966TIP3    H251390   3.406   5.772   2.675 -1.1473 -2.0889 -1.1547
 9967TIP3   OH251391   5.771   1.528   2.541  0.0089  0.6927  0.1066
 9967TIP3    H151392   5.689   1.500   2.580 -1.7049  1.3978 -2.7190
 9967TIP3    H251393   5.830   1.453   2.553 -1.3905 -0.2697  1.1955
 9968TIP3   OH251394   4.762   2.399  14.515 -0.4197  0.1159 -0.3217
 9968TIP3    H151395   4.793   2.484  14.545  2.2280 -1.3827  1.6461
 9968TIP3    H251396   4.791   2.393  14.424 -0.2366  1.1220 -0.3365
 9969TIP3   OH251397   1.787   1.824   1.246 -0.0447 -0.2144 -0.6955
 9969TIP3    H151398   1.697   1.837   1.216 -0.1897  0.6846  0.0889
 9969TIP3    H251399   1.815   1.910   1.278  0.7424 -0.7056 -0.0041
 9970TIP3   OH251400   2.098   1.166   0.640 -0.5973  1.1081  0.3073
 9970TIP3    H151401   2.051   1.248   0.651 -0.9902  1.0190 -0.5662
 9970TIP3    H251402   2.050   1.104   0.695  0.5180  1.7363  2.0538
 9971TIP3   OH251403   6.782   1.195  15.462 -0.0675 -0.1318  0.2744
 9971TIP3    H151404   6.718   1.168  15.527 -1.8618  0.8313 -1.0097
 9971TIP3    H251405   6.803   1.286  15.484 -0.4654  0.1067 -0.3145
 9972TIP3   OH251406   6.705   1.878  11.297 -0.5267  0.1105  0.1436
 9972TIP3    H151407   6.780   1.872  11.238 -0.0069  1.7397  0.5962
 9972TIP3    H251408   6.734   1.935  11.368 -1.8465 -0.0896  0.8754
 9973TIP3   OH251409   2.207   4.012   2.245 -0.0123  0.0470  0.0753
 9973TIP3    H151410   2.114   3.998   2.225 -0.0467  0.4802 -0.0840
 9973TIP3    H251411   2.253   3.965   2.175 -0.0777 -1.5555  1.0642
 9974TIP3   OH251412   1.996   4.355   5.544 -0.2284  0.3419 -0.3947
 9974TIP3    H151413   2.018   4.349   5.451  1.2317 -1.9126  0.0050
 9974TIP3    H251414   1.965   4.267   5.567 -0.1252  0.7312  1.3318
 9975TIP3   OH251415   1.007   5.175   4.218  0.1670 -0.2142  0.4785
 9975TIP3    H151416   0.977   5.095   4.175  1.6072 -0.5534  0.0477
 9975TIP3    H251417   1.055   5.223   4.150 -1.3988  1.4605  0.4888
 9976TIP3   OH251418   1.645   4.542   2.382  0.1366 -1.1256  0.1893
 9976TIP3    H151419   1.688   4.592   2.451  0.2408 -0.0926 -0.6106
 9976TIP3    H251420   1.611   4.464   2.427  0.9160 -0.8791  1.2405
 9977TIP3   OH251421   5.873   6.377  13.097  0.7435 -0.2282 -0.0037
 9977TIP3    H151422   5.890   6.466  13.128  2.1071 -0.5014  0.1251
 9977TIP3    H251423   5.888   6.381  13.003  0.3207 -0.2139 -0.0708
 9978TIP3   OH251424   0.001   3.678  10.372  0.1797 -0.0608  0.2565
 9978TIP3    H151425  -0.032   3.734  10.302  0.1460  0.5168  0.7338
 9978TIP3    H251426   0.089   3.712  10.390  0.6231 -0.8941 -0.2465
 9979TIP3   OH251427   0.905   3.245   6.247 -0.0082  0.1449 -0.0234
 9979TIP3    H151428   0.851   3.320   6.222  0.5806  0.1842 -1.2575
 9979TIP3    H251429   0.959   3.228   6.170 -0.7896 -2.1610 -0.1270
 9980TIP3   OH251430   4.902   3.849   4.133  0.0936 -0.5227  0.5088
 9980TIP3    H151431   4.813   3.822   4.156 -0.6060 -0.2057 -1.6131
 9980TIP3    H251432   4.894   3.886   4.045  2.3705 -0.6670  0.1800
 9981TIP3   OH251433   6.371   0.256   2.235  0.0536 -0.5089 -0.6901
 9981TIP3    H151434   6.327   0.187   2.185 -0.8023 -0.4502 -0.0390
 9981TIP3    H251435   6.315   0.332   2.227  0.6350 -0.0815 -0.8099
 9982TIP3   OH251436   0.476   2.781   2.050 -0.6924 -0.0234  0.2334
 9982TIP3    H151437   0.527   2.763   2.129 -0.5025 -1.0070 -0.1000
 9982TIP3    H251438   0.531   2.839   1.998 -0.8360  0.6637  0.8358
 9983TIP3   OH251439   6.730   5.896  15.257  0.4413 -0.7554  0.2812
 9983TIP3    H151440   6.749   5.835  15.186  0.6840  0.4221 -0.7031
 9983TIP3    H251441   6.814   5.909  15.300  0.6794 -0.0735 -0.3734
 9984TIP3   OH251442   2.244   6.304   3.914  0.2630  0.3542 -0.1887
 9984TIP3    H151443   2.149   6.311   3.914  0.3076  1.4497  1.2726
 9984TIP3    H251444   2.263   6.234   3.976  0.3870 -2.0494 -2.7171
 9985TIP3   OH251445   1.771   0.381  14.532  0.2176  0.2064  0.5088
 9985TIP3    H151446   1.712   0.306  14.530 -0.9297  1.0811  0.4955
 9985TIP3    H251447   1.786   0.398  14.625  0.3563  0.0462  0.5145
 9986TIP3   OH251448   6.143   3.228  12.531  0.0611 -0.2794  0.0941
 9986TIP3    H151449   6.226   3.224  12.579 -1.3095 -1.0660  2.5953
 9986TIP3    H251450   6.141   3.146  12.481  0.5295 -0.5570  0.5145
 9987TIP3   OH251451   2.317   6.389   5.322 -0.1292  0.3540  0.2232
 9987TIP3    H151452   2.397   6.338   5.334 -1.1096 -1.2627  0.0808
 9987TIP3    H251453   2.348   6.476   5.297  1.6956  0.6773  3.0703
 9988TIP3   OH251454   5.262   0.122  15.615  0.8072  0.3956 -0.2045
 9988TIP3    H151455   5.245   0.210  15.649 -0.0045  0.7659 -1.4906
 9988TIP3    H251456   5.225   0.123  15.527  0.7609 -1.2524 -0.2344
 9989TIP3   OH251457   4.415   6.294   4.769 -0.0606 -0.1791 -0.0888
 9989TIP3    H151458   4.356   6.330   4.835 -0.0423 -1.5238  0.7019
 9989TIP3    H251459   4.501   6.330   4.791 -0.5447  1.8654 -1.3050
 9990TIP3   OH251460   0.441   5.180   6.117  0.0553 -0.0207 -0.2734
 9990TIP3    H151461   0.400   5.172   6.204  0.2145  0.2698 -0.1713
 9990TIP3    H251462   0.371   5.156   6.056 -0.6300  1.5304 -0.1571
 9991TIP3   OH251463   0.934   6.152   1.860 -0.0647 -0.3510  0.6725
 9991TIP3    H151464   1.028   6.172   1.865 -0.1239  0.3301 -0.5286
 9991TIP3    H251465   0.891   6.228   1.898 -0.1537 -0.3576  0.5861
 9992TIP3   OH251466   6.559   1.975  13.895 -0.3541  0.2000 -0.0413
 9992TIP3    H151467   6.551   2.045  13.830  2.3525  0.9150  0.2692
 9992TIP3    H251468   6.535   2.017  13.978 -1.1568  0.0352 -0.1804
 9993TIP3   OH251469   2.213   2.810   2.590  0.0621  0.0206 -0.3525
 9993TIP3    H151470   2.180   2.851   2.669  0.9540  1.1890 -0.5585
 9993TIP3    H251471   2.149   2.833   2.522 -0.2894 -0.3213 -0.1418
 9994TIP3   OH251472   4.528   4.285  14.756 -0.6051 -0.6590 -0.0862
 9994TIP3    H151473   4.439   4.250  14.765 -0.4435 -1.2723 -0.8056
 9994TIP3    H251474   4.516   4.380  14.758 -1.1587 -0.7425  0.8907
 9995TIP3   OH251475   5.975   5.541  12.114 -1.2496  0.0580  0.4572
 9995TIP3    H151476   5.922   5.541  12.193 -0.4224 -2.5038  1.1137
 9995TIP3    H251477   6.014   5.453  12.112  2.6485  1.6270 -0.1540
 9996TIP3   OH251478   6.504   0.846   4.049  0.7274  0.2215  0.2838
 9996TIP3    H151479   6.591   0.806   4.055  0.7761  0.2313 -0.3268
 9996TIP3    H251480   6.465   0.808   3.970  0.7680  1.3746 -0.3094
 9997TIP3   OH251481   5.473   6.062  16.930 -0.1066 -0.4907 -0.1400
 9997TIP3    H151482   5.446   6.082  16.841 -0.8116  1.0478  0.3747
 9997TIP3    H251483   5.394   6.030  16.973 -0.2617  0.5528  0.3991
 9998TIP3   OH251484   5.846   4.934   3.173 -0.0140 -0.3579 -0.4266
 9998TIP3    H151485   5.752   4.921   3.158 -0.1226 -1.0083  0.7224
 9998TIP3    H251486   5.869   4.869   3.239  1.2398 -0.1529 -0.6390
 9999TIP3   OH251487   2.222   4.146   3.648  0.0579 -0.4628 -0.2216
 9999TIP3    H151488   2.208   4.120   3.739 -0.4324 -0.3424 -0.2637
 9999TIP3    H251489   2.253   4.237   3.653 -1.0837 -0.0544 -0.2264
10000TIP3   OH251490   3.580   2.627   5.713  0.1963  0.0403  0.0313
10000TIP3    H151491   3.574   2.688   5.639 -1.8062  1.0599  0.9488
10000TIP3    H251492   3.494   2.583   5.714  0.0576  0.2990  1.9210
10001TIP3   OH251493   3.225   5.355  12.515  0.1737  0.3318  0.1985
10001TIP3    H151494   3.173   5.307  12.451 -0.0728  1.4440 -0.4637
10001TIP3    H251495   3.164   5.373  12.587 -0.0872  0.7596 -0.1261
10002TIP3   OH251496   2.790   1.652   5.446  0.0225  0.2475 -0.3396
10002TIP3    H151497   2.821   1.618   5.362 -1.6286 -0.3337 -0.7553
10002TIP3    H251498   2.826   1.592   5.511  0.9777  0.4637 -0.6667
10003TIP3   OH251499   6.593   3.191  15.824 -0.4409 -0.2057 -0.1905
10003TIP3    H151500   6.644   3.211  15.902 -0.1321  0.5800 -0.5784
10003TIP3    H251501   6.503   3.211  15.848 -0.1995  1.2672 -0.4132
10004TIP3   OH251502   1.018   3.548   2.028 -0.2044  0.3678 -0.2898
10004TIP3    H151503   0.941   3.496   2.003 -0.0935  0.3894 -0.6851
10004TIP3    H251504   1.030   3.528   2.121  0.0882 -0.6592 -0.5281
10005TIP3   OH251505   3.194   0.754   4.349 -0.2831  0.1323  0.4575
10005TIP3    H151506   3.209   0.827   4.290  0.4199 -1.2968 -1.2210
10005TIP3    H251507   3.255   0.769   4.421  0.1245  0.9924 -0.0430
10006TIP3   OH251508   1.666   6.812   4.401 -0.3279  0.2400  0.2050
10006TIP3    H151509   1.727   6.831   4.330  0.6795  0.4782  1.1084
10006TIP3    H251510   1.621   6.895   4.417 -0.9101  0.0646 -0.4598
10007TIP3   OH251511   1.435   3.307   5.133  0.0574  0.1631  0.3063
10007TIP3    H151512   1.440   3.345   5.045  0.8781  2.6075  1.3049
10007TIP3    H251513   1.520   3.328   5.172 -0.4127 -0.5764  1.7923
10008TIP3   OH251514   3.651   6.595   0.408  0.1638 -0.2094  0.1077
10008TIP3    H151515   3.653   6.534   0.334  1.0247 -1.1621  0.8857
10008TIP3    H251516   3.729   6.650   0.396  0.2918 -0.3503  0.2986
10009TIP3   OH251517   0.674   2.995   5.254 -0.5319  0.0700 -0.3872
10009TIP3    H151518   0.744   2.973   5.193 -0.3130 -0.9172  0.1846
10009TIP3    H251519   0.688   3.087   5.275 -0.4335  0.3363 -1.5754
10010TIP3   OH251520   3.064   3.093   5.871 -0.6340  0.1789  0.0323
10010TIP3    H151521   2.997   3.032   5.901  1.1522 -1.3219  1.2006
10010TIP3    H251522   3.125   3.099   5.944  0.8496  0.9749 -1.2122
10011TIP3   OH251523   4.903   1.462  14.354 -0.1223  0.4380  0.4280
10011TIP3    H151524   4.876   1.374  14.381  2.2197 -0.2207  0.8704
10011TIP3    H251525   4.821   1.508  14.338 -1.4525 -1.4616  1.3217
10012TIP3   OH251526   1.535   0.464   4.280 -0.3770 -0.5898  0.3734
10012TIP3    H151527   1.537   0.558   4.296 -1.3680 -0.7609  1.7349
10012TIP3    H251528   1.594   0.450   4.206 -1.1914  1.2475 -0.6737
10013TIP3   OH251529   3.324   1.395   1.936  0.6597  0.3282 -0.0425
10013TIP3    H151530   3.285   1.481   1.953 -0.9471 -0.6117  1.3778
10013TIP3    H251531   3.386   1.383   2.008  0.3732  0.0220  0.1561
10014TIP3   OH251532   2.145   5.568  12.789  0.1849 -0.0855 -0.1539
10014TIP3    H151533   2.069   5.519  12.759  0.9716 -0.8274 -0.9982
10014TIP3    H251534   2.129   5.585  12.882 -0.4929 -1.2000 -0.0589
10015TIP3   OH251535   4.639   3.111  11.810 -0.0097  0.2631  0.3100
10015TIP3    H151536   4.704   3.087  11.743 -1.8061 -0.9985 -1.0834
10015TIP3    H251537   4.628   3.032  11.862 -0.6275  0.3688  0.3465
10016TIP3   OH251538   5.853   5.773   4.597  0.4065  0.2508 -0.2322
10016TIP3    H151539   5.946   5.759   4.578 -0.1354 -1.9564 -1.5542
10016TIP3    H251540   5.809   5.696   4.561 -1.7397  0.1788  2.2535
10017TIP3   OH251541   2.072   6.184   3.304 -0.3999 -0.1390 -0.5761
10017TIP3    H151542   2.027   6.099   3.302 -0.4886 -0.1167  0.1352
10017TIP3    H251543   2.153   6.170   3.255 -0.3938 -0.6519 -0.4250
10018TIP3   OH251544   1.365   5.210  12.866  0.3271 -0.5944 -0.1257
10018TIP3    H151545   1.311   5.148  12.915  0.2710 -0.4282  0.0245
10018TIP3    H251546   1.316   5.227  12.786 -0.4508  0.5062  0.5611
10019TIP3   OH251547   6.194   2.701   1.294 -0.1006  0.0992  0.3276
10019TIP3    H151548   6.145   2.619   1.287 -1.7227  1.0700 -0.5086
10019TIP3    H251549   6.265   2.682   1.354 -1.2838 -1.5274  1.3009
10020TIP3   OH251550   6.812   2.941   1.043 -0.2251  0.3746 -0.2687
10020TIP3    H151551   6.730   2.978   1.076  0.4967  2.2524 -0.4312
10020TIP3    H251552   6.810   2.849   1.069 -1.4863  0.8493  1.4785
10021TIP3   OH251553   2.523   1.556  11.876  0.1001 -0.3644 -0.2500
10021TIP3    H151554   2.592   1.509  11.830 -0.2707 -1.1421 -0.0505
10021TIP3    H251555   2.515   1.639  11.831  0.0157 -0.9505 -1.3433
10022TIP3   OH251556   2.818   3.034  12.368  0.2273 -0.0244 -0.1445
10022TIP3    H151557   2.738   3.058  12.415  0.6757  2.2905 -0.4113
10022TIP3    H251558   2.838   2.945  12.397 -2.1196 -0.4502  0.3493
10023TIP3   OH251559   5.513   5.268   3.388  0.0186 -0.1290  0.4349
10023TIP3    H151560   5.559   5.341   3.347  0.6612 -0.8233 -0.1223
10023TIP3    H251561   5.504   5.203   3.318  0.2200 -0.9249  1.1289
10024TIP3   OH251562   6.294   0.689   1.728 -0.4261  0.4632  0.2224
10024TIP3    H151563   6.346   0.635   1.668 -0.5486 -0.5087  0.9593
10024TIP3    H251564   6.260   0.759   1.673  0.8917  0.5957 -0.4688
10025TIP3   OH251565   2.542   0.803  12.404 -0.3196 -0.0077 -0.2603
10025TIP3    H151566   2.489   0.850  12.339  0.4688  0.4324 -0.5964
10025TIP3    H251567   2.545   0.861  12.480 -1.1374 -0.4681  0.1328
10026TIP3   OH251568   2.445   4.907  12.564  0.4879 -0.4677  0.0044
10026TIP3    H151569   2.462   4.830  12.511  0.5075  0.1564 -0.9065
10026TIP3    H251570   2.354   4.897  12.592  1.2732 -2.2220  2.2693
10027TIP3   OH251571   5.850   1.305  11.803 -0.3299  0.1445  0.6507
10027TIP3    H151572   5.868   1.377  11.742 -0.1850  0.8148  1.4712
10027TIP3    H251573   5.911   1.318  11.875 -1.0407 -0.1617  1.3290
10028TIP3   OH251574   6.443   1.130  13.329 -0.2971 -0.6651 -0.0697
10028TIP3    H151575   6.470   1.045  13.364  0.0218 -0.0420  1.2397
10028TIP3    H251576   6.522   1.165  13.288  0.2535  0.0306  1.5099
10029TIP3   OH251577   2.669   4.009  16.518 -0.2538  0.1364  0.2405
10029TIP3    H151578   2.757   4.009  16.555 -0.2820  0.3767  0.3085
10029TIP3    H251579   2.658   3.921  16.483 -0.8260 -0.6269  2.2109
10030TIP3   OH251580   1.411   2.966  13.754 -0.2440  0.0042 -0.1264
10030TIP3    H151581   1.427   2.926  13.668 -0.3844 -0.8390  0.2328
10030TIP3    H251582   1.487   2.941  13.806 -0.1739  0.4924  0.0101
10031TIP3   OH251583   1.995   6.738  13.562  0.0623 -0.1718 -0.1489
10031TIP3    H151584   1.980   6.832  13.559  1.7981  0.1028 -1.6307
10031TIP3    H251585   1.956   6.705  13.481  0.6515 -0.5165 -0.2989
10032TIP3   OH251586   2.649   5.968  14.937  0.0632  0.2456 -1.1640
10032TIP3    H151587   2.654   5.922  14.854  1.7078 -0.0110 -0.9583
10032TIP3    H251588   2.621   5.902  15.000  1.8551 -0.3671 -0.9747
10033TIP3   OH251589   6.181   3.418  16.150  0.2877  0.5943 -0.3553
10033TIP3    H151590   6.178   3.363  16.072 -2.1762 -0.9616  0.7260
10033TIP3    H251591   6.226   3.365  16.215 -1.8135 -0.1228  0.5977
10034TIP3   OH251592   0.615   3.653  14.345  0.0813  0.0024  0.2389
10034TIP3    H151593   0.663   3.668  14.264 -1.1122  1.0249 -0.3122
10034TIP3    H251594   0.663   3.705  14.410  1.2648 -1.1311  0.2907
10035TIP3   OH251595   0.459   3.324  16.367  0.2957  1.1011 -0.3180
10035TIP3    H151596   0.431   3.260  16.301  0.1242  0.8775 -0.0283
10035TIP3    H251597   0.550   3.302  16.385 -0.0521  0.3154  0.5056
10036TIP3   OH251598   1.876   2.619   3.446  0.2091  0.1781 -0.4556
10036TIP3    H151599   1.856   2.527   3.458 -0.7545  0.2359 -1.4441
10036TIP3    H251600   1.963   2.620   3.407 -0.4389 -0.4219 -2.0062
10037TIP3   OH251601   2.076   2.587   0.883 -0.3000  0.1104 -0.0271
10037TIP3    H151602   2.074   2.555   0.793 -0.1701  1.4389 -0.5213
10037TIP3    H251603   2.086   2.681   0.875 -0.7209  0.3013  1.3824
10038TIP3   OH251604   1.491   1.048  15.194  0.0885  0.3417  0.3534
10038TIP3    H151605   1.432   1.000  15.135  1.4667  0.0525 -0.8525
10038TIP3    H251606   1.514   0.984  15.262 -1.4558  0.6551  1.2035
10039TIP3   OH251607   0.221   5.945  15.027 -0.4624  0.0339 -0.3191
10039TIP3    H151608   0.179   5.921  15.110  1.1629  0.4737  0.6881
10039TIP3    H251609   0.221   6.040  15.027  1.6098  0.0874  0.3521
10040TIP3   OH251610   6.720   3.465  11.377  0.2742  0.2480 -0.0523
10040TIP3    H151611   6.773   3.410  11.435 -0.0228  0.9194  0.8903
10040TIP3    H251612   6.657   3.405  11.338  2.1185 -0.7039 -1.7559
10041TIP3   OH251613   6.258   0.186  16.514  0.4289 -0.2172  0.0100
10041TIP3    H151614   6.239   0.165  16.606 -0.4916  0.9579  0.1037
10041TIP3    H251615   6.339   0.138  16.496  0.6519 -0.4480  1.4514
10042TIP3   OH251616   1.333   3.196   1.513 -0.6393 -0.1384 -0.3423
10042TIP3    H151617   1.407   3.193   1.573 -0.5008  0.1021 -0.5012
10042TIP3    H251618   1.359   3.258   1.445 -0.0865 -1.7059 -1.6237
10043TIP3   OH251619   2.846   3.072  12.961 -0.0088  0.2102 -0.0654
10043TIP3    H151620   2.941   3.058  12.960 -0.1499 -1.0483  0.9678
10043TIP3    H251621   2.826   3.110  12.876  1.3297 -0.2018 -0.5939
10044TIP3   OH251622   0.372   2.767  16.198  0.0825 -0.3239  0.0434
10044TIP3    H151623   0.290   2.816  16.194  0.1479 -0.1763  0.4677
10044TIP3    H251624   0.379   2.725  16.112 -1.0901 -1.3942  0.4445
10045TIP3   OH251625   6.742   6.681  11.518  0.3562  0.2306  0.2468
10045TIP3    H151626   6.762   6.641  11.602 -1.5741 -0.8229  0.2717
10045TIP3    H251627   6.724   6.608  11.460 -1.8478  0.9608 -0.0901
10046TIP3   OH251628   0.726   4.735  13.170  0.0277 -0.3980  0.1160
10046TIP3    H151629   0.777   4.726  13.251  1.0419  0.3321 -0.4307
10046TIP3    H251630   0.771   4.802  13.120 -0.3592 -1.1276 -1.2524
10047TIP3   OH251631   1.094   3.878   2.498 -0.4798  0.4438  0.4046
10047TIP3    H151632   1.113   3.953   2.555  1.4841  0.3563 -0.0742
10047TIP3    H251633   0.998   3.877   2.492 -0.5716  2.9858  0.3284
10048TIP3   OH251634   0.529   3.641  16.518 -0.3442 -0.3258 -0.4709
10048TIP3    H151635   0.538   3.640  16.422  0.7429 -0.8199 -0.3763
10048TIP3    H251636   0.554   3.730  16.543 -1.7969  0.1819 -0.7268
10049TIP3   OH251637   0.515   0.187   3.503 -0.2074  0.7521 -0.1059
10049TIP3    H151638   0.536   0.213   3.413  2.2548 -0.5723  0.0149
10049TIP3    H251639   0.460   0.110   3.494 -0.9297  1.2883 -0.4351
10050TIP3   OH251640   1.358   6.728   5.188 -0.4940 -0.0605 -0.0504
10050TIP3    H151641   1.365   6.650   5.242 -0.1411  0.0300  0.0358
10050TIP3    H251642   1.289   6.708   5.125 -0.1127 -0.5993 -0.2987
10051TIP3   OH251643   0.224   0.500  16.681  0.2976  0.5155  0.4097
10051TIP3    H151644   0.310   0.540  16.693 -0.5309  2.3208  0.6641
10051TIP3    H251645   0.219   0.432  16.748  2.2382 -0.9610 -0.8413
10052TIP3   OH251646   5.527   4.245   4.443 -0.0464  0.3607  0.1571
10052TIP3    H151647   5.606   4.297   4.428 -0.5684  0.9820 -0.5180
10052TIP3    H251648   5.462   4.307   4.475 -0.3577 -0.0854  0.4034
10053TIP3   OH251649   5.879   4.409   2.850  0.2879  0.0876 -0.1661
10053TIP3    H151650   5.892   4.409   2.945 -0.5547  3.1222  0.0263
10053TIP3    H251651   5.941   4.474   2.817  0.2655 -0.6075 -1.6864
10054TIP3   OH251652   5.178   2.309  14.015 -0.3416 -0.2210 -0.1186
10054TIP3    H151653   5.202   2.396  14.046  0.8665 -0.8346  0.7711
10054TIP3    H251654   5.089   2.296  14.046  0.3396 -0.2519  1.9533
10055TIP3   OH251655   5.297   0.375  14.722  0.1024 -0.2803 -0.0876
10055TIP3    H151656   5.300   0.470  14.733 -0.0790 -0.1507 -1.0794
10055TIP3    H251657   5.297   0.362  14.628 -1.9586 -1.2076 -0.0012
10056TIP3   OH251658   0.856   3.765   2.399 -0.5036  0.4889  0.5168
10056TIP3    H151659   0.946   3.743   2.376 -1.0262 -2.0587  0.6029
10056TIP3    H251660   0.831   3.699   2.464 -3.3311 -0.7542 -1.6509
10057TIP3   OH251661   3.448   1.327   3.295 -0.2778  0.0389  0.0120
10057TIP3    H151662   3.405   1.413   3.294 -0.0083  0.1793  0.4369
10057TIP3    H251663   3.541   1.347   3.282 -0.4651 -0.3526 -2.5845
10058TIP3   OH251664   6.008   0.972   0.413 -0.0874  0.2842  0.2484
10058TIP3    H151665   6.040   0.946   0.499  0.9501  0.9113  0.0665
10058TIP3    H251666   5.950   1.046   0.430  0.3220  0.5739  0.3888
10059TIP3   OH251667   1.509   4.259   1.535  0.3399  0.5250 -0.4072
10059TIP3    H151668   1.454   4.333   1.559  1.6812  1.1711  0.9087
10059TIP3    H251669   1.566   4.292   1.466  2.7422  1.6739  1.9572
10060TIP3   OH251670   0.209   0.215  15.324  0.1445 -0.0591  0.3449
10060TIP3    H151671   0.260   0.139  15.296 -0.9798 -0.5590 -0.4384
10060TIP3    H251672   0.118   0.188  15.312 -0.2796  1.4486 -0.0360
10061TIP3   OH251673   5.193   2.339   0.568 -0.1133 -0.1746  0.0189
10061TIP3    H151674   5.184   2.400   0.495 -0.3905 -1.6917 -1.2524
10061TIP3    H251675   5.181   2.394   0.646  2.0136  1.8324 -0.9376
10062TIP3   OH251676   1.103   1.409  13.486  0.1396 -0.4581 -0.4250
10062TIP3    H151677   1.103   1.369  13.399 -1.8464  0.6347 -0.9981
10062TIP3    H251678   1.143   1.495  13.474  0.4805 -0.5694 -0.1083
10063TIP3   OH251679   5.378   1.254  16.314  0.2402  0.2786  0.2570
10063TIP3    H151680   5.467   1.269  16.282  1.1530  0.1760  2.5171
10063TIP3    H251681   5.388   1.248  16.409 -2.3646  1.4744  0.7008
10064TIP3   OH251682   0.307   3.237  12.806 -0.1644  0.1234  0.1277
10064TIP3    H151683   0.368   3.171  12.839 -0.2759 -0.5488 -0.9682
10064TIP3    H251684   0.338   3.256  12.717 -1.6557 -0.3755 -0.5236
10065TIP3   OH251685   2.650   4.784   3.009  0.0161 -0.7887 -0.1420
10065TIP3    H151686   2.579   4.823   2.958  1.1379  1.2168 -0.2241
10065TIP3    H251687   2.617   4.696   3.030 -2.6819  0.1839  0.1774
10066TIP3   OH251688   2.218   6.311   1.806  0.0825  0.0887 -1.2206
10066TIP3    H151689   2.312   6.326   1.796  0.2353 -1.1453 -1.7762
10066TIP3    H251690   2.202   6.228   1.761 -1.3350  0.4512 -1.4187
10067TIP3   OH251691   2.517   4.573   5.748 -0.4156  0.1597  0.0021
10067TIP3    H151692   2.559   4.655   5.722  0.3402 -0.2853 -0.1842
10067TIP3    H251693   2.587   4.520   5.784 -0.6991 -0.8204 -0.8495
10068TIP3   OH251694   3.203   4.627  16.471 -0.4376 -0.2956 -0.0283
10068TIP3    H151695   3.229   4.706  16.423 -0.0819  0.6340  1.6455
10068TIP3    H251696   3.176   4.659  16.557 -2.1992 -1.8019  0.0272
10069TIP3   OH251697   3.052   0.765  13.483 -1.2479 -0.5376  0.2193
10069TIP3    H151698   2.957   0.770  13.480 -1.2747 -1.2548 -1.0230
10069TIP3    H251699   3.080   0.852  13.512 -2.2777 -0.4589  1.0439
10070TIP3   OH251700   1.089   6.316   2.757  0.3016  0.4310 -0.5806
10070TIP3    H151701   1.075   6.224   2.783  2.5672  0.4367  0.9893
10070TIP3    H251702   1.002   6.356   2.765 -0.6785 -1.4789 -0.9635
10071TIP3   OH251703   5.155   2.398  13.518  0.4082 -0.5152  1.0763
10071TIP3    H151704   5.160   2.484  13.560 -2.0352 -0.0044  0.4469
10071TIP3    H251705   5.222   2.346  13.562  1.8140  1.6312  1.6069
10072TIP3   OH251706   1.015   0.478   3.782 -0.1433 -0.2799 -0.4250
10072TIP3    H151707   1.045   0.402   3.732  0.6897  0.6296 -1.3366
10072TIP3    H251708   1.056   0.467   3.868  1.1469 -0.1495 -0.9978
10073TIP3   OH251709   3.132   2.013   2.458 -0.3871 -0.0175  0.0067
10073TIP3    H151710   3.081   2.062   2.522  0.0430  0.6335 -0.1370
10073TIP3    H251711   3.107   1.922   2.472 -0.1643  0.0888  1.2290
10074TIP3   OH251712   1.003   5.337   3.130 -0.0240  0.0755 -0.6706
10074TIP3    H151713   1.047   5.330   3.046  0.3497  0.5713 -0.5183
10074TIP3    H251714   1.018   5.427   3.159 -1.5981  0.4263 -0.8585
10075TIP3   OH251715   2.156   3.832  12.827  0.1355 -0.3026 -0.2624
10075TIP3    H151716   2.185   3.745  12.855  0.6627 -0.3623 -0.9350
10075TIP3    H251717   2.096   3.861  12.895  0.0652 -1.1340  0.0462
10076TIP3   OH251718   0.273   2.171  16.710  0.0453 -0.2560 -0.0781
10076TIP3    H151719   0.363   2.171  16.678  0.4217 -1.0665  0.9222
10076TIP3    H251720   0.221   2.139  16.636  0.6433 -0.2476 -0.5061
10077TIP3   OH251721   1.087   3.129  11.362 -0.5992 -0.3872  0.3155
10077TIP3    H151722   1.140   3.208  11.356 -0.7414 -0.2280  1.0726
10077TIP3    H251723   1.059   3.112  11.272 -0.4052  0.3103  0.1172
10078TIP3   OH251724   0.627   2.693  11.246 -0.2801  0.1081  0.0759
10078TIP3    H151725   0.669   2.730  11.323  0.1084 -1.0869  0.4632
10078TIP3    H251726   0.698   2.647  11.200 -0.9583 -1.1666  0.2627
10079TIP3   OH251727   0.512   6.243   4.906 -0.0189 -0.0195 -0.5330
10079TIP3    H151728   0.472   6.190   4.976  0.4812 -0.7018 -0.7516
10079TIP3    H251729   0.558   6.312   4.952  2.1307 -1.6879 -0.0069
10080TIP3   OH251730   0.278   0.132   1.714 -0.2309  0.3607 -0.3479
10080TIP3    H151731   0.335   0.183   1.657 -0.4444  2.0607  0.8936
10080TIP3    H251732   0.190   0.165   1.695 -0.5369 -0.5123 -0.4874
10081TIP3   OH251733   6.245   0.930  11.271 -0.3071 -0.0367  0.3935
10081TIP3    H151734   6.297   0.862  11.229 -1.4602 -0.0502 -1.0809
10081TIP3    H251735   6.165   0.935  11.219 -1.6355  0.2479  2.3577
10082TIP3   OH251736   4.532   2.882   3.401  1.0106  0.0851  0.2782
10082TIP3    H151737   4.516   2.939   3.326  0.1277  1.1782  1.2607
10082TIP3    H251738   4.597   2.819   3.370  0.4960  0.3670 -1.4642
10083TIP3   OH251739   5.878   4.822   4.872 -0.0121  0.3110 -0.0907
10083TIP3    H151740   5.799   4.877   4.875 -0.1654  0.1643 -0.9715
10083TIP3    H251741   5.846   4.737   4.841  0.2005 -0.3381  1.4155
10084TIP3   OH251742   3.362   6.658   3.802  0.1947 -0.2879 -0.5230
10084TIP3    H151743   3.352   6.714   3.725  0.3313 -1.7185 -1.6213
10084TIP3    H251744   3.349   6.569   3.769  1.9945 -1.0875  0.7601
10085TIP3   OH251745   2.741   2.815  13.001 -0.2273  0.2342 -0.3580
10085TIP3    H151746   2.788   2.777  12.927  2.6374  1.6031  0.5770
10085TIP3    H251747   2.745   2.909  12.985 -1.0792  0.4555  0.6828
10086TIP3   OH251748   2.455   2.651  16.458 -0.2298 -0.2412  0.4403
10086TIP3    H151749   2.481   2.680  16.370 -0.7750 -0.6637  0.1353
10086TIP3    H251750   2.503   2.710  16.517 -1.5732  1.5509 -0.1524
10087TIP3   OH251751   0.105   1.565  14.168 -0.3112  0.7583  0.0760
10087TIP3    H151752   0.126   1.644  14.119 -1.0369  1.3045  0.6323
10087TIP3    H251753   0.118   1.494  14.105  0.5542  1.2853 -0.3689
10088TIP3   OH251754   3.816   5.066  12.764  0.4067  0.3358  0.0241
10088TIP3    H151755   3.861   5.041  12.845  1.1692  2.7477  0.4458
10088TIP3    H251756   3.730   5.097  12.793  0.6002  0.9972 -0.0696
10089TIP3   OH251757   3.320   2.060   0.613 -0.0598 -0.2615  0.2715
10089TIP3    H151758   3.225   2.057   0.624  0.1445 -1.0774  2.2968
10089TIP3    H251759   3.351   1.979   0.653  1.6117  0.9735  1.6351
10090TIP3   OH251760   2.718   6.611   1.392  0.7032  0.2406  0.1170
10090TIP3    H151761   2.804   6.654   1.388 -0.1451  2.1121  0.7988
10090TIP3    H251762   2.663   6.663   1.332 -0.2043 -0.3134  0.4598
10091TIP3   OH251763   0.048   5.389   5.518 -0.1451  0.2913  0.3244
10091TIP3    H151764   0.118   5.390   5.583  0.0160  0.2035  0.1531
10091TIP3    H251765   0.038   5.480   5.491 -1.6873  0.6816  2.0439
10092TIP3   OH251766   2.424   4.883  16.963  0.2385 -0.6937 -0.1666
10092TIP3    H151767   2.473   4.865  16.883  0.8041 -0.4795  0.1254
10092TIP3    H251768   2.413   4.797  17.003  1.8433 -0.5783  0.5947
10093TIP3   OH251769   4.087   6.637  16.284 -0.3014 -0.2863  0.8884
10093TIP3    H151770   4.131   6.560  16.320 -0.1448 -1.4057 -1.4937
10093TIP3    H251771   4.151   6.675  16.223 -1.6004 -0.3249 -0.5607
10094TIP3   OH251772   4.047   0.142   6.052  0.2128  0.1548  0.5822
10094TIP3    H151773   3.995   0.093   6.116  0.1515 -0.1598  0.2949
10094TIP3    H251774   4.078   0.219   6.100  1.7069 -0.9823  1.5330
10095TIP3   OH251775   3.778   3.525   0.162  0.0230 -0.4829 -0.0798
10095TIP3    H151776   3.769   3.572   0.245  0.0128  1.7182 -1.2481
10095TIP3    H251777   3.844   3.575   0.113 -2.4552  0.4794 -2.7524
10096TIP3   OH251778   0.230   4.317   0.961  0.2732 -0.6404  0.4561
10096TIP3    H151779   0.155   4.358   1.002 -1.1257 -1.9393 -0.6708
10096TIP3    H251780   0.270   4.386   0.908 -0.4607 -0.0706  0.6405
10097TIP3   OH251781   3.886   5.811  14.648  0.5627 -0.3135 -0.3657
10097TIP3    H151782   3.884   5.724  14.686  1.2264  0.0059  0.4193
10097TIP3    H251783   3.803   5.819  14.600 -0.5221 -0.5388  1.4113
10098TIP3   OH251784   2.685   6.009   0.746  0.2318  0.1191 -0.1009
10098TIP3    H151785   2.690   5.923   0.705 -0.4777 -0.2088  0.4707
10098TIP3    H251786   2.664   6.069   0.675 -2.5212 -0.6476 -0.0483
10099TIP3   OH251787   2.221   1.669   5.347 -0.1173  0.2668 -0.2869
10099TIP3    H151788   2.190   1.579   5.349  1.2017 -0.2171  1.1202
10099TIP3    H251789   2.274   1.675   5.267  2.9396 -1.4529  1.3824
10100TIP3   OH251790   4.443   6.054   0.359  0.5373 -0.3761  0.4527
10100TIP3    H151791   4.350   6.072   0.374  0.9245  0.0087  2.7912
10100TIP3    H251792   4.458   5.969   0.400  1.3009 -0.2438  0.4623
10101TIP3   OH251793   1.271   5.139  15.571 -0.0438  0.3447 -0.0557
10101TIP3    H151794   1.276   5.230  15.599 -1.3939  0.7208 -0.9027
10101TIP3    H251795   1.196   5.137  15.511 -0.0314 -1.3196 -0.0626
10102TIP3   OH251796   1.777   6.324   0.762  0.3535  0.1789 -0.0685
10102TIP3    H151797   1.730   6.407   0.771 -0.5288 -0.2306 -0.7782
10102TIP3    H251798   1.847   6.342   0.700  0.0162  0.3373 -0.4063
10103TIP3   OH251799   4.505   1.310  14.878 -0.3091 -0.0747  0.1189
10103TIP3    H151800   4.518   1.249  14.951  0.9524  0.8970  0.7415
10103TIP3    H251801   4.516   1.397  14.917  2.4255  0.4383 -1.5335
10104TIP3   OH251802   2.434   6.367  14.557 -0.4158 -0.2695 -0.2970
10104TIP3    H151803   2.351   6.326  14.581  0.2271 -0.2772  2.2585
10104TIP3    H251804   2.409   6.444  14.506 -2.0588  0.1092  0.9968
10105TIP3   OH251805   4.372   6.024   1.381  0.1609  0.3096 -0.3420
10105TIP3    H151806   4.442   6.088   1.370 -0.6310  1.3149  0.2970
10105TIP3    H251807   4.363   5.982   1.295  0.2562  1.5134 -0.9571
10106TIP3   OH251808   5.081   5.087   3.133  1.0129 -0.0322  0.5388
10106TIP3    H151809   5.075   5.081   3.228  2.3678 -0.7492  0.6115
10106TIP3    H251810   5.111   5.001   3.105  1.0214  0.2868 -0.4941
10107TIP3   OH251811   5.810   3.727   1.515 -0.0949  0.0710  0.2852
10107TIP3    H151812   5.798   3.672   1.593 -0.4493 -1.4541 -0.7978
10107TIP3    H251813   5.793   3.816   1.546 -1.2863 -0.6035  1.7134
10108TIP3   OH251814   5.951   0.130  10.935 -0.6730  0.0712  0.3942
10108TIP3    H151815   5.926   0.095  10.849  0.2443  0.5586 -0.0775
10108TIP3    H251816   5.937   0.056  10.995 -1.8402 -0.1127 -0.0673
10109TIP3   OH251817   3.684   3.514  14.156  0.0551 -0.1556  0.2689
10109TIP3    H151818   3.659   3.591  14.105  0.3565 -1.2896 -1.6822
10109TIP3    H251819   3.640   3.441  14.113 -0.1676 -1.1153  2.0339
10110TIP3   OH251820   0.265   1.670  11.775 -0.3174  0.1926  0.3715
10110TIP3    H151821   0.246   1.589  11.727 -0.6405  0.4475  0.0569
10110TIP3    H251822   0.270   1.643  11.866 -0.3496 -0.1976  0.2606
10111TIP3   OH251823   4.831   4.339  12.952 -0.4976  0.1330  0.0151
10111TIP3    H151824   4.875   4.423  12.936  0.0666 -0.1164  0.2436
10111TIP3    H251825   4.748   4.346  12.903  1.2459 -0.7110 -3.3989
10112TIP3   OH251826   2.294   1.899  15.077  0.3489  0.1272  0.6170
10112TIP3    H151827   2.291   1.824  15.018 -1.3163  0.2837  0.4315
10112TIP3    H251828   2.356   1.959  15.036  0.0681 -0.2438 -0.3904
10113TIP3   OH251829   5.505   0.879  16.028 -0.3344  0.7253  0.5613
10113TIP3    H151830   5.451   0.959  16.026 -1.8062 -0.2001 -1.7396
10113TIP3    H251831   5.489   0.839  15.942  2.9663 -0.3655  0.3471
10114TIP3   OH251832   1.115   5.849   2.219 -0.1404 -0.0291 -0.3606
10114TIP3    H151833   1.067   5.920   2.177 -0.2122  0.8195  1.0685
10114TIP3    H251834   1.173   5.815   2.151 -1.1065  0.4624 -1.4578
10115TIP3   OH251835   6.112   3.356  15.888 -0.1703  0.0618  0.0122
10115TIP3    H151836   6.022   3.367  15.919  0.4468 -0.3047  2.0377
10115TIP3    H251837   6.113   3.268  15.849 -0.8383  0.3475 -0.6938
10116TIP3   OH251838   2.576   3.725   5.088 -0.8055  0.6934  0.2496
10116TIP3    H151839   2.570   3.646   5.142 -0.4495  1.3907  1.3419
10116TIP3    H251840   2.494   3.772   5.105 -1.5365  0.0542 -1.2715
10117TIP3   OH251841   1.495   2.629   5.829 -0.4820  0.2419 -0.3181
10117TIP3    H151842   1.425   2.582   5.875 -0.3087  1.5391  1.3435
10117TIP3    H251843   1.450   2.700   5.783 -0.3139  0.7921  0.3639
10118TIP3   OH251844   3.283   3.519  13.328 -0.1010 -0.2131  0.7102
10118TIP3    H151845   3.270   3.476  13.244  1.5569  0.1381  0.2315
10118TIP3    H251846   3.253   3.609  13.314  0.6637 -0.0054  0.2928
10119TIP3   OH251847   1.956   1.832  11.073 -0.0559 -0.0560 -0.3254
10119TIP3    H151848   1.890   1.770  11.042 -0.0189 -1.6626  2.4338
10119TIP3    H251849   1.907   1.897  11.122  0.2522 -0.3626  0.4036
10120TIP3   OH251850   2.711   2.866  14.908 -0.0736  0.0395 -0.0088
10120TIP3    H151851   2.643   2.821  14.959 -1.3354 -0.0863 -1.7000
10120TIP3    H251852   2.734   2.942  14.961 -0.0438 -1.0069  1.5400
10121TIP3   OH251853   3.385   5.247   3.206  0.0405  0.2603  0.0456
10121TIP3    H151854   3.336   5.183   3.155  0.4104 -0.0461  0.0659
10121TIP3    H251855   3.402   5.318   3.145  1.1219 -0.4289 -0.4896
10122TIP3   OH251856   2.831   2.912  13.951  0.0976  0.1728  0.2611
10122TIP3    H151857   2.745   2.884  13.919 -0.2159 -1.1070  2.0545
10122TIP3    H251858   2.890   2.839  13.928  0.3678  0.3213  0.4799
10123TIP3   OH251859   0.022   6.383   0.100  0.3669  0.3532  0.0377
10123TIP3    H151860   0.003   6.290   0.115 -0.7736  0.9669  3.4718
10123TIP3    H251861  -0.050   6.413   0.044 -0.1322 -0.5297  0.1841
10124TIP3   OH251862   4.042   0.336  12.914 -0.6305 -0.4249 -0.7751
10124TIP3    H151863   3.960   0.296  12.885 -0.7813 -0.0171 -0.9309
10124TIP3    H251864   4.025   0.360  13.005  0.5283 -3.5439  0.3871
10125TIP3   OH251865   3.835   6.258   2.190  0.5346 -0.1533 -0.2214
10125TIP3    H151866   3.912   6.228   2.142  1.5490 -0.4494  1.5092
10125TIP3    H251867   3.793   6.178   2.222  0.2570  0.0637 -0.0291
10126TIP3   OH251868   1.506   5.186  15.370 -0.1386  0.9953  0.1426
10126TIP3    H151869   1.585   5.163  15.420 -0.5397  0.3986  0.5093
10126TIP3    H251870   1.441   5.208  15.437 -0.4334  1.0063 -0.1437
10127TIP3   OH251871   1.039   5.601   1.782  0.1345  0.5417 -0.1770
10127TIP3    H151872   1.046   5.679   1.839 -1.3544  0.4499  0.1902
10127TIP3    H251873   0.955   5.561   1.807  1.6078 -2.1537  0.8305
10128TIP3   OH251874   5.192   6.015  11.962  0.1203  0.0559 -0.8072
10128TIP3    H151875   5.213   5.933  11.917 -0.8990 -1.0728  0.6759
10128TIP3    H251876   5.097   6.017  11.965  0.1248 -0.4602  2.1277
10129TIP3   OH251877   3.319   2.442  11.812 -0.4564 -0.1982  0.1482
10129TIP3    H151878   3.412   2.455  11.791 -0.0821 -1.6094  0.7863
10129TIP3    H251879   3.294   2.521  11.859 -0.0605  0.9524 -1.4748
10130TIP3   OH251880   1.162   2.818   5.581 -0.1734 -0.0294 -0.0149
10130TIP3    H151881   1.189   2.891   5.636  0.2754  0.1276 -0.4278
10130TIP3    H251882   1.241   2.796   5.531 -0.5586 -0.1929 -0.5605
10131TIP3   OH251883   3.630   1.588   1.965  0.1257  0.3723 -0.5005
10131TIP3    H151884   3.608   1.660   2.024 -0.5858 -1.3639  1.5057
10131TIP3    H251885   3.553   1.580   1.908  0.2700  1.2804 -0.8284
10132TIP3   OH251886   6.320   2.638  11.064  0.4963 -0.6205  0.2195
10132TIP3    H151887   6.282   2.646  11.152 -1.1776 -1.1095 -0.4250
10132TIP3    H251888   6.338   2.729  11.038 -0.4822 -0.3468  0.4510
10133TIP3   OH251889   3.993   4.423   5.415 -0.2298  0.1275  0.2762
10133TIP3    H151890   4.023   4.437   5.326  3.8522 -1.2782  1.2356
10133TIP3    H251891   3.982   4.328   5.422 -1.3570  0.2894  1.0663
10134TIP3   OH251892   6.466   4.831   3.109 -0.2063  0.3660 -0.2770
10134TIP3    H151893   6.448   4.866   3.197 -0.0999 -1.9529  0.7397
10134TIP3    H251894   6.554   4.795   3.116 -0.6191 -0.8357 -0.9661
10135TIP3   OH251895   0.744   5.874  10.946 -0.6321  0.0802 -0.3968
10135TIP3    H151896   0.803   5.803  10.919  1.0764  1.3444 -0.1838
10135TIP3    H251897   0.704   5.904  10.864  1.5585  1.3142 -1.1268
10136TIP3   OH251898   2.460   0.365  14.870 -0.6112 -0.5662  0.1684
10136TIP3    H151899   2.490   0.285  14.913  0.8117  0.4782  1.1972
10136TIP3    H251900   2.532   0.389  14.812 -0.5046  0.6284  0.7866
10137TIP3   OH251901   4.733   3.131   6.102 -0.1211 -0.0879 -0.1859
10137TIP3    H151902   4.779   3.055   6.138  0.5653  0.5725  0.3553
10137TIP3    H251903   4.680   3.163   6.174  1.7577  1.6409  0.5396
10138TIP3   OH251904   2.969   2.047  12.740  0.2569  0.5934  0.2585
10138TIP3    H151905   3.035   1.991  12.781 -0.3744 -0.5034 -0.1880
10138TIP3    H251906   2.964   2.016  12.650 -0.6377  0.8760  0.2010
10139TIP3   OH251907   2.110   4.916   1.732 -0.1389 -0.5811 -0.9646
10139TIP3    H151908   2.074   5.004   1.737  0.1986 -0.5045  0.7717
10139TIP3    H251909   2.037   4.861   1.704 -0.4311  0.1861 -1.7486
10140TIP3   OH251910   0.609   6.373  13.786  0.5616 -0.5367  0.3042
10140TIP3    H151911   0.518   6.392  13.765  0.7607  0.3382  0.2125
10140TIP3    H251912   0.604   6.320  13.866 -0.0388 -0.8728  0.0522
10141TIP3   OH251913   4.468   5.624  11.352  0.4656 -0.2642  0.3218
10141TIP3    H151914   4.528   5.686  11.310  1.2369 -0.6779  0.7940
10141TIP3    H251915   4.413   5.679  11.408 -1.2601  0.4316 -1.9300
10142TIP3   OH251916   0.519   5.302   2.671 -0.1735  0.1037  0.4543
10142TIP3    H151917   0.532   5.276   2.580  0.8547  1.7407  0.0811
10142TIP3    H251918   0.559   5.232   2.722 -0.3596 -0.6096 -0.3566
10143TIP3   OH251919   3.600   2.228  10.632 -0.3266  0.4723 -0.0556
10143TIP3    H151920   3.523   2.284  10.621 -1.5894 -0.6630  2.3236
10143TIP3    H251921   3.583   2.152  10.577 -0.3861  0.6800 -0.3290
10144TIP3   OH251922   1.873   6.797   2.936  0.3907  0.3464  0.1531
10144TIP3    H151923   1.787   6.839   2.937  0.8807  1.3694  1.1212
10144TIP3    H251924   1.885   6.769   2.845 -1.4808 -0.9427  0.2432
10145TIP3   OH251925   6.098   4.991  11.788  0.0409 -1.0054 -0.0458
10145TIP3    H151926   6.080   4.952  11.873 -1.2066  0.0388  0.1971
10145TIP3    H251927   6.168   4.937  11.751  0.2618 -1.7662  1.4224
10146TIP3   OH251928   0.618   6.061   3.277 -0.5075  0.0063  0.2203
10146TIP3    H151929   0.629   6.137   3.335 -3.2004  1.4892 -1.0624
10146TIP3    H251930   0.690   6.069   3.214 -0.7477  1.5293  0.1038
10147TIP3   OH251931   6.257   4.887  11.027  0.2985 -0.2022  0.5575
10147TIP3    H151932   6.192   4.937  10.978  1.1392  0.8105  0.4660
10147TIP3    H251933   6.286   4.819  10.966  0.5306  0.3654  0.0243
10148TIP3   OH251934   1.270   0.362  11.166  0.1025  0.1800  0.1959
10148TIP3    H151935   1.195   0.421  11.160 -0.2219 -0.2369  0.0230
10148TIP3    H251936   1.273   0.335  11.258 -0.3808 -0.3266  0.0713
10149TIP3   OH251937   3.591   6.761  17.014 -0.1167  0.4228  0.0440
10149TIP3    H151938   3.615   6.846  16.976  0.1903  0.5654  0.5413
10149TIP3    H251939   3.633   6.696  16.958  0.1356  0.6210  0.0004
10150TIP3   OH251940   0.984   2.144  10.406 -0.2028 -0.3608 -0.1129
10150TIP3    H151941   1.040   2.075  10.369 -0.2235 -0.5481  0.2006
10150TIP3    H251942   0.908   2.145  10.348  1.3697  1.9169 -2.3491
10151TIP3   OH251943   6.020   4.948   0.561 -0.0034 -0.0272  0.5424
10151TIP3    H151944   5.958   5.018   0.546 -1.1623 -0.7946  1.5253
10151TIP3    H251945   5.997   4.881   0.497 -1.0966 -0.8521  1.7415
10152TIP3   OH251946   5.093   4.657  14.044 -0.3830 -0.0526  0.0602
10152TIP3    H151947   5.114   4.716  13.972  0.0658 -0.4889 -0.1720
10152TIP3    H251948   5.101   4.711  14.122 -1.8154  0.6832 -0.2624
10153TIP3   OH251949   2.276   1.956  15.880  0.6305 -0.5106  0.2059
10153TIP3    H151950   2.346   1.934  15.818  0.9010  0.0631  0.2948
10153TIP3    H251951   2.294   1.901  15.956  0.4799 -0.9912 -0.1044
10154TIP3   OH251952   1.441   3.906  12.944  0.0881 -0.1057 -0.0243
10154TIP3    H151953   1.413   3.984  12.993  2.3739  0.7981 -0.0435
10154TIP3    H251954   1.433   3.931  12.852  0.2623 -0.0949 -0.0377
10155TIP3   OH251955   1.315   0.429   2.048  0.0186 -0.2309  0.0011
10155TIP3    H151956   1.254   0.452   2.118 -0.4722  2.6244 -1.2295
10155TIP3    H251957   1.271   0.359   2.000 -0.5494 -0.8065  1.3242
10156TIP3   OH251958   4.014   0.400  11.028 -0.5347 -0.5098 -0.5131
10156TIP3    H151959   4.095   0.447  11.012 -1.3769  1.0055 -0.5579
10156TIP3    H251960   4.030   0.350  11.108  1.0186 -1.7017 -1.5299
10157TIP3   OH251961   4.753   0.610  13.331 -0.1626 -0.2925 -0.5155
10157TIP3    H151962   4.739   0.522  13.298  1.0081 -0.2876 -1.0858
10157TIP3    H251963   4.797   0.598  13.415 -0.1041 -0.2547 -0.5401
10158TIP3   OH251964   1.386   6.138  13.226  0.1648  0.7115 -0.4932
10158TIP3    H151965   1.387   6.046  13.201  1.0004  0.3602  0.7252
10158TIP3    H251966   1.457   6.178  13.176  0.2142  0.5546 -0.5486
10159TIP3   OH251967   1.380   3.012  14.404  0.1360 -0.0325  0.4091
10159TIP3    H151968   1.359   2.987  14.314 -2.9222 -0.8093  1.2156
10159TIP3    H251969   1.342   3.099  14.415 -0.4122 -0.3523  1.1934
10160TIP3   OH251970   0.925   2.476  16.456  0.0479  0.8523 -0.4705
10160TIP3    H151971   0.908   2.392  16.500  3.1603  0.2720 -0.1290
10160TIP3    H251972   0.949   2.451  16.367 -3.5798  1.8521 -1.9281
10161TIP3   OH251973   3.635   6.054   1.587 -0.2011 -0.0395 -0.6967
10161TIP3    H151974   3.601   6.144   1.582 -0.3829 -0.0174  0.5437
10161TIP3    H251975   3.626   6.020   1.498 -1.2134  0.7859 -0.9344
10162TIP3   OH251976   2.650   5.191   0.770  0.7985 -0.0536 -0.1153
10162TIP3    H151977   2.595   5.259   0.730  2.3223  0.7832 -0.8876
10162TIP3    H251978   2.728   5.237   0.799  1.4889 -1.3391  0.1574
10163TIP3   OH251979   3.186   5.221  13.344 -0.2991  0.5424  0.0272
10163TIP3    H151980   3.189   5.281  13.418  0.1833  0.7196 -0.1324
10163TIP3    H251981   3.268   5.172  13.349 -0.4370  0.2843 -0.1672
10164TIP3   OH251982   0.374   0.572  12.676  0.3347 -0.2436  0.4049
10164TIP3    H151983   0.405   0.535  12.759  1.1161 -0.7212 -0.0784
10164TIP3    H251984   0.351   0.496  12.623 -0.0150  0.0502  0.1322
10165TIP3   OH251985   1.569   1.583  16.374 -0.1300 -0.3803 -0.1182
10165TIP3    H151986   1.481   1.553  16.349  0.3347 -1.0778 -0.9532
10165TIP3    H251987   1.601   1.516  16.435 -0.2259 -0.0440  0.3123
10166TIP3   OH251988   1.617   2.268  16.474  0.0764  0.5861  0.5456
10166TIP3    H151989   1.527   2.297  16.467  0.1277  0.5471 -0.3853
10166TIP3    H251990   1.669   2.348  16.479  0.1065  0.6573 -0.5932
10167TIP3   OH251991   3.545   5.276   5.637 -0.4677  0.7073  0.2160
10167TIP3    H151992   3.581   5.310   5.719  1.2319 -1.5180  0.5238
10167TIP3    H251993   3.607   5.304   5.570 -1.3315  1.7052 -0.1860
10168TIP3   OH251994   1.419   4.241   2.477 -0.0886 -0.4877  0.0053
10168TIP3    H151995   1.407   4.223   2.571 -1.2696 -1.2743 -0.2824
10168TIP3    H251996   1.362   4.316   2.460  3.1086  2.3386  0.7113
10169TIP3   OH251997   3.937   5.146   0.289 -0.2839  0.2239  0.2714
10169TIP3    H151998   3.967   5.225   0.334 -1.4529 -0.3218  2.1151
10169TIP3    H251999   3.913   5.175   0.201  1.7591  1.3966  0.0502
10170TIP3   OH252000   4.275   3.856   3.646 -0.4329 -0.0786 -0.0047
10170TIP3    H152001   4.269   3.854   3.741  2.1469 -1.7709  0.2083
10170TIP3    H252002   4.277   3.949   3.624 -1.0793  0.3405  1.5762
10171TIP3   OH252003   2.907   2.657   6.229  0.1229  1.0386  0.2362
10171TIP3    H152004   2.976   2.671   6.164  0.3465  1.4342  0.5546
10171TIP3    H252005   2.835   2.712   6.199  0.2128  1.1930  0.3026
10172TIP3   OH252006   0.240   5.964   5.485 -0.5011 -0.1959  0.0663
10172TIP3    H152007   0.333   5.944   5.475 -0.0314  1.7188  0.2328
10172TIP3    H252008   0.197   5.879   5.482  1.4075 -1.3174  1.7462
10173TIP3   OH252009   0.437   3.591  13.831  0.1249  0.0283 -0.1956
10173TIP3    H152010   0.513   3.548  13.790  1.9636  0.0089  2.8822
10173TIP3    H252011   0.388   3.519  13.870 -2.1173 -0.0510 -2.8479
10174TIP3   OH252012   6.115   0.459  11.763 -0.5837 -0.7386 -0.2255
10174TIP3    H152013   6.125   0.552  11.744  0.5805 -0.6975  0.4737
10174TIP3    H252014   6.020   0.445  11.764 -0.9542  1.1046  2.5933
10175TIP3   OH252015   1.023   1.530  16.249  0.1798 -0.0722 -0.4557
10175TIP3    H152016   0.956   1.546  16.315  0.3558 -1.7982  0.1929
10175TIP3    H252017   0.978   1.545  16.166 -0.4521  0.6821  0.0039
10176TIP3   OH252018   0.078   3.920   3.241  0.2891  0.2231  0.5026
10176TIP3    H152019   0.060   3.928   3.335  2.0023 -0.1169  0.9098
10176TIP3    H252020   0.164   3.962   3.231 -0.0377  0.5732 -0.9919
10177TIP3   OH252021   2.433   2.646   3.847 -0.0490  0.0450  0.3173
10177TIP3    H152022   2.348   2.605   3.832  0.6808 -1.8887  1.1896
10177TIP3    H252023   2.416   2.716   3.910 -0.9265 -0.5791  0.7821
10178TIP3   OH252024   2.093   0.544   1.437 -0.4926  0.5063 -0.2119
10178TIP3    H152025   2.109   0.460   1.481  1.2038  0.8434 -0.1142
10178TIP3    H252026   2.061   0.601   1.507 -0.4962  0.2610 -0.0094
10179TIP3   OH252027   0.550   1.425  13.468 -0.6273  0.2252 -0.1480
10179TIP3    H152028   0.645   1.436  13.467 -0.8020  2.0891 -0.6754
10179TIP3    H252029   0.520   1.469  13.389 -2.0301  1.0226  0.7778
10180TIP3   OH252030   0.151   6.804   6.079  0.2426 -0.0372  0.7053
10180TIP3    H152031   0.074   6.805   6.137  0.1983  0.6964  0.6429
10180TIP3    H252032   0.216   6.753   6.127 -0.6009 -1.5530  0.3262
10181TIP3   OH252033   6.656   5.318  11.861 -0.2158  0.3208  0.2411
10181TIP3    H152034   6.667   5.261  11.785  1.5509 -0.0440  0.7257
10181TIP3    H252035   6.692   5.402  11.834 -0.3401  0.4263  0.4037
10182TIP3   OH252036   2.510   3.552   0.775  0.0440 -0.2888  0.5498
10182TIP3    H152037   2.477   3.617   0.712  0.1170  0.3176  1.1247
10182TIP3    H252038   2.499   3.594   0.860  1.6151 -0.3578  0.8182
10183TIP3   OH252039   0.403   5.805   3.707  0.5186 -0.2495 -0.3815
10183TIP3    H152040   0.493   5.791   3.679 -0.4655 -1.0627 -3.5833
10183TIP3    H252041   0.367   5.865   3.642 -1.8299 -1.7714 -0.6195
10184TIP3   OH252042   0.835   6.704   1.375 -0.1908  0.3786  0.0769
10184TIP3    H152043   0.761   6.761   1.355  0.7551  2.2676  1.5929
10184TIP3    H252044   0.907   6.736   1.321  0.5804  1.2779  1.5481
10185TIP3   OH252045   1.180   5.651  17.075  0.6669 -0.0795 -0.1514
10185TIP3    H152046   1.259   5.703  17.092  1.3674 -0.5027 -1.8767
10185TIP3    H252047   1.142   5.692  16.997 -1.8180  1.1803  1.5756
10186TIP3   OH252048   0.189   5.117   3.016  0.0724 -0.6973  0.2538
10186TIP3    H152049   0.168   5.026   3.039 -0.3101 -0.4603  0.8483
10186TIP3    H252050   0.107   5.164   3.026  0.5453 -0.0413  1.1620
10187TIP3   OH252051   4.554   1.726   0.669  0.8134 -0.1778  0.0544
10187TIP3    H152052   4.557   1.794   0.602  0.1331  0.5518  0.7485
10187TIP3    H252053   4.636   1.736   0.718  0.2333  0.8891  0.8525
10188TIP3   OH252054   0.818   1.012  13.169 -0.1303  0.8553  0.5929
10188TIP3    H152055   0.751   0.977  13.226  0.6658 -0.8118  0.5722
10188TIP3    H252056   0.845   0.937  13.115  0.2090  2.0060 -0.8977
10189TIP3   OH252057   5.622   4.183  13.050  0.0632 -0.2310  0.2005
10189TIP3    H152058   5.685   4.253  13.040  0.3261 -0.5979 -0.7976
10189TIP3    H252059   5.563   4.192  12.975 -0.8003 -0.1647  0.8768
10190TIP3   OH252060   3.825   4.367   2.684  0.0238  0.4104  0.0667
10190TIP3    H152061   3.831   4.329   2.771 -0.4091 -0.3572 -0.2297
10190TIP3    H252062   3.860   4.300   2.626  0.1527  0.8481 -0.3679
10191TIP3   OH252063   4.362   0.535   2.112 -0.4378 -0.5943  0.1635
10191TIP3    H152064   4.319   0.617   2.087 -0.0819  0.1627  1.8693
10191TIP3    H252065   4.321   0.469   2.057 -1.1493  0.6467 -0.8493
10192TIP3   OH252066   3.001   6.300  12.197  0.3065  0.2706 -0.2128
10192TIP3    H152067   3.001   6.352  12.276 -0.4676  0.2851 -0.2138
10192TIP3    H252068   3.086   6.255  12.197 -0.0130 -0.3582  1.0347
10193TIP3   OH252069   2.885   0.304  11.700 -0.0953  0.0545 -0.2767
10193TIP3    H152070   2.883   0.212  11.673 -0.4917  0.2350 -0.8603
10193TIP3    H252071   2.858   0.353  11.623  0.7730  0.7179 -0.1790
10194TIP3   OH252072   0.345   3.457   3.719  0.0307 -0.0716  0.8394
10194TIP3    H152073   0.317   3.444   3.629 -1.8410  0.3919  1.3101
10194TIP3    H252074   0.279   3.414   3.772  1.9620 -1.7660  2.0091
10195TIP3   OH252075   0.488   0.205   4.854  0.5429 -0.2361  0.6326
10195TIP3    H152076   0.576   0.230   4.881  1.2871 -1.0841 -0.8310
10195TIP3    H252077   0.434   0.283   4.867  1.4659  0.2362  1.7014
10196TIP3   OH252078   2.665   2.270  16.402  0.6238 -0.1473 -0.7120
10196TIP3    H152079   2.579   2.253  16.365  0.2982  0.6656 -0.3339
10196TIP3    H252080   2.712   2.187  16.391 -0.3509 -0.7441 -0.4879
10197TIP3   OH252081   0.538   4.690  14.913 -0.1434 -0.7049 -0.2519
10197TIP3    H152082   0.520   4.783  14.929 -2.2759 -1.0616 -0.2717
10197TIP3    H252083   0.519   4.647  14.997  0.3746 -1.1796 -0.3702
10198TIP3   OH252084   3.612   3.164  14.954 -0.2876  0.1614 -0.7732
10198TIP3    H152085   3.524   3.127  14.941 -0.6316 -0.3216  2.1193
10198TIP3    H252086   3.596   3.250  14.993  0.3957 -1.0303  2.3894
10199TIP3   OH252087   2.181   2.561  11.126 -0.0158  0.8150 -0.0097
10199TIP3    H152088   2.132   2.586  11.047  1.2704  0.5424 -0.9168
10199TIP3    H252089   2.119   2.508  11.176 -0.3139 -0.5382 -1.7012
10200TIP3   OH252090   6.572   4.211  11.930 -0.2768 -0.0456  0.0976
10200TIP3    H152091   6.552   4.153  12.004  1.0722 -1.9461 -0.9198
10200TIP3    H252092   6.622   4.283  11.968 -0.1432 -0.6681  1.1352
10201TIP3   OH252093   6.772   1.993   2.732 -0.2527 -0.7625  0.2956
10201TIP3    H152094   6.746   2.084   2.717  0.5142 -0.4388  0.8736
10201TIP3    H252095   6.865   1.990   2.707 -0.8978 -2.0201 -2.2786
10202TIP3   OH252096   4.533   1.902  14.705  0.0249 -0.0228 -0.3629
10202TIP3    H152097   4.585   1.979  14.726  0.3899 -0.0891 -1.0034
10202TIP3    H252098   4.455   1.937  14.661 -0.5787  0.0905  0.7588
10203TIP3   OH252099   0.312   2.875  12.416 -0.1820  0.4005 -0.0519
10203TIP3    H152100   0.276   2.814  12.480 -0.9436  1.4283  0.5352
10203TIP3    H252101   0.259   2.954  12.426  0.1865  0.8511 -1.4272
10204TIP3   OH252102   5.161   4.514   4.230 -0.1458  0.1698  0.2551
10204TIP3    H152103   5.191   4.476   4.148 -2.7567 -3.8612  0.8819
10204TIP3    H252104   5.084   4.566   4.206  0.5178  1.0225 -0.0664
10205TIP3   OH252105   6.574   5.426   4.097  0.2280 -0.1106  0.1998
10205TIP3    H152106   6.490   5.381   4.089 -1.4166  2.5325  1.1328
10205TIP3    H252107   6.606   5.402   4.184 -0.9391  0.9482  0.9449
10206TIP3   OH252108   6.846   4.458  11.539 -0.2520  0.5197 -0.9252
10206TIP3    H152109   6.867   4.538  11.586 -0.5933  0.1026 -0.0286
10206TIP3    H252110   6.757   4.472  11.506  0.0184  0.8443 -1.5338
10207TIP3   OH252111   5.138   6.526  13.521  0.0055 -0.0792  0.0369
10207TIP3    H152112   5.208   6.462  13.506 -1.3122 -0.9323 -3.6329
10207TIP3    H252113   5.165   6.603  13.470 -0.8549  0.2605  0.0832
10208TIP3   OH252114   2.189   1.787  13.940  0.0192  0.2882  0.1000
10208TIP3    H152115   2.210   1.879  13.924  1.8940 -0.1486 -0.1486
10208TIP3    H252116   2.268   1.739  13.917 -1.2931 -1.5350 -0.9222
10209TIP3   OH252117   3.338   0.760   5.352  0.2135  0.2092  0.2573
10209TIP3    H152118   3.259   0.721   5.315  1.2616 -1.4118 -0.3674
10209TIP3    H252119   3.338   0.850   5.319 -0.9043 -0.0278 -0.4561
10210TIP3   OH252120   3.247   6.051   4.824  0.4401 -0.5387  0.0750
10210TIP3    H152121   3.153   6.063   4.807  0.5281  1.8231  0.9321
10210TIP3    H252122   3.288   6.129   4.788  1.9343 -0.9137  0.8930
10211TIP3   OH252123   0.178   0.196   0.903  0.5830 -0.0791  0.4138
10211TIP3    H152124   0.110   0.164   0.962  0.6676  0.2433  0.6904
10211TIP3    H252125   0.144   0.179   0.815  0.6249 -0.9133  0.5520
10212TIP3   OH252126   0.301   1.767   5.328 -0.4792  0.0602  0.0977
10212TIP3    H152127   0.327   1.843   5.380  0.0852  1.0588 -1.5786
10212TIP3    H252128   0.380   1.741   5.281 -1.0482 -0.5802 -0.5365
10213TIP3   OH252129   2.820   4.857  11.496 -0.3404  0.2373  0.3298
10213TIP3    H152130   2.740   4.870  11.445 -1.0591  0.7908  1.5473
10213TIP3    H252131   2.843   4.945  11.528 -1.2127 -0.3339  2.7950
10214TIP3   OH252132   4.623   5.376  14.536  0.0434  0.2069 -0.2997
10214TIP3    H152133   4.545   5.430  14.545 -0.1263  0.0578 -0.8461
10214TIP3    H252134   4.627   5.354  14.443 -0.0818 -1.0080 -0.0338
10215TIP3   OH252135   5.627   3.562  11.877  0.1372 -0.5837 -0.3126
10215TIP3    H152136   5.700   3.573  11.817 -0.8757  0.5997 -1.3759
10215TIP3    H252137   5.553   3.604  11.834 -0.6745  0.1829  1.6739
10216TIP3   OH252138   5.520   4.886   6.354 -0.6180  0.3599  0.2478
10216TIP3    H152139   5.498   4.805   6.399 -3.4829  0.4752 -0.7234
10216TIP3    H252140   5.573   4.935   6.417 -0.0030 -1.6641  1.3816
10217TIP3   OH252141   2.786   5.252   1.171 -0.4637  0.1714 -0.4336
10217TIP3    H152142   2.833   5.330   1.202 -1.9830  0.7081  0.6427
10217TIP3    H252143   2.849   5.181   1.180  0.5131  1.0491 -0.1171
10218TIP3   OH252144   2.143   6.379  15.428  0.1293  0.3308  0.1202
10218TIP3    H152145   2.187   6.355  15.346 -1.2914  0.2977 -0.6718
10218TIP3    H252146   2.146   6.474  15.429 -1.3601  0.4285 -0.8926
10219TIP3   OH252147   1.167   0.829  12.300 -0.0122 -0.7446  0.2512
10219TIP3    H152148   1.248   0.805  12.346 -1.0583 -2.1190  1.4639
10219TIP3    H252149   1.117   0.880  12.363 -0.4534 -0.6039 -0.2030
10220TIP3   OH252150   2.886   3.336  12.063 -0.1121  0.0431  0.0494
10220TIP3    H152151   2.940   3.333  12.142  0.6522  0.2677 -0.4502
10220TIP3    H252152   2.846   3.249  12.058  0.8912 -0.4296 -0.0276
10221TIP3   OH252153   1.731   1.951  11.467  0.7089  0.0107  0.6483
10221TIP3    H152154   1.701   1.985  11.551  1.4921 -1.4208  1.5639
10221TIP3    H252155   1.654   1.907  11.430 -0.8758  4.0154 -1.4135
10222TIP3   OH252156   1.354   2.466  12.663 -0.3055  0.1205 -0.8068
10222TIP3    H152157   1.317   2.534  12.607 -1.9964 -0.3791 -0.3604
10222TIP3    H252158   1.317   2.384  12.629  1.5181 -0.6033 -1.1985
10223TIP3   OH252159   0.131   0.583   2.808 -0.1722 -0.7275  0.1812
10223TIP3    H152160   0.216   0.582   2.765 -0.9265 -1.8197 -1.3844
10223TIP3    H252161   0.123   0.672   2.843  1.4758 -0.5259  0.1302
10224TIP3   OH252162   5.761   1.464  11.392  0.1853  0.0716 -0.1687
10224TIP3    H152163   5.854   1.464  11.415  0.2027  1.6989 -0.1143
10224TIP3    H252164   5.757   1.508  11.307 -0.5147 -0.3144 -0.3456
10225TIP3   OH252165   4.273   3.326  14.665  0.2206  0.2817  0.9160
10225TIP3    H152166   4.349   3.383  14.651 -0.1222  1.0922  2.1851
10225TIP3    H252167   4.312   3.242  14.690  0.7958  1.3057  3.9201
10226TIP3   OH252168   1.778   0.893   1.966  0.1426 -0.5894  0.1552
10226TIP3    H152169   1.703   0.858   2.015  0.5299 -2.4869 -0.5257
10226TIP3    H252170   1.835   0.818   1.952  1.7767  0.6353 -0.1220
10227TIP3   OH252171   1.850   0.949   3.371 -0.0189 -0.4744  0.2895
10227TIP3    H152172   1.886   0.948   3.283 -0.5749 -1.5854  0.0501
10227TIP3    H252173   1.778   0.886   3.368  0.0446 -0.6405  1.5749
10228TIP3   OH252174   5.789   0.967   5.426  0.2758  0.0876 -0.0034
10228TIP3    H152175   5.805   0.928   5.512  1.0592  1.2572  0.3940
10228TIP3    H252176   5.875   0.998   5.397 -0.5048  2.6944  0.2725
10229TIP3   OH252177   0.296   1.645   4.711 -0.6350  0.0293  0.1509
10229TIP3    H152178   0.313   1.679   4.798  0.8414  0.6622 -0.3503
10229TIP3    H252179   0.253   1.561   4.726 -0.5214  0.1911  1.4804
10230TIP3   OH252180   6.399   3.877  14.298  0.0645 -0.0080  0.0450
10230TIP3    H152181   6.389   3.920  14.213 -0.1180  0.1669  0.1522
10230TIP3    H252182   6.466   3.810  14.284 -0.1807 -0.1788 -0.3078
10231TIP3   OH252183   6.535   2.683   6.166 -0.2647 -0.3990 -0.6915
10231TIP3    H152184   6.473   2.741   6.121  1.1131  1.0819 -0.7959
10231TIP3    H252185   6.520   2.700   6.259  1.2397  1.4625 -0.7265
10232TIP3   OH252186   5.966   0.505  10.594 -0.1262  0.2180 -0.4440
10232TIP3    H152187   5.897   0.440  10.605 -0.0099  0.2074  0.2650
10232TIP3    H252188   5.963   0.558  10.674  0.2195  0.6642 -0.7182
10233TIP3   OH252189   6.419   4.240  13.149 -0.8455 -0.0483  0.0812
10233TIP3    H152190   6.497   4.290  13.171 -0.6016 -0.8789  1.1902
10233TIP3    H252191   6.383   4.284  13.072 -0.0553  1.1642  0.3799
10234TIP3   OH252192   4.733   6.177   3.051  0.0766 -0.6539  0.0321
10234TIP3    H152193   4.742   6.240   3.123  0.3059 -0.5472 -0.0890
10234TIP3    H252194   4.714   6.093   3.095 -1.5458 -0.2695  0.1451
10235TIP3   OH252195   2.258   5.281   5.050 -0.3646  0.2733  0.4732
10235TIP3    H152196   2.349   5.282   5.079 -0.1001 -1.4664 -0.1550
10235TIP3    H252197   2.259   5.227   4.971 -2.1152 -0.7558  1.1086
10236TIP3   OH252198   0.597   2.675  12.852 -0.0820 -0.5238 -0.1834
10236TIP3    H152199   0.593   2.643  12.942 -3.1889  1.4556  0.5135
10236TIP3    H252200   0.638   2.761  12.860 -0.4280 -0.3154 -0.6428
10237TIP3   OH252201   6.255   4.349  15.301  0.0108 -0.2326  0.3677
10237TIP3    H152202   6.195   4.391  15.363  0.1535  0.7208 -0.1251
10237TIP3    H252203   6.209   4.351  15.218 -0.1854 -1.5242  0.4306
10238TIP3   OH252204   0.040   0.233   5.515 -0.2316  0.0188  0.2733
10238TIP3    H152205   0.104   0.297   5.482 -0.3442 -0.3655 -0.7380
10238TIP3    H252206   0.091   0.155   5.533 -0.4446 -0.4306 -0.9439
10239TIP3   OH252207   3.286   3.399  11.064 -0.1544  0.3571 -0.0738
10239TIP3    H152208   3.249   3.330  11.119  1.5635 -0.3029  0.2936
10239TIP3    H252209   3.381   3.393  11.077  0.0961  2.2484 -0.6791
10240TIP3   OH252210   4.864   2.014  14.586 -0.3462 -0.3029  0.3529
10240TIP3    H152211   4.854   2.003  14.681  0.3772  2.6114  0.8787
10240TIP3    H252212   4.955   2.040  14.575 -0.3620 -0.8469 -1.1831
10241TIP3   OH252213   4.303   5.906   5.246  0.4446  0.4168 -0.3259
10241TIP3    H152214   4.372   5.854   5.286 -0.8679 -1.3670 -0.2202
10241TIP3    H252215   4.273   5.965   5.315  1.0077  0.3152  0.0084
10242TIP3   OH252216   3.813   5.851   2.577  0.2741  0.1251  0.9328
10242TIP3    H152217   3.739   5.810   2.533  0.1802  0.4327  0.7964
10242TIP3    H252218   3.841   5.787   2.642 -0.1471  0.0273  1.0215
10243TIP3   OH252219   2.050   5.699  16.126  0.1124 -0.6334 -0.7066
10243TIP3    H152220   2.013   5.773  16.175 -0.0603 -0.9329 -0.3795
10243TIP3    H252221   2.027   5.716  16.035 -0.1272 -0.3992 -0.6037
10244TIP3   OH252222   0.997   2.076  12.675  0.2239  0.1978  0.3977
10244TIP3    H152223   1.001   2.073  12.770  1.8427 -1.0806  0.3350
10244TIP3    H252224   1.087   2.096  12.647 -0.3014  0.9576 -0.8627
10245TIP3   OH252225   2.964   4.237   1.086  0.1253  0.1327  0.2611
10245TIP3    H152226   2.985   4.272   0.999  1.2642  0.1076  0.5036
10245TIP3    H252227   2.912   4.159   1.069 -1.5501  1.3273 -0.3230
10246TIP3   OH252228   4.890   2.517   0.932  0.2780 -0.0864  0.2343
10246TIP3    H152229   4.804   2.550   0.906  0.5164 -0.8056 -1.5777
10246TIP3    H252230   4.922   2.582   0.995 -0.7199  1.2895 -0.6124
10247TIP3   OH252231   4.601   0.605  16.959  0.1602  0.3485  0.9245
10247TIP3    H152232   4.560   0.691  16.943  0.0763  0.8998  3.6809
10247TIP3    H252233   4.692   0.625  16.977  0.8751 -0.5152 -1.4108
10248TIP3   OH252234   5.271   2.991   3.266  0.2733  0.3450  0.0255
10248TIP3    H152235   5.206   3.033   3.210 -1.0123 -3.4901 -1.6776
10248TIP3    H252236   5.355   3.017   3.228 -0.3282  2.2470 -0.1380
10249TIP3   OH252237   0.513   4.892   3.307  0.0856  0.2193 -0.7853
10249TIP3    H152238   0.492   4.889   3.214  0.1847 -0.9393 -0.7778
10249TIP3    H252239   0.427   4.896   3.350  0.0181 -0.0165 -0.8977
10250TIP3   OH252240   2.144   1.855   3.183 -0.5710  0.1163 -0.1629
10250TIP3    H152241   2.120   1.779   3.237  0.1270 -0.2948 -0.4202
10250TIP3    H252242   2.223   1.827   3.137 -0.5605  0.8493 -0.5939
10251TIP3   OH252243   0.924   0.813  11.223  0.0012 -0.4699 -0.5279
10251TIP3    H152244   0.981   0.735  11.223  2.2591  1.0222  1.7567
10251TIP3    H252245   0.850   0.788  11.168  0.6022 -4.2334  0.0591
10252TIP3   OH252246   5.238   5.439  12.891 -0.0045 -0.1576  0.6709
10252TIP3    H152247   5.282   5.358  12.915 -0.3344 -0.5889 -0.1600
10252TIP3    H252248   5.224   5.485  12.975 -0.6977 -1.4004  1.2602
10253TIP3   OH252249   5.386   4.883  13.790  0.0909 -0.5368 -0.1112
10253TIP3    H152250   5.433   4.809  13.829  1.3926  0.5619  0.4861
10253TIP3    H252251   5.377   4.860  13.697 -1.5833 -2.4482  0.4608
10254TIP3   OH252252   0.924   2.091  11.903  0.2565  0.2641 -0.0229
10254TIP3    H152253   0.851   2.152  11.912 -1.6347 -1.5325 -1.9994
10254TIP3    H252254   0.919   2.035  11.981 -0.5964  0.0455 -0.2340
10255TIP3   OH252255   1.699   1.675   6.110  0.0153  0.0530 -0.1073
10255TIP3    H152256   1.787   1.684   6.148 -0.5606  1.4506  0.9923
10255TIP3    H252257   1.699   1.735   6.035  0.6395 -1.5074 -1.3900
10256TIP3   OH252258   1.244   3.719   5.895  0.4683 -0.5118 -0.4379
10256TIP3    H152259   1.169   3.762   5.855  0.0519 -0.5214  0.3227
10256TIP3    H252260   1.246   3.632   5.855 -0.0948 -0.6125 -0.2499
10257TIP3   OH252261   1.110   1.755  14.489 -0.2262 -0.4617 -0.1436
10257TIP3    H152262   1.070   1.820  14.547 -0.5632  1.0249 -1.9461
10257TIP3    H252263   1.061   1.674  14.506 -3.0089  0.8845 -1.0718
10258TIP3   OH252264   6.435   4.467  16.143  0.1909  0.0728  0.5696
10258TIP3    H152265   6.384   4.475  16.224  1.2520  1.3084  1.1719
10258TIP3    H252266   6.392   4.527  16.082 -1.0102 -1.3544 -0.0457
10259TIP3   OH252267   6.229   3.798  13.940  0.6013  0.3908 -0.4100
10259TIP3    H152268   6.187   3.772  13.858 -0.8772  0.7263  0.2036
10259TIP3    H252269   6.230   3.893  13.938  0.5828  0.4005 -0.0487
10260TIP3   OH252270   1.765   1.202  13.996 -0.0818 -0.1559  0.0316
10260TIP3    H152271   1.749   1.196  14.091  0.1907  0.4264  0.1174
10260TIP3    H252272   1.855   1.232  13.989 -0.2967  0.3968 -0.4125
10261TIP3   OH252273   4.880   0.304   0.586  0.0317  0.4392 -0.1694
10261TIP3    H152274   4.966   0.303   0.543  0.6805  0.6928  1.0955
10261TIP3    H252275   4.860   0.397   0.596 -0.4547  0.3837 -0.5442
10262TIP3   OH252276   1.305   5.888   2.427 -0.4457 -0.2481 -0.2483
10262TIP3    H152277   1.267   5.934   2.353  0.2247  0.4282 -0.1998
10262TIP3    H252278   1.314   5.956   2.494 -0.1655 -0.6345  0.1112
10263TIP3   OH252279   5.316   0.706   0.769 -0.0666 -0.3095  0.8002
10263TIP3    H152280   5.279   0.627   0.808  0.3737 -0.8484  0.1328
10263TIP3    H252281   5.245   0.771   0.775 -1.0567 -1.2596 -0.2420
10264TIP3   OH252282   4.560   4.083   4.203 -0.5388 -0.4551 -0.5050
10264TIP3    H152283   4.614   4.109   4.129  0.8045 -0.0230  0.5845
10264TIP3    H252284   4.481   4.137   4.195 -0.2880 -0.2055 -1.4526
10265TIP3   OH252285   4.909   6.293  13.990 -0.1047 -0.0114 -0.0673
10265TIP3    H152286   4.919   6.306  13.896  1.5500  0.5491  0.1435
10265TIP3    H252287   4.993   6.323  14.027 -0.0373 -1.8280  1.4158
10266TIP3   OH252288   4.531   4.288   3.554 -0.3006 -0.3132  0.7231
10266TIP3    H152289   4.458   4.292   3.493  1.3875 -0.8630 -1.4431
10266TIP3    H252290   4.593   4.354   3.523  0.1360  0.2063  2.5660
10267TIP3   OH252291   1.450   3.030   2.811  0.0836  0.1446 -0.3516
10267TIP3    H152292   1.499   3.081   2.874 -0.6102  0.4862 -0.0789
10267TIP3    H252293   1.458   3.079   2.729  0.0130  0.3153 -0.2565
10268TIP3   OH252294   3.409   4.187  11.173 -0.1315  0.3381  0.1830
10268TIP3    H152295   3.384   4.176  11.082  0.6485 -0.8270  0.0981
10268TIP3    H252296   3.357   4.122  11.221  0.0825  0.3649  0.4582
10269TIP3   OH252297   6.814   3.708  16.352 -0.0087  0.0833  0.1476
10269TIP3    H152298   6.814   3.669  16.265  1.4978 -0.4777  0.3830
10269TIP3    H252299   6.896   3.681  16.392 -0.0108  1.4989  1.2272
10270TIP3   OH252300   5.526   6.040  16.151  0.3493 -0.6448 -0.2170
10270TIP3    H152301   5.618   6.067  16.149  0.5380 -1.2318  0.2739
10270TIP3    H252302   5.481   6.106  16.099  0.9117  0.1799  0.3153
10271TIP3   OH252303   6.671   4.781   1.347  0.1931  0.8812  0.5389
10271TIP3    H152304   6.637   4.758   1.433  0.6131  0.6178  0.6388
10271TIP3    H252305   6.606   4.746   1.286 -0.3533  1.4992  0.7542
10272TIP3   OH252306   0.855   2.847   6.256  0.1517  0.1441 -0.3764
10272TIP3    H152307   0.805   2.923   6.288 -2.1284 -2.2300  2.2502
10272TIP3    H252308   0.928   2.839   6.318  0.3129  0.1084 -0.5706
10273TIP3   OH252309   6.236   3.135  11.993 -0.2162 -0.1159  0.3758
10273TIP3    H152310   6.310   3.148  12.052  0.6411  0.4100 -0.7693
10273TIP3    H252311   6.165   3.185  12.032  0.6089  1.0313  0.4597
10274TIP3   OH252312   0.882   5.505  13.813 -0.2376  0.1349  0.2706
10274TIP3    H152313   0.884   5.596  13.783 -0.1065 -0.4912 -1.8342
10274TIP3    H252314   0.974   5.483  13.831 -0.4347  0.8622  2.4508
10275TIP3   OH252315   0.307   4.692  11.660  0.3138  0.1991  0.1296
10275TIP3    H152316   0.325   4.754  11.731 -0.0268  0.1613  0.2503
10275TIP3    H252317   0.372   4.713  11.593  1.8616 -0.9560  1.1856
10276TIP3   OH252318   0.475   3.758   1.315 -0.9059 -0.3071 -0.1420
10276TIP3    H152319   0.449   3.835   1.366  0.2060 -0.0580  0.0907
10276TIP3    H252320   0.460   3.784   1.224  1.1382  0.9364 -0.2067
10277TIP3   OH252321   1.604   0.391   3.942 -0.1554 -0.0512 -0.3135
10277TIP3    H152322   1.626   0.484   3.938  1.0163 -0.3392 -1.2648
10277TIP3    H252323   1.689   0.347   3.943 -0.6721 -1.1624 -1.7174
10278TIP3   OH252324   6.536   3.701  13.812 -0.0418 -0.3315  0.2275
10278TIP3    H152325   6.459   3.654  13.843  0.7443 -1.7892  0.0670
10278TIP3    H252326   6.573   3.645  13.743 -0.7678  1.9787 -2.2134
10279TIP3   OH252327   2.701   4.306   5.163  0.0945 -0.5442 -0.2594
10279TIP3    H152328   2.615   4.345   5.175 -0.5896 -1.9577 -0.3540
10279TIP3    H252329   2.699   4.270   5.074  1.1531  0.2490 -0.6369
10280TIP3   OH252330   2.944   1.440  14.239  0.1848  0.6223 -0.5115
10280TIP3    H152331   2.995   1.456  14.318 -1.3703  1.0220  0.4433
10280TIP3    H252332   2.923   1.528  14.206  1.6435  0.4791 -1.9657
10281TIP3   OH252333   6.092   1.372  15.926  0.1742  0.8686 -0.7277
10281TIP3    H152334   6.077   1.371  16.021 -1.4493 -0.2345 -0.9516
10281TIP3    H252335   6.139   1.454  15.910 -3.0844  3.2068  0.5794
10282TIP3   OH252336   2.629   0.092   6.381  0.9315 -0.4816  0.0544
10282TIP3    H152337   2.556   0.041   6.416 -0.4164  1.1065 -0.3061
10282TIP3    H252338   2.588   0.172   6.347  2.6919 -0.1141 -1.3408
10283TIP3   OH252339   6.072   2.541   3.426  0.0609 -0.1707 -0.4805
10283TIP3    H152340   6.026   2.505   3.351 -1.0296  0.3826 -0.0860
10283TIP3    H252341   6.033   2.627   3.441 -0.0583 -0.4526  0.9910
10284TIP3   OH252342   6.365   1.380   2.059 -0.0592 -0.4742  0.6826
10284TIP3    H152343   6.336   1.315   2.123  1.3612  0.9359  2.9279
10284TIP3    H252344   6.294   1.443   2.054 -0.0378 -0.4128  1.1509
10285TIP3   OH252345   3.944   6.620  10.912  0.1676  0.2141 -0.1134
10285TIP3    H152346   3.987   6.698  10.946 -0.9191  0.8125 -0.0558
10285TIP3    H252347   3.977   6.610  10.823 -0.9452  1.7514 -0.7319
10286TIP3   OH252348   3.194   3.222  15.589  0.0770 -0.1822  0.0353
10286TIP3    H152349   3.118   3.179  15.628 -1.7572  1.8924 -1.0384
10286TIP3    H252350   3.254   3.236  15.662 -0.7410 -1.4243  1.0008
10287TIP3   OH252351   3.477   4.948   3.816  0.6405  0.5448  0.2086
10287TIP3    H152352   3.532   4.940   3.738  0.2983  2.0900 -0.2197
10287TIP3    H252353   3.497   4.870   3.867  1.0118 -0.4100 -1.3311
10288TIP3   OH252354   4.557   2.642   3.910  0.0573 -0.0974  0.3938
10288TIP3    H152355   4.537   2.551   3.892  1.1621 -0.1011 -1.0247
10288TIP3    H252356   4.554   2.685   3.824 -0.5374  1.2214  1.0476
10289TIP3   OH252357   5.759   3.920   0.493 -0.1354 -0.2765 -0.3172
10289TIP3    H152358   5.762   3.885   0.583 -0.6786  1.0124  0.2253
10289TIP3    H252359   5.798   3.851   0.440 -0.1928 -1.2541  0.8527
10290TIP3   OH252360   1.595   3.070   3.543  0.0162  0.0392 -0.6269
10290TIP3    H152361   1.547   3.044   3.622 -0.5687  0.9384 -0.6708
10290TIP3    H252362   1.630   2.988   3.508  1.9764 -0.2046  1.6206
10291TIP3   OH252363   2.682   1.259   4.255 -0.3053 -0.2402  0.4177
10291TIP3    H152364   2.755   1.203   4.282 -0.2563 -0.8259 -0.8409
10291TIP3    H252365   2.723   1.329   4.205 -0.3463  1.0958  2.1620
10292TIP3   OH252366   1.217   5.608  15.519 -0.2247 -0.1791  0.2871
10292TIP3    H152367   1.171   5.682  15.559 -0.1567 -0.2791  0.5509
10292TIP3    H252368   1.212   5.625  15.425 -4.4681 -2.2933 -0.0794
10293TIP3   OH252369   0.753   5.475  15.842 -0.3366 -0.3815  0.3721
10293TIP3    H152370   0.768   5.544  15.777 -0.9268 -0.3496  0.2650
10293TIP3    H252371   0.817   5.407  15.820 -0.2434 -0.1852  0.0310
10294TIP3   OH252372   1.497   1.494   6.180  0.3596  0.1456  0.1580
10294TIP3    H152373   1.553   1.571   6.178  1.0400 -0.3351  0.2509
10294TIP3    H252374   1.415   1.524   6.220  0.4550  0.9099 -0.2011
10295TIP3   OH252375   3.351   2.383  15.250  0.7015  0.3194 -0.1833
10295TIP3    H152376   3.384   2.344  15.169  0.3930  0.8533 -0.5817
10295TIP3    H252377   3.424   2.380  15.311  1.0101  0.1143 -0.5599
10296TIP3   OH252378   5.009   1.208   4.748  0.7788  0.8986 -0.3518
10296TIP3    H152379   5.073   1.206   4.819  0.7160  2.4672 -0.2319
10296TIP3    H252380   4.924   1.204   4.792  0.7086  2.9564 -0.2361
10297TIP3   OH252381   2.773   6.781  15.448  0.2348  0.0241 -0.5059
10297TIP3    H152382   2.757   6.871  15.421  0.7294  1.3012  2.9254
10297TIP3    H252383   2.863   6.782  15.482 -0.0044 -1.5680  0.2789
10298TIP3   OH252384   3.904   0.925   4.806  0.0729 -0.3155  0.4797
10298TIP3    H152385   3.872   1.008   4.769  1.0162 -0.0824  0.1641
10298TIP3    H252386   3.943   0.950   4.890 -0.6476 -0.6136  0.9100
10299TIP3   OH252387   4.426   1.338   2.285  0.3240  0.2598  0.5868
10299TIP3    H152388   4.508   1.368   2.324 -0.2521  1.6676  0.7861
10299TIP3    H252389   4.442   1.246   2.264  2.0004  0.5390  0.4666
10300TIP3   OH252390   5.614   3.392   4.652  0.4800  0.1545 -0.3973
10300TIP3    H152391   5.645   3.482   4.664 -0.1059  0.3994 -0.7429
10300TIP3    H252392   5.613   3.356   4.741  0.3515  0.6038 -0.2139
10301TIP3   OH252393   2.578   4.710  12.877 -0.0305  0.0008 -0.8801
10301TIP3    H152394   2.488   4.719  12.907  0.8266  0.3547  1.8244
10301TIP3    H252395   2.578   4.630  12.825 -1.4474 -1.3996  1.1305
10302TIP3   OH252396   6.026   6.348   0.228 -0.0340  0.5414 -0.1575
10302TIP3    H152397   6.007   6.307   0.144  2.6427 -0.8903 -0.1732
10302TIP3    H252398   5.990   6.288   0.293  0.1494  0.3231 -0.2556
10303TIP3   OH252399   4.575   0.004  14.313  0.2497 -0.4360 -0.1058
10303TIP3    H152400   4.637  -0.042  14.369  0.9638 -0.1577 -0.6466
10303TIP3    H252401   4.540   0.074  14.368  1.1248 -0.0173 -0.0588
10304TIP3   OH252402   4.322   5.554  16.980 -0.4603  0.6483  0.6172
10304TIP3    H152403   4.387   5.616  17.013  0.1367  0.4941 -0.2417
10304TIP3    H252404   4.352   5.532  16.892 -0.7807 -0.6818  0.8137
10305TIP3   OH252405   0.288   5.719   4.714 -0.0904 -0.5269 -0.1676
10305TIP3    H152406   0.359   5.774   4.681 -0.3538 -0.1396 -0.0999
10305TIP3    H252407   0.273   5.654   4.646 -0.1628 -0.1566 -0.5101
10306TIP3   OH252408   0.194   1.306   5.218 -0.0888 -0.5929 -0.3294
10306TIP3    H152409   0.169   1.379   5.274  0.1405 -0.0053 -0.9769
10306TIP3    H252410   0.113   1.280   5.175 -0.2505 -0.9952  0.2030
10307TIP3   OH252411   5.499   1.481  13.102 -0.2477 -0.0679 -0.0425
10307TIP3    H152412   5.415   1.437  13.104 -0.2380 -0.0741  1.0781
10307TIP3    H252413   5.552   1.436  13.168  0.4491  0.2892 -0.3396
10308TIP3   OH252414   1.440   6.423   0.787 -0.5402  0.2903  0.9860
10308TIP3    H152415   1.368   6.412   0.850 -0.5213  0.0566  0.9670
10308TIP3    H252416   1.503   6.479   0.832 -0.2604 -0.3526  1.3933
10309TIP3   OH252417   6.716   6.613   2.095 -0.1175  0.3932  0.0253
10309TIP3    H152418   6.660   6.651   2.163  0.0473 -1.3791  1.2104
10309TIP3    H252419   6.687   6.522   2.088  1.9614 -0.3022 -0.0411
10310TIP3   OH252420   4.135   5.714   5.448  0.1110  0.2216  0.1639
10310TIP3    H152421   4.151   5.759   5.531 -1.2015 -0.2275  0.6840
10310TIP3    H252422   4.213   5.659   5.436  0.2508  0.1724  1.1825
10311TIP3   OH252423   4.707   3.688  14.744 -0.1353  0.4039  0.9953
10311TIP3    H152424   4.802   3.680  14.744 -0.0192  1.5532  1.9514
10311TIP3    H252425   4.691   3.782  14.738 -1.1710  0.4004  3.0975
10312TIP3   OH252426   3.667   5.974  13.992 -0.7640 -0.3033 -0.0917
10312TIP3    H152427   3.615   6.053  14.007 -0.8038 -0.1686 -0.8874
10312TIP3    H252428   3.671   5.966  13.897  0.3159 -0.5538 -0.0406
10313TIP3   OH252429   2.260   0.865   3.821  0.1296 -0.1614  0.5336
10313TIP3    H152430   2.256   0.771   3.839 -2.4978 -0.1743  0.3309
10313TIP3    H252431   2.310   0.872   3.739  1.1495 -1.2666  1.0404
10314TIP3   OH252432   2.895   3.893   4.162  0.0494 -0.2232  0.2284
10314TIP3    H152433   2.874   3.838   4.086  0.2474  1.1109 -0.8278
10314TIP3    H252434   2.973   3.942   4.135  2.1056 -1.9785  2.4889
10315TIP3   OH252435   0.286   0.052   5.528  0.1783 -0.2259  0.3693
10315TIP3    H152436   0.281   0.065   5.434 -0.5565 -0.0590  0.4243
10315TIP3    H252437   0.334   0.128   5.561 -0.1206  0.0371  0.1979
10316TIP3   OH252438   6.538   5.190   2.926 -0.4707 -0.1382 -0.3576
10316TIP3    H152439   6.454   5.224   2.957 -0.2566 -1.8663  2.4148
10316TIP3    H252440   6.520   5.099   2.902  0.0928  0.2386 -2.4112
10317TIP3   OH252441   3.727   1.046  17.100  0.0992 -0.6784  0.0353
10317TIP3    H152442   3.740   1.138  17.124 -0.5526 -0.0604 -1.8591
10317TIP3    H252443   3.814   1.016  17.073  0.2937 -0.6065  0.5651
10318TIP3   OH252444   3.661   2.985  14.502 -0.1072  0.0892  0.3321
10318TIP3    H152445   3.594   2.994  14.434  0.8749  2.3003 -0.4506
10318TIP3    H252446   3.743   2.975  14.454  0.3079 -1.3680  1.2649
10319TIP3   OH252447   5.160   0.764   3.587  0.1243 -0.4805  0.5782
10319TIP3    H152448   5.165   0.690   3.648  0.3324  0.3238  1.5571
10319TIP3    H252449   5.081   0.811   3.611 -0.7641 -1.1123 -0.9345
10320TIP3   OH252450   6.757   2.396   6.203  0.0206  0.2002 -0.2797
10320TIP3    H152451   6.773   2.360   6.116  1.2910 -0.5659  0.2533
10320TIP3    H252452   6.755   2.320   6.261  0.1203  0.7717  0.4908
10321TIP3   OH252453   1.131   0.743   1.669 -0.6018 -0.2503 -0.2705
10321TIP3    H152454   1.047   0.732   1.626  0.0680 -0.2978 -1.6144
10321TIP3    H252455   1.189   0.678   1.628  0.0612 -0.3373  0.7404
10322TIP3   OH252456   1.145   3.516  12.539  0.2561  0.0958 -0.4070
10322TIP3    H152457   1.212   3.494  12.475 -0.3934  0.1366 -1.1119
10322TIP3    H252458   1.062   3.499  12.495 -0.2412  1.7531 -0.1874
10323TIP3   OH252459   4.192   3.274  12.096 -0.2216 -0.4270  0.3372
10323TIP3    H152460   4.173   3.308  12.183  0.9670  1.8246 -0.2172
10323TIP3    H252461   4.272   3.222  12.107  0.3263  0.4356  0.4775
10324TIP3   OH252462   5.206   5.327   5.450  0.8276  0.2096  0.0571
10324TIP3    H152463   5.258   5.407   5.453  1.5930 -0.2652 -0.1884
10324TIP3    H252464   5.151   5.336   5.372  0.4686  0.7549  0.3686
10325TIP3   OH252465   0.364   0.151   0.152 -0.0559 -0.0995  0.2223
10325TIP3    H152466   0.452   0.169   0.184  0.7978 -0.2104 -1.9148
10325TIP3    H252467   0.309   0.216   0.194  1.2377  0.7114  0.7081
10326TIP3   OH252468   5.309   4.080  17.048  0.3996  0.6741  0.2651
10326TIP3    H152469   5.232   4.108  17.097 -0.0173  1.6527 -0.8950
10326TIP3    H252470   5.320   4.147  16.980  1.5752 -0.0739 -0.3175
10327TIP3   OH252471   0.382   0.864  11.850  0.0159 -0.3824 -0.4797
10327TIP3    H152472   0.291   0.845  11.825 -0.9152  2.3822  0.4804
10327TIP3    H252473   0.404   0.943  11.801  0.9790  0.4564  1.2267
10328TIP3   OH252474   4.862   2.427  11.301  0.0893 -0.1210 -0.2022
10328TIP3    H152475   4.942   2.414  11.353 -0.3292 -0.0753  0.4569
10328TIP3    H252476   4.793   2.385  11.352 -0.7562  1.9829  0.4701
10329TIP3   OH252477   3.200   5.875  15.330 -0.2270 -0.1083  0.5139
10329TIP3    H152478   3.223   5.782  15.323 -0.1787 -0.0032 -1.0313
10329TIP3    H252479   3.104   5.876  15.327 -0.2215 -0.0953  0.3450
10330TIP3   OH252480   2.938   2.971   0.797 -0.1503 -0.3005  0.7017
10330TIP3    H152481   2.869   2.985   0.732  1.0917  0.4706 -0.4999
10330TIP3    H252482   2.897   2.990   0.881 -1.8176 -1.3893  0.1846
10331TIP3   OH252483   2.540   5.340   1.178 -0.0857  0.2311  0.1394
10331TIP3    H152484   2.536   5.374   1.088  1.7485  0.0392 -0.0568
10331TIP3    H252485   2.621   5.289   1.181  0.6927  1.4583  2.3168
10332TIP3   OH252486   6.457   4.745  12.646 -0.2944  0.1206 -0.3319
10332TIP3    H152487   6.525   4.703  12.594 -1.0928 -0.6869 -0.7528
10332TIP3    H252488   6.402   4.791  12.582  0.1291  1.2007  0.0505
10333TIP3   OH252489   3.726   2.941   2.859  0.0985  0.5117  0.2366
10333TIP3    H152490   3.800   2.900   2.904 -0.0070 -1.1430 -1.0284
10333TIP3    H252491   3.765   3.015   2.813  0.9004 -0.0911 -0.0840
10334TIP3   OH252492   3.015   2.176   2.654 -0.5405 -0.0956  0.2488
10334TIP3    H152493   3.061   2.225   2.722 -2.1561  1.6794  0.1332
10334TIP3    H252494   2.985   2.097   2.698  0.5749 -0.1784  0.9185
10335TIP3   OH252495   5.556   5.115   2.063 -0.0612 -0.0049 -0.4408
10335TIP3    H152496   5.559   5.058   1.987 -0.0547  1.0225 -1.2243
10335TIP3    H252497   5.597   5.064   2.133  1.1696 -0.4571 -1.4564
10336TIP3   OH252498   5.579   6.389  12.408 -0.5745 -0.3634  0.3031
10336TIP3    H152499   5.579   6.484  12.402  0.6857 -0.2698  1.3530
10336TIP3    H252500   5.513   6.369  12.475  0.2489 -0.0988  1.2296
10337TIP3   OH252501   5.943   2.620  16.166  0.9910  0.1603 -0.3042
10337TIP3    H152502   5.999   2.552  16.203  2.1470  0.4562 -1.4229
10337TIP3    H252503   5.860   2.577  16.150  1.3166 -0.6567  0.1658
10338TIP3   OH252504   4.720   4.851   0.892 -0.1811 -0.4107 -0.0829
10338TIP3    H152505   4.748   4.770   0.849  2.1810  1.4969 -2.4675
10338TIP3    H252506   4.773   4.855   0.971  1.8013  0.0945 -1.3824
10339TIP3   OH252507   3.332   0.791  14.602 -0.7867  0.2503 -0.2920
10339TIP3    H152508   3.401   0.740  14.560  0.5885  1.1235  0.8341
10339TIP3    H252509   3.303   0.853  14.535 -0.4702 -0.1178 -0.7720
10340TIP3   OH252510   6.273   0.645   3.563 -0.0799  0.1021 -0.4906
10340TIP3    H152511   6.289   0.702   3.488  0.8071 -2.0110 -2.0105
10340TIP3    H252512   6.205   0.585   3.533  0.3632 -0.8370  0.3609
10341TIP3   OH252513   5.978   6.275  13.529  0.0164  0.1312 -0.1018
10341TIP3    H152514   5.886   6.269  13.556  0.0928 -0.2387  0.0686
10341TIP3    H252515   6.028   6.254  13.607  0.2361 -1.0851 -0.5459
10342TIP3   OH252516   3.895   5.335  13.502  0.0522 -0.0968 -0.0051
10342TIP3    H152517   3.899   5.242  13.526  0.8587 -0.4197 -1.2948
10342TIP3    H252518   3.986   5.363  13.497 -0.1809  1.0855  1.3940
10343TIP3   OH252519   4.140   3.008   4.603  0.3790 -0.6722 -0.0375
10343TIP3    H152520   4.088   3.088   4.601 -0.9774 -1.5052  0.7693
10343TIP3    H252521   4.223   3.033   4.562 -0.6979  0.6280 -1.5419
10344TIP3   OH252522   5.926   0.797   5.047 -0.4757  0.2992  0.1535
10344TIP3    H152523   5.841   0.816   5.010 -0.5143  0.9783  0.5779
10344TIP3    H252524   5.950   0.712   5.010 -1.2678  0.1704 -0.0766
10345TIP3   OH252525   0.419   4.015   3.098 -0.2784 -0.1798  0.9442
10345TIP3    H152526   0.476   3.951   3.141  2.7203  0.3844 -1.8480
10345TIP3    H252527   0.462   4.099   3.113 -0.9202  0.4186 -0.4091
10346TIP3   OH252528   2.559   5.533  13.693  0.3913  0.4738 -0.5194
10346TIP3    H152529   2.653   5.544  13.703  0.4367  1.6867 -1.8897
10346TIP3    H252530   2.522   5.616  13.725 -0.4445 -0.8161  2.1750
10347TIP3   OH252531   4.795   0.386  10.928 -0.6580  0.4780 -0.0088
10347TIP3    H152532   4.741   0.351  10.857  0.9446  0.5378 -1.3434
10347TIP3    H252533   4.871   0.328  10.931 -1.0818 -0.0394  2.3019
10348TIP3   OH252534   3.980   1.926   1.321  0.6207 -0.1416 -0.2078
10348TIP3    H152535   3.949   1.992   1.259  0.5474 -0.4870 -0.5424
10348TIP3    H252536   3.936   1.948   1.403  0.3776  0.0554 -0.3875
10349TIP3   OH252537   1.379   1.009   5.273 -0.0458  0.9064 -0.0652
10349TIP3    H152538   1.314   1.049   5.216  1.1811  0.6479 -1.7205
10349TIP3    H252539   1.428   1.083   5.309  0.3360  1.0320 -0.8134
10350TIP3   OH252540   3.567   4.944   2.255 -0.1954  0.2983 -0.0975
10350TIP3    H152541   3.509   4.955   2.180  1.0826 -0.6005 -1.2556
10350TIP3    H252542   3.515   4.894   2.318 -0.3405 -1.4454 -1.5385
10351TIP3   OH252543   4.713   1.567  10.646  0.4082  0.2776  0.0552
10351TIP3    H152544   4.732   1.660  10.658 -0.7349  0.7884 -1.7201
10351TIP3    H252545   4.717   1.553  10.551 -1.9846 -0.8656  0.0411
10352TIP3   OH252546   5.726   2.638   1.103  0.7539  0.0953  0.0163
10352TIP3    H152547   5.770   2.553   1.098 -1.3631 -1.0580 -0.2129
10352TIP3    H252548   5.662   2.628   1.174  1.5749  2.0918  1.1164
10353TIP3   OH252549   0.286   3.167   3.191  0.2806  0.3915  0.3228
10353TIP3    H152550   0.292   3.219   3.272 -0.5108 -0.8195  1.1993
10353TIP3    H252551   0.193   3.171   3.167  0.4228  0.3245 -0.2504
10354TIP3   OH252552   4.752   6.681   0.135 -0.1172 -0.6715 -0.3687
10354TIP3    H152553   4.831   6.628   0.150 -0.2839 -0.4067  1.6898
10354TIP3    H252554   4.783   6.771   0.137 -0.4336 -0.5685  0.3890
10355TIP3   OH252555   6.542   5.767  14.646 -0.0914  0.6957 -0.2693
10355TIP3    H152556   6.619   5.754  14.590  1.6793  3.2226  1.3746
10355TIP3    H252557   6.477   5.707  14.611  2.6208 -1.6358 -1.7236
10356TIP3   OH252558   2.581   4.934  16.100  0.0705  0.3928 -0.4504
10356TIP3    H152559   2.531   5.015  16.095 -1.4071 -0.5302 -1.2794
10356TIP3    H252560   2.568   4.903  16.190  0.6698  1.0657 -0.1219
10357TIP3   OH252561   5.549   1.866  10.834  0.3760 -0.0978  0.3397
10357TIP3    H152562   5.556   1.961  10.836  0.5102 -0.1058  0.2662
10357TIP3    H252563   5.461   1.847  10.867  1.1510 -0.0604  2.5987
10358TIP3   OH252564   0.948   6.482  13.439 -0.3700 -0.6113 -0.3172
10358TIP3    H152565   0.974   6.394  13.467 -0.1029 -0.9483 -1.5716
10358TIP3    H252566   0.917   6.524  13.519  1.7813 -1.0026  0.7939
10359TIP3   OH252567   4.801   5.865   3.083 -0.4443 -0.1336 -0.2094
10359TIP3    H152568   4.810   5.778   3.122  0.0808  0.1773  0.3781
10359TIP3    H252569   4.869   5.917   3.125  0.8372 -0.0278 -2.2688
10360TIP3   OH252570   1.081   6.768  14.513 -0.1324 -0.1852 -0.9319
10360TIP3    H152571   1.169   6.762  14.476  1.0110  1.9212  1.1508
10360TIP3    H252572   1.055   6.859  14.496 -0.9364 -0.1378  0.4388
10361TIP3   OH252573   3.614   0.502  12.197 -0.3380 -0.8193  0.1621
10361TIP3    H152574   3.547   0.435  12.184  0.1088 -0.9620 -1.7293
10361TIP3    H252575   3.641   0.491  12.288 -3.3544 -0.2630  1.2437
10362TIP3   OH252576   3.821   0.581  11.268  0.4638  0.0018  0.1390
10362TIP3    H152577   3.890   0.622  11.320 -0.1540 -0.7813  1.6467
10362TIP3    H252578   3.866   0.519  11.211  1.3420  2.2160 -1.6835
10363TIP3   OH252579   3.467   3.633  12.812 -0.9407 -0.0605  0.3670
10363TIP3    H152580   3.454   3.699  12.744 -1.2890 -1.3192 -0.8453
10363TIP3    H252581   3.398   3.651  12.876 -0.9351  0.8318  0.1378
10364TIP3   OH252582   6.308   5.021   4.070  0.2281 -0.1754  0.0716
10364TIP3    H152583   6.387   4.993   4.116  0.1049 -0.8207 -0.1073
10364TIP3    H252584   6.324   4.996   3.979 -0.4366 -0.8612  0.1383
10365TIP3   OH252585   4.712   5.095   3.739 -1.3525 -0.1938  0.0011
10365TIP3    H152586   4.631   5.086   3.690 -1.5384  1.1847  0.0044
10365TIP3    H252587   4.724   5.190   3.748 -0.2055 -0.3884  0.7610
10366TIP3   OH252588   0.841   5.652  12.162  0.9398 -0.0536  0.1887
10366TIP3    H152589   0.906   5.583  12.151 -0.0269 -1.0276  0.4500
10366TIP3    H252590   0.768   5.625  12.107  0.5783  0.8237  0.2202
10367TIP3   OH252591   4.588   3.309   3.803  0.0896 -0.8040 -0.0216
10367TIP3    H152592   4.560   3.395   3.771  0.6319 -0.1431  1.2300
10367TIP3    H252593   4.604   3.258   3.723 -1.0545 -0.0351 -0.7795
10368TIP3   OH252594   0.003   6.531  11.778  0.5109  0.4352 -0.1467
10368TIP3    H152595  -0.016   6.495  11.865  1.9397  0.0629  0.0330
10368TIP3    H252596   0.023   6.454  11.724  0.4469  0.7321 -0.5965
10369TIP3   OH252597   4.323   1.306   3.458  0.3359  0.5679  0.4618
10369TIP3    H152598   4.394   1.335   3.402 -0.2765  2.3195  0.5337
10369TIP3    H252599   4.267   1.383   3.468 -0.6247 -0.2600  1.8534
10370TIP3   OH252600   5.693   2.655   2.328 -0.3532 -0.4890  0.2821
10370TIP3    H152601   5.722   2.585   2.387  1.2487 -0.1483 -0.0561
10370TIP3    H252602   5.623   2.700   2.376  1.1054 -0.0296  2.0715
10371TIP3   OH252603   2.357   4.539   1.463  0.5301  0.1710 -0.3628
10371TIP3    H152604   2.305   4.530   1.543 -0.4004  0.4827 -0.9149
10371TIP3    H252605   2.295   4.570   1.397  1.4013  0.4599 -1.0741
10372TIP3   OH252606   4.246   1.573  16.180 -0.8016  0.1765 -0.4158
10372TIP3    H152607   4.273   1.601  16.267 -0.7380 -0.8851 -0.0712
10372TIP3    H252608   4.320   1.593  16.124  0.8181 -2.6350  0.4977
10373TIP3   OH252609   2.524   3.728  11.547  0.0715  0.0835  0.2494
10373TIP3    H152610   2.447   3.786  11.552  0.5104  0.7491 -0.4895
10373TIP3    H252611   2.598   3.785  11.568  0.3693 -0.5777  1.0562
10374TIP3   OH252612   6.429   3.634   5.932  0.1585  0.0376  0.8302
10374TIP3    H152613   6.433   3.539   5.929  1.0319  0.0679  0.9548
10374TIP3    H252614   6.447   3.656   6.024 -0.8340  0.2902  0.9740
10375TIP3   OH252615   2.790   1.930  11.865 -0.5213  0.0445  0.3298
10375TIP3    H152616   2.759   1.914  11.776  1.4934  0.8055 -0.5518
10375TIP3    H252617   2.764   2.021  11.883 -0.0411  0.2233  0.1263
10376TIP3   OH252618   5.536   5.360   1.279 -0.2057  0.4838  0.0316
10376TIP3    H152619   5.615   5.380   1.330 -0.7224 -0.0888  1.1010
10376TIP3    H252620   5.506   5.276   1.314 -0.8185  0.2757 -0.9588
10377TIP3   OH252621   6.032   1.430  14.611  0.5473  0.2423  0.1776
10377TIP3    H152622   5.954   1.466  14.570  0.9131  1.3596  0.4487
10377TIP3    H252623   6.000   1.386  14.690  0.1871  0.6512  0.2592
10378TIP3   OH252624   1.209   4.178  14.977 -0.0835  0.5204  0.1059
10378TIP3    H152625   1.232   4.106  14.918 -0.5014 -0.1180  0.6980
10378TIP3    H252626   1.281   4.181  15.040 -0.5090 -0.0063  0.6329
10379TIP3   OH252627   2.714   5.159   4.913 -0.9171  0.0250  0.3532
10379TIP3    H152628   2.686   5.070   4.892 -1.6611  0.3468 -0.0660
10379TIP3    H252629   2.804   5.165   4.881  0.4971 -1.6819  3.5046
10380TIP3   OH252630   1.571   1.057   5.871 -0.5814 -0.1778  0.2613
10380TIP3    H152631   1.582   1.008   5.952  0.1568 -0.2478  0.1226
10380TIP3    H252632   1.571   1.149   5.899  1.5703 -0.1038  0.1711
10381TIP3   OH252633   1.694   5.374  12.000  0.6474  0.2548  0.0739
10381TIP3    H152634   1.743   5.457  11.995  0.8985  0.0453 -1.5299
10381TIP3    H252635   1.628   5.389  12.067  0.6124  1.8056 -0.2744
10382TIP3   OH252636   2.927   4.896   0.778 -0.5141 -0.0507  0.3442
10382TIP3    H152637   2.895   4.955   0.709 -0.0821 -0.9777 -0.6784
10382TIP3    H252638   2.946   4.954   0.852 -0.5870  1.0332 -0.4573
10383TIP3   OH252639   3.374   4.799   3.213 -0.7016  0.1160  0.1112
10383TIP3    H152640   3.295   4.818   3.162 -0.2334 -0.9786 -1.0690
10383TIP3    H252641   3.446   4.821   3.154 -0.1078  0.5455  0.9683
10384TIP3   OH252642   6.062   0.876   5.292 -0.5614 -0.0600 -0.0636
10384TIP3    H152643   6.064   0.781   5.292  1.4102 -0.0770 -1.3752
10384TIP3    H252644   6.025   0.900   5.207  1.3057  0.2682 -0.8429
10385TIP3   OH252645   4.260   4.664  14.443  0.6579 -0.1891 -0.3794
10385TIP3    H152646   4.266   4.759  14.437  1.6247 -0.1446  0.8606
10385TIP3    H252647   4.182   4.649  14.497  1.4699 -0.0127  0.8875
10386TIP3   OH252648   0.493   3.910  11.426 -0.0151  0.1431 -0.5413
10386TIP3    H152649   0.423   3.850  11.454  1.3443 -2.1555 -1.8388
10386TIP3    H252650   0.463   3.943  11.342  0.4166 -0.8346 -1.0931
10387TIP3   OH252651   1.244   5.142   0.407  0.4701  0.6284 -0.6130
10387TIP3    H152652   1.222   5.205   0.339 -2.5482 -1.0574 -1.3764
10387TIP3    H252653   1.164   5.133   0.459  0.9608 -2.0666 -0.1863
10388TIP3   OH252654   2.359   5.582   0.511 -0.2077 -0.2021  0.3796
10388TIP3    H152655   2.432   5.585   0.449 -0.2908  0.5658  0.3083
10388TIP3    H252656   2.285   5.549   0.459 -0.0944 -0.2680  0.2612
10389TIP3   OH252657   0.493   5.994   5.367  0.1100 -0.2618  0.0073
10389TIP3    H152658   0.574   5.969   5.321  0.5071  0.1643  0.4689
10389TIP3    H252659   0.477   6.084   5.339  0.7530  0.2647  1.2267
10390TIP3   OH252660   6.722   4.790   0.258  0.3007  0.5355 -0.1982
10390TIP3    H152661   6.797   4.761   0.205  0.3508  0.6437 -0.1856
10390TIP3    H252662   6.725   4.885   0.254  0.1719  0.5398 -0.1849
10391TIP3   OH252663   6.555   4.393   2.323  0.2254 -0.0236  0.6332
10391TIP3    H152664   6.491   4.404   2.393 -2.0030 -1.1917 -1.0702
10391TIP3    H252665   6.578   4.482   2.297 -1.0275  0.4453  1.0623
10392TIP3   OH252666   6.295   4.369  12.885  0.4371 -0.3703 -0.0026
10392TIP3    H152667   6.246   4.412  12.816 -1.1652  1.0146  1.8883
10392TIP3    H252668   6.376   4.421  12.893  0.8568 -0.8266 -1.0986
10393TIP3   OH252669   4.500   5.496   5.701 -0.2650  0.0321 -0.0348
10393TIP3    H152670   4.590   5.526   5.686 -0.5833  0.9297 -0.2017
10393TIP3    H252671   4.509   5.402   5.717  0.8021  0.2681  0.8973
10394TIP3   OH252672   4.110   6.505  15.921 -0.2057 -0.1627  0.0299
10394TIP3    H152673   4.047   6.564  15.962  0.9763  1.0674  0.1350
10394TIP3    H252674   4.098   6.422  15.967 -0.4839  0.5555  1.3030
10395TIP3   OH252675   6.420   2.278  11.988  0.5164 -0.1829  0.5570
10395TIP3    H152676   6.354   2.342  12.015  0.1276 -0.1860 -0.3454
10395TIP3    H252677   6.486   2.280  12.058  0.0396  0.5095  1.0006
10396TIP3   OH252678   5.380   5.228  16.927  0.0534 -0.0763 -0.7254
10396TIP3    H152679   5.413   5.302  16.876 -1.8866 -0.0728 -2.0899
10396TIP3    H252680   5.314   5.266  16.985  1.4499 -0.2642  1.0841
10397TIP3   OH252681   1.228   1.021   2.491  0.0358 -0.5239  0.7041
10397TIP3    H152682   1.133   1.031   2.498  0.1723  1.2241  0.4751
10397TIP3    H252683   1.263   1.066   2.568  0.7721  1.9869 -0.9788
10398TIP3   OH252684   2.815   2.159  12.939  0.5789  0.2836  0.2809
10398TIP3    H152685   2.862   2.136  12.859  2.7308  1.4810  1.1201
10398TIP3    H252686   2.800   2.253  12.932 -1.0763  0.0537  0.3920
10399TIP3   OH252687   6.608   2.236   1.452  0.3305 -0.0147  0.2070
10399TIP3    H152688   6.675   2.290   1.410  0.4932  0.3491  0.9204
10399TIP3    H252689   6.538   2.229   1.387  0.6448  0.4015 -0.1800
10400TIP3   OH252690   6.270   3.123  14.959  0.5298  0.0194  0.3627
10400TIP3    H152691   6.296   3.207  14.997  1.1029 -0.8550  1.9760
10400TIP3    H252692   6.342   3.101  14.899  0.9142  0.1662  0.7612
10401TIP3   OH252693   5.590   1.381  16.659  0.1134  0.1973  0.1631
10401TIP3    H152694   5.507   1.401  16.617 -0.5419 -0.0910  1.2717
10401TIP3    H252695   5.648   1.454  16.636 -1.0800  1.4768  1.0582
10402TIP3   OH252696   3.482   1.568   0.285  0.0708  0.2462 -0.2201
10402TIP3    H152697   3.483   1.532   0.196 -0.1124  0.0998 -0.1621
10402TIP3    H252698   3.470   1.492   0.342 -1.3103  0.4984 -0.1475
10403TIP3   OH252699   5.638   2.570  11.931 -0.0834 -0.1696  0.2451
10403TIP3    H152700   5.646   2.625  11.854  0.2677  0.6321  0.8459
10403TIP3    H252701   5.545   2.571  11.952 -0.0187  0.5388  0.5018
10404TIP3   OH252702   6.661   5.300  16.754 -0.0664  0.5059  0.1904
10404TIP3    H152703   6.595   5.231  16.753  0.5987 -0.1795 -1.6371
10404TIP3    H252704   6.692   5.302  16.845 -2.3504  0.6534  1.0238
10405TIP3   OH252705   6.076   3.701   4.803  0.3970 -0.0418  0.2502
10405TIP3    H152706   6.163   3.711   4.843  0.2049  0.7510  0.4825
10405TIP3    H252707   6.090   3.721   4.710  0.0382  2.5360  0.6836
10406TIP3   OH252708   2.069   5.771  11.580 -0.0514 -0.4369  0.3264
10406TIP3    H152709   2.019   5.754  11.500  0.6589 -0.6774 -0.0711
10406TIP3    H252710   2.012   5.829  11.632  0.1522  1.0938 -1.0732
10407TIP3   OH252711   6.301   5.771  13.363 -0.1998 -0.2598  0.1119
10407TIP3    H152712   6.369   5.835  13.340  0.4512 -0.8262  0.4475
10407TIP3    H252713   6.346   5.687  13.363 -1.2714 -0.8819 -1.3650
10408TIP3   OH252714   2.484   3.252  16.825 -0.2381  0.4774  0.1080
10408TIP3    H152715   2.553   3.252  16.892  1.8311  0.1780 -1.8776
10408TIP3    H252716   2.453   3.161  16.823  0.0053  0.3868  0.3805
10409TIP3   OH252717   1.492   0.858   3.082  0.0582 -0.1465  0.4365
10409TIP3    H152718   1.563   0.800   3.108  1.1670  0.6653 -0.6582
10409TIP3    H252719   1.536   0.936   3.047 -1.3586  0.3001 -0.4311
10410TIP3   OH252720   5.007   0.090  11.736 -0.1985 -0.2288  0.2396
10410TIP3    H152721   4.936   0.135  11.690 -0.4510 -0.0903  0.7565
10410TIP3    H252722   5.087   0.121  11.694 -0.2591  1.9115  1.5689
10411TIP3   OH252723   2.492   4.763  15.303  0.1194 -0.0185  0.0930
10411TIP3    H152724   2.553   4.703  15.260  1.5260  0.5504  1.1917
10411TIP3    H252725   2.526   4.772  15.392 -2.1884 -0.4641  1.0861
10412TIP3   OH252726   6.578   0.416   6.292 -0.0279  0.0334 -0.4910
10412TIP3    H152727   6.532   0.372   6.364 -0.6460 -1.6662 -1.8335
10412TIP3    H252728   6.543   0.505   6.292 -2.2833 -0.7854 -0.5220
10413TIP3   OH252729   4.410   4.399   0.126  0.0812  0.1683  0.4567
10413TIP3    H152730   4.424   4.481   0.173 -1.3391  0.3504  0.5960
10413TIP3    H252731   4.315   4.392   0.117  0.2144 -1.1017 -0.1984
10414TIP3   OH252732   6.743   0.941   5.575 -0.0560  0.0902  0.2796
10414TIP3    H152733   6.807   0.950   5.646 -0.3949 -1.5214  0.8387
10414TIP3    H252734   6.766   0.858   5.534 -2.6729 -1.3359  1.4675
10415TIP3   OH252735   2.943   2.727   5.593 -0.3470 -0.8027 -0.1830
10415TIP3    H152736   2.863   2.675   5.593 -0.8513 -0.0770 -1.0191
10415TIP3    H252737   2.967   2.736   5.685 -1.6740 -0.3921  0.1489
10416TIP3   OH252738   1.262   3.644  15.217 -0.1883 -0.4733  0.0314
10416TIP3    H152739   1.281   3.723  15.269 -0.2545 -0.7615  0.4959
10416TIP3    H252740   1.193   3.672  15.157  1.5864  0.5737 -1.6425
10417TIP3   OH252741   0.021   5.272  12.106 -0.5738 -0.2072  0.6194
10417TIP3    H152742  -0.010   5.194  12.060  1.4599 -0.8184  0.1799
10417TIP3    H252743   0.083   5.313  12.046  2.6985 -1.3750  2.8852
10418TIP3   OH252744   1.083   6.375   4.588 -0.7551  0.3312 -0.3266
10418TIP3    H152745   1.072   6.461   4.627 -0.2841  0.4700 -0.5031
10418TIP3    H252746   1.063   6.314   4.660 -4.2927  0.5132 -0.9855
10419TIP3   OH252747   1.835   0.046  15.104 -0.0097  0.1393 -0.0208
10419TIP3    H152748   1.857   0.095  15.183 -0.7384 -0.4055  0.5377
10419TIP3    H252749   1.793  -0.033  15.136 -2.1873  0.8289 -0.9603
10420TIP3   OH252750   0.818   0.330  11.928 -0.4409 -0.4603  0.1858
10420TIP3    H152751   0.864   0.414  11.926 -1.4531  0.1059  0.1348
10420TIP3    H252752   0.766   0.332  12.008 -0.4258 -1.0609  0.2160
10421TIP3   OH252753   2.599   6.285  12.207 -0.6407  0.1031 -0.5411
10421TIP3    H152754   2.618   6.210  12.262  1.0932  1.2938  0.5868
10421TIP3    H252755   2.504   6.299  12.217 -0.8396 -1.3885 -0.1121
10422TIP3   OH252756   4.131   5.665  11.722 -0.4040 -0.1241  0.5849
10422TIP3    H152757   4.058   5.685  11.780  0.1165  0.5769  1.0119
10422TIP3    H252758   4.208   5.667  11.779  0.1534  0.8584 -0.1757
10423TIP3   OH252759   5.750   4.229   2.417  1.1434  0.5087 -0.2275
10423TIP3    H152760   5.654   4.232   2.419  1.1554  0.6989  0.1942
10423TIP3    H252761   5.771   4.176   2.341  0.6690 -0.8079  0.5235
10424TIP3   OH252762   3.738   4.410  12.988 -0.4475  0.4857  0.5253
10424TIP3    H152763   3.700   4.367  12.911  1.1487 -0.7277  0.3597
10424TIP3    H252764   3.818   4.451  12.955 -0.4167  1.0581  1.2907
10425TIP3   OH252765   1.437   6.003   0.483 -0.2292 -0.4997 -0.3536
10425TIP3    H152766   1.430   6.078   0.542  1.3173 -1.1907  0.7739
10425TIP3    H252767   1.476   5.934   0.536  1.2480 -1.1533 -2.1726
10426TIP3   OH252768   0.532   6.795   5.609  0.6417 -0.4080  0.6297
10426TIP3    H152769   0.460   6.766   5.665 -0.2157  0.9568  0.2939
10426TIP3    H252770   0.537   6.889   5.624  0.4704 -0.0035 -1.4612
10427TIP3   OH252771   0.648   5.656   6.437  0.3447  0.1953 -0.1300
10427TIP3    H152772   0.696   5.577   6.462 -0.3443 -0.2350 -0.1616
10427TIP3    H252773   0.717   5.721   6.422  0.8355  0.1024  1.5830
10428TIP3   OH252774   3.597   4.113   2.478 -0.3580 -0.6460  0.0506
10428TIP3    H152775   3.530   4.061   2.434 -1.7204 -0.1500  1.4487
10428TIP3    H252776   3.626   4.059   2.551 -0.0123 -0.4196  0.0832
10429TIP3   OH252777   5.351   4.187   6.146 -0.2072 -0.2920 -0.2745
10429TIP3    H152778   5.258   4.205   6.133 -0.3652 -0.9594 -0.1165
10429TIP3    H252779   5.354   4.097   6.178  0.5005 -0.3009 -0.3390
10430TIP3   OH252780   0.120   3.444   1.654 -0.2673  0.0250 -0.4804
10430TIP3    H152781   0.116   3.531   1.693 -0.3899 -1.1125  2.3158
10430TIP3    H252782   0.058   3.447   1.581 -1.8892  1.6913  0.8664
10431TIP3   OH252783   2.925   5.355  13.241  0.3756 -0.7127  0.5765
10431TIP3    H152784   2.931   5.402  13.325  1.1890 -1.5127  0.9948
10431TIP3    H252785   3.002   5.297  13.242  2.1860  1.4096 -2.0913
10432TIP3   OH252786   5.312   4.656  13.176 -0.0223  0.1591 -0.0994
10432TIP3    H152787   5.227   4.662  13.132 -0.6728 -2.5272  0.6303
10432TIP3    H252788   5.342   4.567  13.160  1.3910  0.2027  1.8716
10433TIP3   OH252789   0.393   0.535   2.684 -0.5001 -0.0624  0.3257
10433TIP3    H152790   0.481   0.540   2.723 -0.0684 -1.3596 -0.4602
10433TIP3    H252791   0.402   0.477   2.609 -2.0494 -0.2423  0.2427
10434TIP3   OH252792   2.726   5.374   2.549 -0.1562  0.0005  0.1527
10434TIP3    H152793   2.650   5.426   2.526 -0.2150  0.7501  1.8889
10434TIP3    H252794   2.800   5.434   2.541  0.2561 -0.6641 -1.3183
10435TIP3   OH252795   5.030   2.524   5.941 -0.0475 -0.7007  0.0149
10435TIP3    H152796   4.944   2.494   5.911 -0.1476 -1.5650  1.0908
10435TIP3    H252797   5.012   2.572   6.022  0.4643 -0.6700  0.1157
10436TIP3   OH252798   1.183   4.601  10.337 -0.0663  0.0081  0.5884
10436TIP3    H152799   1.148   4.512  10.328 -0.8594  0.3429  0.2785
10436TIP3    H252800   1.125   4.643  10.400 -0.9288  0.9134 -0.7594
10437TIP3   OH252801   1.258   1.308  13.851 -0.4420 -0.0039  0.0552
10437TIP3    H152802   1.331   1.305  13.913  0.6318  0.1298 -1.1546
10437TIP3    H252803   1.188   1.258  13.893  0.5267 -0.5916  1.0115
10438TIP3   OH252804   2.457   6.753  13.179  0.7484 -0.1518  0.4772
10438TIP3    H152805   2.367   6.727  13.160  1.1249 -1.8028  0.7982
10438TIP3    H252806   2.464   6.842  13.145 -0.5805 -0.5238 -0.8699
10439TIP3   OH252807   4.465   0.149  10.965  0.4496 -0.2275 -0.6856
10439TIP3    H152808   4.434   0.230  10.924  0.1326 -0.3058 -0.6035
10439TIP3    H252809   4.560   0.150  10.951  0.3371 -0.3207 -1.5504
10440TIP3   OH252810   4.854   6.288  13.495  0.0597 -0.2474 -0.2782
10440TIP3    H152811   4.913   6.311  13.423  0.3729 -0.9411 -0.2476
10440TIP3    H252812   4.768   6.314  13.464  0.5297  2.2779  0.3047
10441TIP3   OH252813   6.647   0.587   1.635  0.2965 -0.4563 -0.7886
10441TIP3    H152814   6.643   0.511   1.694  1.1573  0.2308  0.1905
10441TIP3    H252815   6.636   0.550   1.548 -1.5846 -1.4587 -0.1914
10442TIP3   OH252816   3.594   4.510  15.081 -0.2522  0.2855  0.5088
10442TIP3    H152817   3.683   4.532  15.109 -0.8484  2.6051  0.7269
10442TIP3    H252818   3.591   4.534  14.989 -1.0656  1.6666  0.8713
10443TIP3   OH252819   5.836   6.390   4.114 -0.2022 -0.2529  0.3089
10443TIP3    H152820   5.843   6.298   4.141  1.4132  0.1616  1.4931
10443TIP3    H252821   5.906   6.434   4.163  0.4320  1.2485 -1.8108
10444TIP3   OH252822   1.120   4.346  10.393  0.3680  0.4574 -0.4748
10444TIP3    H152823   1.044   4.294  10.369 -0.1559  1.0480 -0.1053
10444TIP3    H252824   1.145   4.312  10.480 -0.2204  1.0844 -0.0525
10445TIP3   OH252825   1.090   6.471   0.269 -0.6530 -0.1259 -0.0182
10445TIP3    H152826   1.173   6.519   0.271 -0.7244 -0.0160  1.2867
10445TIP3    H252827   1.111   6.384   0.303 -0.6486 -0.8568 -1.7979
10446TIP3   OH252828   1.532   6.420   2.774  0.2952  0.7879 -0.2142
10446TIP3    H152829   1.584   6.344   2.801 -0.4052  0.0062 -1.0037
10446TIP3    H252830   1.470   6.434   2.846  0.2097  0.4040 -0.2132
10447TIP3   OH252831   1.823   2.557  13.341 -0.1224  1.0916 -0.0435
10447TIP3    H152832   1.798   2.499  13.413 -1.7636  2.3052  0.4227
10447TIP3    H252833   1.806   2.505  13.262  3.8042 -1.0791  0.3388
10448TIP3   OH252834   2.010   4.175  16.689 -0.2628 -0.1811 -1.2008
10448TIP3    H152835   1.925   4.151  16.651 -0.0322 -2.5062 -0.3844
10448TIP3    H252836   2.033   4.102  16.745  2.8865 -0.2307 -2.3515
10449TIP3   OH252837   3.474   2.976  14.305 -0.0609  0.3637  0.1166
10449TIP3    H152838   3.496   2.960  14.213  1.4303  1.0672  0.3212
10449TIP3    H252839   3.386   3.014  14.302 -1.2598 -2.2367 -0.7717
10450TIP3   OH252840   2.291   3.926  11.514  0.1471 -0.5640 -0.2573
10450TIP3    H152841   2.244   3.994  11.466  0.5435 -1.1098 -1.4511
10450TIP3    H252842   2.289   3.956  11.605 -0.8219  0.3794 -0.5616
10451TIP3   OH252843   5.774   4.061   4.173 -0.3732  0.5647 -0.4020
10451TIP3    H152844   5.852   4.009   4.192  0.2760  1.6536  0.0452
10451TIP3    H252845   5.743   4.090   4.259 -0.1938  1.6332 -0.6797
10452TIP3   OH252846   5.080   1.809  11.195 -0.2368  0.0584  0.6644
10452TIP3    H152847   5.166   1.808  11.153 -0.9319  1.9689 -0.9305
10452TIP3    H252848   5.099   1.796  11.288  1.6811 -0.4732  0.2425
10453TIP3   OH252849   0.701   3.513  15.081  0.9488  0.9711  0.2426
10453TIP3    H152850   0.686   3.607  15.071  0.9360  0.8088 -1.5774
10453TIP3    H252851   0.717   3.482  14.992  2.0845 -0.5736  0.9529
10454TIP3   OH252852   1.504   0.324  16.983  0.1280  0.7748 -0.9969
10454TIP3    H152853   1.448   0.355  16.913  0.3903  1.5389 -0.8802
10454TIP3    H252854   1.501   0.394  17.049  0.3192  0.3186 -0.4981
10455TIP3   OH252855   1.271   2.007   3.116  0.3579 -0.3267 -0.1636
10455TIP3    H152856   1.355   1.966   3.139  0.1156 -1.4015 -1.0947
10455TIP3    H252857   1.295   2.079   3.058  0.6496 -0.4894 -0.2489
10456TIP3   OH252858   5.591   1.839  16.612  0.5388  0.1360 -0.3806
10456TIP3    H152859   5.512   1.891  16.596  1.0017  0.8588 -0.3381
10456TIP3    H252860   5.652   1.900  16.653  1.1328 -0.4099 -0.4406
10457TIP3   OH252861   4.011   6.098  11.267 -0.1800 -0.7043 -0.2817
10457TIP3    H152862   3.918   6.123  11.265  0.1436  0.7625  1.0120
10457TIP3    H252863   4.046   6.144  11.343  1.8401 -0.4174 -1.3272
10458TIP3   OH252864   5.724   3.620  17.071 -0.0703 -0.2286  0.4815
10458TIP3    H152865   5.681   3.583  17.147  1.9229  0.1016  1.8520
10458TIP3    H252866   5.742   3.545  17.015  1.6324 -1.0695  2.0442
10459TIP3   OH252867   1.972   0.746  14.844 -0.1571  0.2292  0.6378
10459TIP3    H152868   1.982   0.815  14.909  0.3241 -0.3836  1.2290
10459TIP3    H252869   1.882   0.755  14.813 -0.5300  0.2926  1.6833
10460TIP3   OH252870   5.150   5.317   1.474 -0.0148 -0.0969  0.2402
10460TIP3    H152871   5.137   5.279   1.561  0.7477  0.1850  0.4886
10460TIP3    H252872   5.159   5.411   1.491  2.7413 -0.2694  0.1927
10461TIP3   OH252873   1.695   0.363  12.853 -0.5230  0.4064 -0.3944
10461TIP3    H152874   1.711   0.458  12.853 -0.2244  0.3765  1.0637
10461TIP3    H252875   1.765   0.328  12.799 -0.0592  0.9407 -0.1539
10462TIP3   OH252876   0.267   3.336  11.838 -0.7145  0.1922  0.9454
10462TIP3    H152877   0.350   3.332  11.791 -0.5263  2.4341  0.9758
10462TIP3    H252878   0.234   3.246  11.835  0.6095 -0.3138 -1.0411
10463TIP3   OH252879   2.673   0.173   4.609  0.1414  0.2873  1.3263
10463TIP3    H152880   2.644   0.264   4.609  0.7254  0.4910  2.1084
10463TIP3    H252881   2.693   0.155   4.701  2.3706  0.1476  0.8885
10464TIP3   OH252882   0.140   2.091  13.267  0.2006  0.0622  0.6103
10464TIP3    H152883   0.168   2.165  13.214  1.2305 -0.2764  0.6653
10464TIP3    H252884   0.088   2.130  13.337 -1.7387  0.4692 -0.9565
10465TIP3   OH252885   4.328   1.765   0.191  0.5870 -0.2267 -0.2752
10465TIP3    H152886   4.270   1.801   0.258  1.5329  1.2176 -0.2056
10465TIP3    H252887   4.350   1.677   0.223  1.8750  0.8133  1.8756
10466TIP3   OH252888   6.828   5.860   4.701  0.3725 -0.1491 -0.0773
10466TIP3    H152889   6.797   5.784   4.749  0.3137  0.7247  1.3390
10466TIP3    H252890   6.848   5.925   4.769  1.6329  0.6520 -1.1655
10467TIP3   OH252891   0.852   3.681   1.407 -0.6440  0.0116 -0.4187
10467TIP3    H152892   0.947   3.669   1.409 -0.4467  1.4890 -0.0831
10467TIP3    H252893   0.836   3.757   1.462 -2.0590 -0.3528 -0.2825
10468TIP3   OH252894   3.207   5.095  15.815  0.4356 -0.0825  0.3152
10468TIP3    H152895   3.239   5.114  15.726 -1.1449 -0.1948 -0.3057
10468TIP3    H252896   3.138   5.160  15.830  1.5379  0.7733  2.0059
10469TIP3   OH252897   6.455   0.587  13.630 -0.0331  0.1883  0.2869
10469TIP3    H152898   6.435   0.658  13.692 -0.5657  0.8223 -0.5839
10469TIP3    H252899   6.413   0.510  13.668  0.2807  0.3923  1.0854
10470TIP3   OH252900   0.365   2.317  14.723 -0.7104  0.6086  0.3156
10470TIP3    H152901   0.376   2.302  14.817 -0.9255 -0.8978  0.1082
10470TIP3    H252902   0.386   2.410  14.712  2.4849  0.1333  1.3879
10471TIP3   OH252903   0.382   5.744  13.053 -0.2649  0.1693  0.1902
10471TIP3    H152904   0.298   5.737  13.009 -0.2995 -1.0161  0.4169
10471TIP3    H252905   0.395   5.838  13.064 -0.5067  0.4798 -1.8320
10472TIP3   OH252906   3.872   4.244   5.016  0.2252 -0.7126 -0.1341
10472TIP3    H152907   3.965   4.267   5.013  0.3821 -1.1654  0.8954
10472TIP3    H252908   3.869   4.160   5.061 -0.8311  0.2751  1.7599
10473TIP3   OH252909   2.351   0.726  16.740 -0.1580 -0.4212  0.0072
10473TIP3    H152910   2.402   0.766  16.811  0.8064  3.7937 -2.6738
10473TIP3    H252911   2.414   0.671  16.694 -0.2402 -1.4901  1.1159
10474TIP3   OH252912   5.896   1.141  12.091  0.5405 -0.5591 -0.3670
10474TIP3    H152913   5.876   1.168  12.180  2.3474 -0.4490  0.0527
10474TIP3    H252914   5.816   1.100  12.059 -1.3386  2.5068  0.0357
10475TIP3   OH252915   5.155   3.567   0.430  0.4510 -0.4723 -0.3232
10475TIP3    H152916   5.175   3.637   0.492  0.8059  1.1708 -2.1860
10475TIP3    H252917   5.234   3.514   0.427  1.1350  0.5318 -0.7152
10476TIP3   OH252918   3.332   1.624   5.461  0.2654 -0.5274  0.3295
10476TIP3    H152919   3.359   1.537   5.431  2.0445  0.3397 -0.6927
10476TIP3    H252920   3.412   1.665   5.495 -0.3362  1.0382 -0.0372
10477TIP3   OH252921   1.764   3.352   0.684  0.6952 -0.6086  0.3605
10477TIP3    H152922   1.744   3.337   0.776 -1.0776 -0.0009  0.1137
10477TIP3    H252923   1.836   3.292   0.665  1.1700 -0.6646  2.1534
10478TIP3   OH252924   0.498   0.747   0.505 -0.3299 -0.2320  0.2577
10478TIP3    H152925   0.587   0.782   0.500 -0.6988  0.6217 -0.5457
10478TIP3    H252926   0.457   0.794   0.577 -0.7661  0.8901 -0.7011
10479TIP3   OH252927   0.864   3.789   1.844 -0.2745  0.3280 -0.4055
10479TIP3    H152928   0.945   3.782   1.794  0.6491 -1.0564  1.1846
10479TIP3    H252929   0.813   3.713   1.819 -0.1729  0.0831  0.1258
10480TIP3   OH252930   6.042   2.954  14.455  0.3937  0.5372 -0.1513
10480TIP3    H152931   6.083   2.879  14.411 -0.1677 -0.2005  0.5715
10480TIP3    H252932   6.111   2.989  14.512  1.0645  1.3746 -1.4079
10481TIP3   OH252933   6.230   3.807   0.562  0.0675  0.5208  0.4036
10481TIP3    H152934   6.181   3.775   0.486  0.4315  2.4437 -0.7049
10481TIP3    H252935   6.182   3.773   0.637 -1.5333  0.2939 -0.6662
10482TIP3   OH252936   2.011   4.001   1.081  0.7444  0.0850 -0.0473
10482TIP3    H152937   2.097   4.042   1.070  0.5114  0.7462  0.5183
10482TIP3    H252938   1.980   4.034   1.165  0.6312 -1.4079  0.5326
10483TIP3   OH252939   0.748   2.107  17.052  0.2727 -0.2787 -0.1477
10483TIP3    H152940   0.757   2.014  17.073 -0.2845 -0.3061 -0.0242
10483TIP3    H252941   0.738   2.149  17.137  4.8926  0.4524  0.2672
10484TIP3   OH252942   3.159   4.355  14.805 -0.0368 -0.1341  0.0682
10484TIP3    H152943   3.177   4.266  14.837  0.7879  0.0814  0.2145
10484TIP3    H252944   3.178   4.412  14.879 -0.6805  0.1646  0.0138
10485TIP3   OH252945   6.266   1.944  13.517  0.2175 -0.1992  0.3372
10485TIP3    H152946   6.174   1.968  13.509  0.0049 -1.3916 -1.0897
10485TIP3    H252947   6.313   2.013  13.469 -0.1489 -0.9053 -1.0805
10486TIP3   OH252948   1.670   2.836   3.362  0.1620 -0.2341 -0.0011
10486TIP3    H152949   1.730   2.840   3.287 -0.7435 -0.0431 -0.7395
10486TIP3    H252950   1.680   2.748   3.396  0.2794 -0.4633 -0.6112
10487TIP3   OH252951   1.918   1.457  12.635 -0.4409  0.1178  0.1559
10487TIP3    H152952   2.006   1.471  12.598  0.2240 -2.1674  0.6736
10487TIP3    H252953   1.860   1.454  12.559  0.6800 -2.9355 -0.7384
10488TIP3   OH252954   2.204   4.870   6.035 -0.3521  0.0599  0.6000
10488TIP3    H152955   2.222   4.853   5.942  1.4231  0.1455  0.8918
10488TIP3    H252956   2.231   4.790   6.079  1.4179  0.9867  1.2860
10489TIP3   OH252957   6.810   1.893   1.695 -0.0875 -0.4190 -0.2291
10489TIP3    H152958   6.864   1.971   1.702  0.2486 -0.7353  0.8987
10489TIP3    H252959   6.786   1.871   1.785 -0.1452 -1.6398 -0.5147
10490TIP3   OH252960   0.890   0.631  12.577 -0.2155  0.7866 -0.1321
10490TIP3    H152961   0.829   0.700  12.602  1.1900  2.3461 -0.7636
10490TIP3    H252962   0.920   0.656  12.489 -0.0314 -0.9072 -0.5857
10491TIP3   OH252963   6.149   1.462   1.003  0.4954  0.3152 -0.6841
10491TIP3    H152964   6.105   1.423   1.079  1.1530  4.3754  2.0567
10491TIP3    H252965   6.223   1.404   0.986  0.4253 -0.6453  1.8890
10492TIP3   OH252966   1.886   5.287   4.411 -0.7669 -0.0901  0.0860
10492TIP3    H152967   1.923   5.199   4.417 -0.5639  0.0562  1.0572
10492TIP3    H252968   1.861   5.296   4.318 -0.4575 -1.0257 -0.0983
10493TIP3   OH252969   3.039   4.310   0.830  0.7749 -0.1617 -0.2427
10493TIP3    H152970   3.075   4.398   0.839  2.7152 -0.8859 -0.5600
10493TIP3    H252971   3.088   4.271   0.757  0.2890 -1.6776  0.2031
10494TIP3   OH252972   4.310   0.095   1.896 -0.0094  0.2089  0.2956
10494TIP3    H152973   4.262   0.097   1.979 -1.7370  1.7460 -0.6832
10494TIP3    H252974   4.305   0.003   1.868 -0.8770 -0.0024  1.0859
10495TIP3   OH252975   6.564   0.439   1.428  0.3194  0.1784  0.1812
10495TIP3    H152976   6.604   0.388   1.357  0.5340 -0.6512  0.8883
10495TIP3    H252977   6.480   0.468   1.392  1.6424  2.2461 -1.4654
10496TIP3   OH252978   5.918   2.873  11.516  0.1610  0.2252 -0.8598
10496TIP3    H152979   5.863   2.835  11.448 -0.4997  0.6657 -0.5742
10496TIP3    H252980   5.974   2.800  11.545  0.4960  0.0443 -1.9020
10497TIP3   OH252981   4.873   2.693   1.157  0.2463 -0.4632  0.3161
10497TIP3    H152982   4.778   2.688   1.163  0.1695 -1.8405 -1.3388
10497TIP3    H252983   4.892   2.787   1.163 -1.4559  0.1042 -1.8758
10498TIP3   OH252984   5.546   2.030   0.137 -0.4391  0.1003 -0.1784
10498TIP3    H152985   5.506   2.113   0.113 -0.6735 -0.3150 -1.2968
10498TIP3    H252986   5.620   2.021   0.076 -1.7410 -1.5278 -1.6388
10499TIP3   OH252987   0.925   4.867   4.789  0.1378  0.2400  0.6850
10499TIP3    H152988   0.953   4.888   4.700  1.0335 -1.1060  0.6099
10499TIP3    H252989   0.885   4.781   4.781 -2.2765  1.2578  1.1591
10500TIP3   OH252990   0.741   3.020  11.929 -0.7651 -0.2493 -0.2810
10500TIP3    H152991   0.724   2.936  11.972  0.3620  0.4627  1.6883
10500TIP3    H252992   0.785   3.072  11.996  2.4314  0.4933 -2.7444
10501TIP3   OH252993   0.955   6.364   3.087 -0.3491  0.6630  0.4040
10501TIP3    H152994   0.916   6.315   3.014  1.7062 -2.0654  0.9451
10501TIP3    H252995   0.890   6.358   3.157 -0.3862 -0.9881  0.2879
10502TIP3   OH252996   3.662   4.732  13.115 -0.2776 -0.0297 -0.2595
10502TIP3    H152997   3.716   4.744  13.037 -0.8433 -1.3189 -0.8708
10502TIP3    H252998   3.602   4.661  13.093 -0.6938 -0.1801  1.2272
10503TIP3   OH252999   2.060   6.518   1.884 -0.0596  0.0798 -0.3211
10503TIP3    H153000   2.005   6.522   1.806 -1.1169 -4.1452 -0.0495
10503TIP3    H253001   2.130   6.458   1.860  1.6902  1.5316  0.9224
10504TIP3   OH253002   2.900   4.566   1.245 -0.8476 -0.0606  0.1857
10504TIP3    H153003   2.938   4.610   1.169  0.0002  2.1645  1.7716
10504TIP3    H253004   2.975   4.548   1.302 -1.4791 -1.5024  0.6183
10505TIP3   OH253005   5.706   1.101  11.686  0.2528  0.5172 -0.2945
10505TIP3    H153006   5.772   1.159  11.724  0.9397  0.3381 -1.1710
10505TIP3    H253007   5.681   1.142  11.603  0.3503 -0.1407 -0.6649
10506TIP3   OH253008   3.046   4.581  14.979  0.3443 -0.5717 -0.2295
10506TIP3    H153009   3.123   4.527  14.999 -0.7841 -1.7765  1.1651
10506TIP3    H253010   3.022   4.619  15.064  0.3262  1.0746 -0.9526
10507TIP3   OH253011   0.025   3.892  12.860 -0.6631  0.0501 -0.4660
10507TIP3    H153012   0.079   3.818  12.886  0.1312  0.4490 -0.9566
10507TIP3    H253013  -0.064   3.867  12.887 -0.5694 -1.4719 -1.4465
10508TIP3   OH253014   5.532   0.935  15.163 -0.0651  0.3833 -0.7112
10508TIP3    H153015   5.558   1.025  15.181  0.2287 -0.2944  2.8360
10508TIP3    H253016   5.470   0.913  15.232  0.3538 -2.3254 -1.0915
10509TIP3   OH253017   6.028   5.343   3.011  0.1956  0.6554 -0.4478
10509TIP3    H153018   5.973   5.416   2.982  0.7657  0.4547 -2.1354
10509TIP3    H253019   5.969   5.288   3.062 -0.8634  1.0866 -1.1590
10510TIP3   OH253020   1.833   1.490   4.277  0.0357  0.2326  0.1828
10510TIP3    H153021   1.876   1.549   4.338  1.0295  2.2269 -2.2460
10510TIP3    H253022   1.785   1.548   4.218 -1.7774 -1.6576 -0.2928
10511TIP3   OH253023   1.948   0.533  10.233 -0.0765 -0.4857 -0.3290
10511TIP3    H153024   1.893   0.598  10.189 -0.8552 -1.3924 -0.7254
10511TIP3    H253025   2.035   0.572  10.232 -0.6550  0.9160  0.1672
10512TIP3   OH253026   4.096   0.366  14.193  0.1341  0.2850  0.4682
10512TIP3    H153027   4.075   0.349  14.101 -0.2553 -0.7770  0.7391
10512TIP3    H253028   4.192   0.372  14.195  0.2164 -0.6785  0.1309
10513TIP3   OH253029   6.416   5.958   2.873 -0.0276  0.1725 -0.0269
10513TIP3    H153030   6.433   5.872   2.910 -0.3196 -0.5783 -1.5420
10513TIP3    H253031   6.325   5.954   2.843 -0.1709  1.1524  0.2502
10514TIP3   OH253032   3.322   1.115  12.500  0.1847  0.0168 -0.2984
10514TIP3    H153033   3.410   1.109  12.538  0.2057  0.3600 -0.2906
10514TIP3    H253034   3.286   1.027  12.509  0.9319 -0.3991 -1.2956
10515TIP3   OH253035   1.208   2.476   0.697 -0.2475 -0.1861 -0.0740
10515TIP3    H153036   1.225   2.394   0.742  2.6418  1.0575  1.4110
10515TIP3    H253037   1.130   2.460   0.644  0.1218 -3.7833  0.2630
10516TIP3   OH253038   2.572   4.091   4.702  0.1513 -0.2193 -0.3491
10516TIP3    H153039   2.511   4.051   4.640  1.5344 -1.7612 -0.7869
10516TIP3    H253040   2.654   4.042   4.691  0.7211  0.0661  2.0457
10517TIP3   OH253041   1.305   0.118   1.108  0.0351 -0.0906  0.1843
10517TIP3    H153042   1.313   0.095   1.016  0.5323 -0.6829  0.3649
10517TIP3    H253043   1.237   0.185   1.111  0.1992  0.1201 -0.6407
10518TIP3   OH253044   3.832   6.830  16.697 -0.4868 -0.7222 -0.0804
10518TIP3    H153045   3.762   6.770  16.724 -0.3396 -0.8857 -0.0562
10518TIP3    H253046   3.912   6.777  16.703 -0.3476 -0.5016  0.0048
10519TIP3   OH253047   5.413   0.873   1.248  0.2494  0.1711 -0.0389
10519TIP3    H153048   5.352   0.893   1.177  1.5872  1.0548 -1.0011
10519TIP3    H253049   5.398   0.942   1.312  1.2432  1.2962 -0.9702
10520TIP3   OH253050   5.309   2.721   3.513 -0.0081  0.1911 -0.3185
10520TIP3    H153051   5.279   2.767   3.591  2.2688  2.1933 -0.4960
10520TIP3    H253052   5.301   2.786   3.442  0.5982 -0.6379 -1.1713
10521TIP3   OH253053   3.775   1.317  14.499 -0.6580  0.8090 -0.2211
10521TIP3    H153054   3.693   1.292  14.457 -0.1089 -0.6749 -0.4881
10521TIP3    H253055   3.811   1.235  14.531  0.1410  1.5977  0.9884
10522TIP3   OH253056   2.384   5.739   1.161  0.1127 -0.2637  0.4126
10522TIP3    H153057   2.442   5.815   1.171  3.0213 -2.1312 -0.8074
10522TIP3    H253058   2.411   5.679   1.231  0.7456 -1.7678 -1.0515
10523TIP3   OH253059   4.997   1.722  10.551 -0.1498 -0.0815  0.6707
10523TIP3    H153060   4.935   1.786  10.585 -0.5677  0.1828 -0.5214
10523TIP3    H253061   5.009   1.660  10.623 -2.2091 -0.4234  0.8049
10524TIP3   OH253062   4.371   1.241   1.930  0.2132  0.0611 -0.2703
10524TIP3    H153063   4.389   1.224   1.837  1.6207  0.9105 -0.1856
10524TIP3    H253064   4.404   1.163   1.975 -2.8221 -1.5515 -0.6146
10525TIP3   OH253065   2.400   1.679  14.642  0.4125 -0.2751 -0.3487
10525TIP3    H153066   2.494   1.686  14.659  0.3320 -1.1994  0.5869
10525TIP3    H253067   2.381   1.752  14.583  1.6564  0.1040 -0.3196
10526TIP3   OH253068   1.107   0.548  16.234 -0.0465 -0.2454  0.0557
10526TIP3    H153069   1.118   0.540  16.139 -0.1091  0.5295 -0.0239
10526TIP3    H253070   1.016   0.525  16.250 -0.0967 -0.1547 -0.0990
10527TIP3   OH253071   4.506   2.267   1.643  0.2087  0.4148  0.1301
10527TIP3    H153072   4.595   2.256   1.609  0.1337  0.9857 -0.2595
10527TIP3    H253073   4.514   2.245   1.736  0.8012  0.6419  0.1406
10528TIP3   OH253074   6.350   2.487   4.436  0.0813 -0.3395 -0.2065
10528TIP3    H153075   6.278   2.533   4.479  0.2381  0.0977 -0.4070
10528TIP3    H253076   6.315   2.400   4.418  0.0612 -0.5778  0.9138
10529TIP3   OH253077   3.355   0.998   4.749 -0.1739  0.3490  0.3823
10529TIP3    H153078   3.404   0.960   4.822 -1.0335 -0.4584  0.5488
10529TIP3    H253079   3.422   1.011   4.681  0.5079  0.4780  1.0618
10530TIP3   OH253080   0.118   1.190  11.226  0.4510 -0.2663 -0.3628
10530TIP3    H153081   0.071   1.107  11.217  0.4569 -0.1738 -1.3534
10530TIP3    H253082   0.174   1.177  11.302 -2.5494  0.2911  2.1568
10531TIP3   OH253083   3.266   3.433  14.541 -0.0424 -0.6922  0.1137
10531TIP3    H153084   3.289   3.340  14.531 -2.2654 -1.2449 -0.2718
10531TIP3    H253085   3.319   3.463  14.614  1.2719 -2.0559 -0.2297
10532TIP3   OH253086   1.213   5.081   6.252  0.7177 -0.3562  0.0480
10532TIP3    H153087   1.201   5.025   6.329 -3.1371 -1.8897 -1.4300
10532TIP3    H253088   1.220   5.169   6.287 -2.2769 -0.8506  2.2324
10533TIP3   OH253089   1.558   2.311   1.429 -0.4498  0.2796 -0.3265
10533TIP3    H153090   1.560   2.269   1.516 -0.9986 -4.0026 -2.1013
10533TIP3    H253091   1.486   2.373   1.434 -0.1340  0.5627  2.3915
10534TIP3   OH253092   1.280   6.346  13.869 -0.1948 -0.1967  0.2389
10534TIP3    H153093   1.235   6.430  13.853 -0.8659 -0.5210  0.4016
10534TIP3    H253094   1.210   6.286  13.892  0.5233 -0.2598  2.3864
10535TIP3   OH253095   2.939   2.278  16.611 -0.5277  0.1592 -0.2721
10535TIP3    H153096   2.998   2.295  16.538  0.7189  0.0108  0.6790
10535TIP3    H253097   2.981   2.318  16.686 -0.8764 -1.2550  0.7151
10536TIP3   OH253098   0.594   6.034   0.205  0.0558  0.0324 -0.2146
10536TIP3    H153099   0.629   6.117   0.172 -0.9452  0.7208  0.4160
10536TIP3    H253100   0.516   6.059   0.254 -0.7276 -1.3591 -0.7010
10537TIP3   OH253101   1.706   3.231   3.217  0.0398  0.2440  0.1211
10537TIP3    H153102   1.764   3.307   3.213  0.0802  0.1784 -2.7177
10537TIP3    H253103   1.626   3.264   3.257  0.3209  1.6329 -0.4072
10538TIP3   OH253104   6.059   1.204   2.435 -0.1164  0.3913 -0.3582
10538TIP3    H153105   5.988   1.231   2.377 -0.5076 -0.9546 -0.5411
10538TIP3    H253106   6.043   1.252   2.517 -0.2244  1.4210 -0.9661
10539TIP3   OH253107   3.056   2.687   0.835 -0.0331 -0.3871 -0.2966
10539TIP3    H153108   2.987   2.733   0.883  1.2333  0.5403  0.6981
10539TIP3    H253109   3.023   2.598   0.825 -1.0045 -0.1863  0.9145
10540TIP3   OH253110   4.510   6.686  16.794  0.2485  0.3958  0.3031
10540TIP3    H153111   4.499   6.778  16.816  1.8041  0.9071 -0.8569
10540TIP3    H253112   4.578   6.654  16.854 -0.4361 -0.0680  0.8465
10541TIP3   OH253113   6.126   2.067  12.860  0.1847 -0.7558  0.4638
10541TIP3    H153114   6.165   2.141  12.814  1.0941  0.1173  2.5265
10541TIP3    H253115   6.157   1.990  12.812  0.0631  0.1249 -1.0923
10542TIP3   OH253116   2.770   5.175   3.171  0.2194 -0.3767  0.9122
10542TIP3    H153117   2.801   5.262   3.197 -0.2460  0.6638 -1.7681
10542TIP3    H253118   2.809   5.160   3.085  0.8124 -3.1507  1.5719
10543TIP3   OH253119   3.580   6.311  13.060  0.3865 -0.1743  0.1791
10543TIP3    H153120   3.625   6.337  13.141  2.5227 -0.8066 -0.7263
10543TIP3    H253121   3.585   6.389  13.004 -0.7523  0.1387  0.4842
10544TIP3   OH253122   1.057   3.060   3.454  0.0816 -0.0697 -0.5062
10544TIP3    H153123   0.994   2.988   3.449 -0.5421  0.3246  1.0206
10544TIP3    H253124   1.142   3.018   3.463 -0.2303 -0.6306 -0.1332
10545TIP3   OH253125   3.197   5.407  15.078 -0.4704 -0.2934  0.9422
10545TIP3    H153126   3.246   5.346  15.132  0.7050  1.3689  1.8414
10545TIP3    H253127   3.129   5.442  15.137 -0.9911 -0.5471  0.5047
10546TIP3   OH253128   5.929   2.288  12.153  0.3108 -0.2664 -0.7326
10546TIP3    H153129   5.900   2.378  12.170  1.0405 -0.1127 -0.2521
10546TIP3    H253130   5.885   2.236  12.220  0.6397 -0.1262 -0.4045
10547TIP3   OH253131   5.095   4.906  12.291  0.2059 -0.1595 -0.5010
10547TIP3    H153132   5.150   4.908  12.212 -0.2675  1.0538 -0.8173
10547TIP3    H253133   5.063   4.816  12.295  0.9524 -0.4750 -1.1862
10548TIP3   OH253134   5.897   5.362   6.073 -0.2721 -0.2654 -0.4962
10548TIP3    H153135   5.913   5.450   6.106 -1.1169 -1.0355  2.2531
10548TIP3    H253136   5.802   5.351   6.075 -0.2544 -0.9264 -1.7889
10549TIP3   OH253137   1.760   3.795  11.011 -0.2127 -0.2135 -0.2878
10549TIP3    H153138   1.829   3.794  10.945 -0.4120  0.0168 -0.5008
10549TIP3    H253139   1.681   3.822  10.963 -0.2921  0.2788  0.1129
10550TIP3   OH253140   2.003   1.014  10.158 -0.9005 -0.3712  0.3736
10550TIP3    H153141   1.934   1.078  10.172  0.2551  1.0346 -0.1026
10550TIP3    H253142   2.057   1.052  10.088  1.1657 -0.7040  1.6946
10551TIP3   OH253143   5.566   4.454  11.310 -0.2736  0.2804 -0.0827
10551TIP3    H153144   5.471   4.457  11.297 -0.3835  0.1746  0.6474
10551TIP3    H253145   5.577   4.461  11.405  0.3829 -1.3390 -0.0101
10552TIP3   OH253146   4.127   2.358  10.813 -0.0618  0.3324  0.3921
10552TIP3    H153147   4.069   2.433  10.803 -0.8556 -0.1803  0.9824
10552TIP3    H253148   4.182   2.360  10.735 -1.0015  0.7306 -0.2857
10553TIP3   OH253149   5.108   3.835   0.972  0.0277 -0.0159  0.0427
10553TIP3    H153150   5.025   3.825   0.924 -1.1305  0.9821  1.7395
10553TIP3    H253151   5.122   3.929   0.977  0.3926 -0.1219  1.2115
10554TIP3   OH253152   4.868   6.465   4.454  0.1830  0.3941  0.0257
10554TIP3    H153153   4.821   6.409   4.515 -1.7066  1.7853 -0.0524
10554TIP3    H253154   4.959   6.462   4.483 -0.4141 -0.1688  1.9753
10555TIP3   OH253155   6.409   5.401  10.925 -0.1877  0.1484 -0.2833
10555TIP3    H153156   6.405   5.325  10.867 -0.9523 -0.2927  0.3287
10555TIP3    H253157   6.443   5.471  10.869  1.9132 -0.9482 -0.5072
10556TIP3   OH253158   1.904   1.569  12.136 -0.8563  0.5086 -0.8290
10556TIP3    H153159   1.857   1.634  12.189 -0.6890 -0.4493  0.5735
10556TIP3    H253160   1.839   1.500  12.119 -0.3961 -0.1011 -0.1890
10557TIP3   OH253161   5.165   3.966   5.576  0.1390 -0.1359 -1.0069
10557TIP3    H153162   5.160   4.033   5.644  1.0959  0.1755 -1.2155
10557TIP3    H253163   5.084   3.976   5.526  0.0728  0.5875 -0.7725
10558TIP3   OH253164   2.310   3.915   5.878 -0.9440 -0.5506  0.3416
10558TIP3    H153165   2.356   3.890   5.798 -0.9416  2.1352 -0.6263
10558TIP3    H253166   2.312   4.011   5.877 -3.6755 -0.3705  1.9647
10559TIP3   OH253167   0.654   0.733  14.256 -0.0415  0.2089  0.0302
10559TIP3    H153168   0.617   0.789  14.187 -0.4512  2.1946  1.7480
10559TIP3    H253169   0.589   0.738  14.327  1.4350  0.1347  1.4277
10560TIP3   OH253170   0.999   6.370   0.797  0.0347  0.7772 -0.0524
10560TIP3    H153171   1.003   6.460   0.765  0.9211  0.9657  0.5315
10560TIP3    H253172   1.059   6.369   0.872 -1.1952  0.0975  0.9526
10561TIP3   OH253173   5.479   1.893  14.009 -0.9221  0.6026  0.0569
10561TIP3    H153174   5.514   1.919  13.924 -2.1632 -0.2704 -0.7514
10561TIP3    H253175   5.391   1.929  14.012 -1.3568 -0.4527  0.4245
10562TIP3   OH253176   1.908   0.287  11.403  0.0596 -0.3711  0.2580
10562TIP3    H153177   1.915   0.381  11.387 -1.1176 -0.1038  1.1643
10562TIP3    H253178   1.970   0.271  11.474  1.5913 -0.6417 -1.0873
10563TIP3   OH253179   6.247   3.672  11.911 -0.6028 -0.1273 -0.1093
10563TIP3    H153180   6.164   3.710  11.884 -1.2998 -1.1974  0.4362
10563TIP3    H253181   6.303   3.678  11.834 -1.0802  0.8715 -0.3941
10564TIP3   OH253182   2.990   2.177  16.902 -0.2346  0.4390 -0.3461
10564TIP3    H153183   2.980   2.083  16.891 -0.5340  0.4008  0.2229
10564TIP3    H253184   3.078   2.196  16.869 -0.8024  0.2297 -2.0570
10565TIP3   OH253185   6.654   2.866   4.271  0.6637 -0.6369  1.1908
10565TIP3    H153186   6.642   2.772   4.260 -0.4819 -0.5138  1.3283
10565TIP3    H253187   6.686   2.876   4.361 -0.5977 -0.7966  1.6704
10566TIP3   OH253188   5.739   5.800  16.111  0.4559 -0.6293 -0.4210
10566TIP3    H153189   5.710   5.888  16.088 -0.4065 -0.6808  0.4157
10566TIP3    H253190   5.756   5.758  16.026  1.4707  0.5199 -0.8101
10567TIP3   OH253191   5.975   5.354   2.439 -0.0681 -0.3754  0.0218
10567TIP3    H153192   6.048   5.292   2.443  2.7540  2.6337 -0.3616
10567TIP3    H253193   5.967   5.387   2.529  0.5950  0.8601 -0.3482
10568TIP3   OH253194   6.305   3.256   4.261  0.1871  0.0489  0.4002
10568TIP3    H153195   6.391   3.297   4.255 -0.0184  0.5550  0.8498
10568TIP3    H253196   6.276   3.274   4.351 -0.4528  0.0119  0.2041
10569TIP3   OH253197   5.806   1.037  13.053 -0.8886  0.0047  0.3511
10569TIP3    H153198   5.898   1.041  13.025 -1.1471 -2.4374 -1.1192
10569TIP3    H253199   5.763   1.106  13.002 -0.3684 -0.8246 -1.2864
10570TIP3   OH253200   0.208   1.169   4.816 -0.7634 -0.7456  0.0759
10570TIP3    H153201   0.246   1.095   4.863 -1.6585 -1.4314 -0.2572
10570TIP3    H253202   0.279   1.232   4.810  0.4020 -2.0936 -0.7621
10571TIP3   OH253203   4.501   0.763   1.849  0.4963  0.3693  0.2601
10571TIP3    H153204   4.562   0.706   1.896  1.0023  1.6463  1.2142
10571TIP3    H253205   4.425   0.708   1.831  1.6996 -1.1183 -0.4999
10572TIP3   OH253206   4.586   0.735  11.336  0.4850 -0.3333  0.5875
10572TIP3    H153207   4.668   0.785  11.338 -0.3814  1.2982 -1.2183
10572TIP3    H253208   4.593   0.682  11.256  0.0495 -0.6963  0.7893
10573TIP3   OH253209   1.260   4.368  11.631 -0.1372 -0.6904 -0.2749
10573TIP3    H153210   1.353   4.344  11.630 -0.0376 -0.4752  1.2601
10573TIP3    H253211   1.233   4.352  11.721 -1.7327 -1.2259 -0.8165
10574TIP3   OH253212   0.096   5.490   2.954  0.3000  0.0551  0.5030
10574TIP3    H153213   0.178   5.462   2.913  0.9481 -0.8428  2.2813
10574TIP3    H253214   0.028   5.460   2.895  1.2226  2.5155 -2.0336
10575TIP3   OH253215   3.260   4.256   6.163 -0.1758 -0.3721  0.0898
10575TIP3    H153216   3.175   4.297   6.174  0.6119  1.3860  0.0557
10575TIP3    H253217   3.323   4.322   6.195  1.2729 -0.8441 -1.6120
10576TIP3   OH253218   0.298   0.179   4.586  0.0911 -0.5148  0.5228
10576TIP3    H153219   0.330   0.113   4.525  2.2507  1.4891 -0.6711
10576TIP3    H253220   0.353   0.169   4.664  0.9350  0.3448  0.0441
10577TIP3   OH253221   5.910   0.694  15.051 -0.1698 -0.1056 -0.1048
10577TIP3    H153222   5.972   0.624  15.029  0.1464 -0.6932  2.3996
10577TIP3    H253223   5.958   0.752  15.109 -1.2682  0.7531 -0.0175
10578TIP3   OH253224   3.503   2.468   0.875  0.5438  0.6132 -0.1150
10578TIP3    H153225   3.518   2.443   0.783  0.6763  0.3243 -0.0178
10578TIP3    H253226   3.539   2.395   0.925 -0.2789  0.3711  0.1502
10579TIP3   OH253227   0.515   1.902  16.833 -0.1477  0.7723  0.0020
10579TIP3    H153228   0.460   1.865  16.902  0.1290 -0.3535 -0.3481
10579TIP3    H253229   0.539   1.989  16.864 -0.6123  0.5556  0.9911
10580TIP3   OH253230   4.278   1.790   1.821  0.2361  0.4811  0.4137
10580TIP3    H153231   4.204   1.772   1.764 -0.0854 -0.5756  1.1447
10580TIP3    H253232   4.313   1.704   1.844  0.0452  0.8521  2.2157
10581TIP3   OH253233   2.362   2.412  16.623 -0.1091 -0.2927  0.0563
10581TIP3    H153234   2.419   2.486  16.600 -2.4994  1.5968 -0.2571
10581TIP3    H253235   2.300   2.405  16.550 -0.8967 -1.5959  0.8051
10582TIP3   OH253236   6.384   5.731   3.038  0.4599 -0.7869  0.3473
10582TIP3    H153237   6.314   5.688   3.088  0.1437 -0.0703  0.5528
10582TIP3    H253238   6.390   5.819   3.077  2.3425 -1.2317  1.1700
10583TIP3   OH253239   2.405   0.885  14.180  0.4089 -0.1986 -0.0011
10583TIP3    H153240   2.430   0.853  14.267 -1.9093  2.4832  1.8326
10583TIP3    H253241   2.447   0.971  14.173 -0.3716  0.1126 -1.0266
10584TIP3   OH253242   2.156   5.256   1.641  0.0924  0.1823  0.4479
10584TIP3    H153243   2.120   5.182   1.592  0.2622  0.2122  0.2752
10584TIP3    H253244   2.232   5.219   1.687  0.9231  0.5053 -0.5977
10585TIP3   OH253245   1.151   4.175  16.645 -0.0259 -0.4302  0.1245
10585TIP3    H153246   1.223   4.124  16.682 -0.7283 -1.4363  0.1635
10585TIP3    H253247   1.094   4.194  16.720  0.4824  0.8681  0.1980
10586TIP3   OH253248   0.323   1.678  12.871  0.3523 -0.0274  0.0579
10586TIP3    H153249   0.325   1.773  12.876  0.0002 -0.0779  1.5794
10586TIP3    H253250   0.398   1.650  12.923  1.3965 -0.5811 -1.6641
10587TIP3   OH253251   3.650   3.961  16.428 -0.1318 -0.3890  0.4194
10587TIP3    H153252   3.703   3.984  16.504 -1.0312  2.0597  0.3843
10587TIP3    H253253   3.559   3.970  16.458 -0.5036 -0.0611 -0.7415
10588TIP3   OH253254   1.223   0.233   2.835  0.3538 -0.6481 -0.1737
10588TIP3    H153255   1.241   0.144   2.805  1.9193 -0.6608  0.6916
10588TIP3    H253256   1.182   0.276   2.760 -1.4771 -2.3693 -0.2560
10589TIP3   OH253257   0.982   1.754   4.521 -0.9340  0.2808  0.4364
10589TIP3    H153258   1.062   1.715   4.486 -0.1841 -0.7728  3.1177
10589TIP3    H253259   1.001   1.848   4.525 -0.4317  0.2234 -0.3912
10590TIP3   OH253260   3.260   3.613   5.308  0.1641  0.2896 -0.2060
10590TIP3    H153261   3.194   3.567   5.361 -0.3889 -0.1113 -1.2116
10590TIP3    H253262   3.251   3.575   5.221 -0.9413  2.9032 -1.3433
10591TIP3   OH253263   0.976   3.304  13.378  0.2077 -0.5533 -0.7482
10591TIP3    H153264   0.900   3.326  13.325  1.0082  0.0795 -1.6604
10591TIP3    H253265   0.973   3.367  13.451  1.9694  2.1723 -2.8492
10592TIP3   OH253266   2.759   4.008   2.387 -0.0925  0.0469  0.2161
10592TIP3    H153267   2.672   3.998   2.348 -0.3374 -0.7234  0.9296
10592TIP3    H253268   2.820   3.985   2.317 -0.5180 -1.0196  0.1864
10593TIP3   OH253269   3.589   0.571  11.133  0.3695  0.4185  0.9046
10593TIP3    H153270   3.590   0.477  11.150  2.9308 -0.7290 -3.8958
10593TIP3    H253271   3.662   0.605  11.186  0.2336 -0.4986  1.7002
10594TIP3   OH253272   0.880   4.612  13.945  0.0074 -0.3261 -0.8451
10594TIP3    H153273   0.942   4.548  13.912  1.3995  1.3545 -1.6707
10594TIP3    H253274   0.933   4.689  13.967 -1.4190  0.1239  1.3652
10595TIP3   OH253275   5.623   0.297  13.996 -0.1296 -0.0180  0.3540
10595TIP3    H153276   5.675   0.223  13.962 -1.7943 -1.1023  0.0266
10595TIP3    H253277   5.633   0.291  14.091 -0.0032 -0.4999  0.3171
10596TIP3   OH253278   5.024   3.733  14.453  0.3855  0.1189 -0.0154
10596TIP3    H153279   5.091   3.763  14.515 -0.2794  0.3264  0.6055
10596TIP3    H253280   4.978   3.813  14.426  0.6529  0.0320 -0.7752
10597TIP3   OH253281   2.742   2.445   4.451  0.6072 -0.0537 -0.1405
10597TIP3    H153282   2.741   2.486   4.538  1.3890 -0.9042  0.2823
10597TIP3    H253283   2.818   2.484   4.408 -1.2937  2.4291 -1.5056
10598TIP3   OH253284   2.760   6.345   5.236 -0.0360  0.0578 -0.2433
10598TIP3    H153285   2.677   6.329   5.281 -0.7860  0.3657 -1.4945
10598TIP3    H253286   2.801   6.416   5.286  0.1305 -1.0044  1.1942
10599TIP3   OH253287   5.433   2.355  13.194  0.5590 -0.0923 -0.0380
10599TIP3    H153288   5.369   2.291  13.224  1.1022 -0.3239  0.6441
10599TIP3    H253289   5.382   2.418  13.144 -0.0040 -0.9852 -0.6219
10600TIP3   OH253290   2.604   0.386   3.430  0.5397  0.3195 -0.6815
10600TIP3    H153291   2.637   0.367   3.343 -1.2949  1.6935 -1.7352
10600TIP3    H253292   2.669   0.446   3.467  1.6218 -0.7231 -0.8347
10601TIP3   OH253293   3.887   0.740  15.163  0.1099 -0.2956 -0.3184
10601TIP3    H153294   3.860   0.666  15.107 -1.3063  1.0745 -1.5361
10601TIP3    H253295   3.967   0.773  15.122  0.0553 -0.3913 -0.5033
10602TIP3   OH253296   0.204   0.406  11.001 -0.1381 -0.7178  0.0669
10602TIP3    H153297   0.256   0.369  10.930 -0.5104 -0.1412 -0.5247
10602TIP3    H253298   0.179   0.331  11.055  1.7337 -0.9559  0.6781
10603TIP3   OH253299   6.768   3.281  13.165  0.4080  0.2536 -0.2180
10603TIP3    H153300   6.817   3.240  13.093  0.9461 -0.3906  0.4903
10603TIP3    H253301   6.680   3.295  13.129  0.5425 -0.4566 -0.8644
10604TIP3   OH253302   2.996   3.486  13.659  0.1721 -0.4592 -0.0789
10604TIP3    H153303   2.921   3.429  13.643  0.2666 -0.2138 -1.5645
10604TIP3    H253304   2.999   3.543  13.582 -0.4587  2.2028  1.7285
10605TIP3   OH253305   0.929   0.997  16.604 -0.0427  0.4782  0.0044
10605TIP3    H153306   0.911   1.090  16.595  1.3357  0.6836 -0.9618
10605TIP3    H253307   0.958   0.969  16.517  1.1204 -0.4810  0.6649
10606TIP3   OH253308   0.444   5.794  15.139  0.2994  0.0538  0.5329
10606TIP3    H153309   0.385   5.723  15.116  1.1915  0.5196 -4.0218
10606TIP3    H253310   0.394   5.874  15.125  0.8718  0.3927  0.3634
10607TIP3   OH253311   6.631   4.410  13.200  0.4260  0.5099  0.1225
10607TIP3    H153312   6.645   4.482  13.138 -0.3860  0.3980 -0.1984
10607TIP3    H253313   6.611   4.453  13.283  1.3366  0.6570  0.2841
10608TIP3   OH253314   3.383   1.591   4.222  0.4961 -0.6431  0.3524
10608TIP3    H153315   3.304   1.537   4.213 -0.0423  0.1779  0.0068
10608TIP3    H253316   3.387   1.641   4.140  1.3511 -0.6446  0.3897
10609TIP3   OH253317   3.909   4.047   1.964 -0.0050  0.2169  0.9616
10609TIP3    H153318   3.901   4.017   2.054 -1.4481  1.2915  1.2319
10609TIP3    H253319   3.873   4.136   1.965  0.5887  0.5051 -0.5396
10610TIP3   OH253320   2.023   2.401  11.298 -0.5711 -0.1846 -0.0446
10610TIP3    H153321   1.927   2.401  11.294 -0.6490 -0.2384  1.3130
10610TIP3    H253322   2.043   2.391  11.391  0.7386  2.1047 -0.0022
10611TIP3   OH253323   0.680   0.255   2.913  0.0595 -0.0540  0.5788
10611TIP3    H153324   0.759   0.268   2.861 -0.8235  2.8755 -0.2238
10611TIP3    H253325   0.703   0.284   3.001  0.1362 -0.0812  0.5674
10612TIP3   OH253326   6.049   2.469   0.752  0.4151  0.2180  0.8720
10612TIP3    H153327   5.992   2.392   0.751  2.2922 -1.3130 -2.0362
10612TIP3    H253328   6.137   2.434   0.766  1.3361  1.7567 -0.6240
10613TIP3   OH253329   0.739   1.941  10.598 -0.0333 -0.2040 -0.6252
10613TIP3    H153330   0.752   1.915  10.507  1.8845 -0.3124 -0.3722
10613TIP3    H253331   0.815   1.906  10.644 -0.3609  0.8459  0.8084
10614TIP3   OH253332   0.018   2.338  12.404  0.0317 -0.1455  0.6628
10614TIP3    H153333   0.016   2.433  12.417  2.2643  0.0243  0.2179
10614TIP3    H253334   0.040   2.327  12.312 -0.5990 -1.1151  0.6177
10615TIP3   OH253335   1.441   2.571   0.911  0.4318 -0.3652 -0.2376
10615TIP3    H153336   1.347   2.587   0.910  0.5444  0.4117  0.2969
10615TIP3    H253337   1.462   2.542   0.823  0.0935  1.9374 -1.1623
10616TIP3   OH253338   5.687   0.799   1.159 -0.0757 -0.4423  0.2934
10616TIP3    H153339   5.683   0.812   1.253  0.6832  0.1064  0.2568
10616TIP3    H253340   5.596   0.788   1.132 -0.2879 -0.6939  1.0967
10617TIP3   OH253341   2.111   5.972   4.365  0.5118 -0.1065 -0.1460
10617TIP3    H153342   2.200   5.973   4.331 -0.0137 -0.5011 -1.6020
10617TIP3    H253343   2.081   5.882   4.353  0.7496 -0.6896  2.7343
10618TIP3   OH253344   2.975   6.396  14.751 -0.3410 -0.1684 -0.6114
10618TIP3    H153345   2.902   6.458  14.745 -0.7806 -0.5182  0.8589
10618TIP3    H253346   3.047   6.440  14.705 -1.1880  0.5914 -1.2539
10619TIP3   OH253347   4.410   1.880   3.041 -0.4587 -0.1852  0.4075
10619TIP3    H153348   4.371   1.817   2.981 -1.5138 -0.2828  1.1731
10619TIP3    H253349   4.378   1.965   3.011  0.0665 -0.1020  0.0572
10620TIP3   OH253350   0.819   1.830  10.359 -0.4630 -0.1779 -0.2772
10620TIP3    H153351   0.894   1.771  10.356 -0.6902 -0.4270 -1.2308
10620TIP3    H253352   0.815   1.869  10.272 -1.4867 -0.2389 -0.2692
10621TIP3   OH253353   3.037   6.480   5.746 -0.3290 -0.2611 -0.1486
10621TIP3    H153354   3.044   6.560   5.693  1.4959  0.4599  1.0871
10621TIP3    H253355   2.948   6.448   5.730 -0.9323  1.7306 -1.0654
10622TIP3   OH253356   5.113   3.414  14.143 -0.4229  0.0446  0.1417
10622TIP3    H153357   5.098   3.509  14.145 -2.7509 -0.2406 -0.5505
10622TIP3    H253358   5.121   3.390  14.235 -0.9080  0.7785  0.3904
10623TIP3   OH253359   1.866   0.924  12.548  0.2424  0.0645  0.5038
10623TIP3    H153360   1.926   0.997  12.533  0.6994 -0.4858 -0.4404
10623TIP3    H253361   1.780   0.966  12.557  0.5021  0.7229  0.0011
10624TIP3   OH253362   4.483   3.979  13.704  0.4150  0.2587  0.2160
10624TIP3    H153363   4.538   4.038  13.756 -0.6751  1.2498  0.2978
10624TIP3    H253364   4.543   3.940  13.641  1.1695  1.5413  0.0975
10625TIP3   OH253365   5.913   2.924   2.900 -0.0745 -0.2524  0.2527
10625TIP3    H153366   5.953   3.005   2.934  1.0425 -0.9623  0.6669
10625TIP3    H253367   5.944   2.918   2.810 -1.8255  0.8345 -0.4803
10626TIP3   OH253368   6.287   3.566   1.172  0.0382 -0.3380 -0.1705
10626TIP3    H153369   6.287   3.514   1.252  0.3146 -0.1397 -0.0410
10626TIP3    H253370   6.194   3.576   1.149 -0.0724  0.0715  0.4291
10627TIP3   OH253371   0.015   1.187  14.261  0.2372 -0.6247  0.2523
10627TIP3    H153372   0.045   1.166  14.349  1.1023  0.8657  0.3459
10627TIP3    H253373  -0.034   1.269  14.271 -2.4799 -2.1017 -0.1818
10628TIP3   OH253374   4.093   5.720  15.279 -0.5141 -0.0989  0.0630
10628TIP3    H153375   4.036   5.772  15.336  0.2512  0.0167  0.7380
10628TIP3    H253376   4.143   5.664  15.339 -0.5061 -0.7973 -0.5748
10629TIP3   OH253377   0.520   4.082   3.990 -0.2765  0.7319  0.0705
10629TIP3    H153378   0.512   3.992   3.959 -0.0096  1.1750 -1.3552
10629TIP3    H253379   0.612   4.105   3.974  0.3569  0.4712  2.7641
10630TIP3   OH253380   4.081   4.337   1.671 -0.0417  0.3053 -0.8907
10630TIP3    H153381   4.120   4.378   1.748  0.5891  1.2135 -1.6734
10630TIP3    H253382   4.147   4.276   1.640 -0.6392 -0.7108 -0.2333
10631TIP3   OH253383   0.457   5.765   2.573 -0.6363  0.4689  0.1825
10631TIP3    H153384   0.530   5.802   2.622  0.1207  1.1270 -1.3547
10631TIP3    H253385   0.411   5.710   2.636  1.8317 -0.8986  0.9209
10632TIP3   OH253386   1.398   1.445   0.631 -0.2431 -0.5616  0.1204
10632TIP3    H153387   1.386   1.356   0.598 -0.6938  0.0393 -1.4269
10632TIP3    H253388   1.318   1.464   0.680 -0.1882 -0.9722  0.3680
10633TIP3   OH253389   0.278   5.249   4.819  0.6079 -0.1374  0.2401
10633TIP3    H153390   0.266   5.317   4.885  0.6890 -0.2874  0.4096
10633TIP3    H253391   0.362   5.208   4.842  0.1595 -0.8408  0.6250
10634TIP3   OH253392   5.231   0.226  10.317  0.0309  0.4175  0.1157
10634TIP3    H153393   5.152   0.185  10.284  0.9007 -0.1813 -1.3193
10634TIP3    H253394   5.254   0.176  10.395 -0.2418 -0.2810 -0.2524
10635TIP3   OH253395   1.992   4.171   5.900 -0.0083  0.4590 -0.3877
10635TIP3    H153396   1.903   4.138   5.886  0.7175 -1.5253 -0.6828
10635TIP3    H253397   2.048   4.108   5.854  1.5806  1.3951  0.1979
10636TIP3   OH253398   1.681   2.742  15.067  0.5165 -0.1567  0.4741
10636TIP3    H153399   1.607   2.741  15.127  0.0455  2.3389  0.0325
10636TIP3    H253400   1.657   2.681  14.997 -0.0488 -1.1168  1.4653
10637TIP3   OH253401   5.768   5.128   0.538  0.0632  0.1242  0.3239
10637TIP3    H153402   5.720   5.169   0.466  0.0354  0.5844  0.5963
10637TIP3    H253403   5.700   5.088   0.592  0.0170  0.4313  0.4959
10638TIP3   OH253404   1.313   5.872  14.892  0.6509 -0.0267  0.0604
10638TIP3    H153405   1.242   5.839  14.836  1.8554 -2.1348 -0.3478
10638TIP3    H253406   1.281   5.857  14.981  0.2921 -0.3142 -0.1091
10639TIP3   OH253407   6.750   1.378  14.857 -0.0736  0.1839 -0.3652
10639TIP3    H153408   6.716   1.347  14.941  1.0925 -0.4681 -0.1030
10639TIP3    H253409   6.689   1.345  14.792  0.4902 -1.7400  0.0077
10640TIP3   OH253410   1.745   1.415  10.996 -0.2962  0.3504  0.4587
10640TIP3    H153411   1.826   1.370  10.973  0.0299  1.2420 -0.1905
10640TIP3    H253412   1.769   1.470  11.070 -1.0302 -1.5282  2.1849
10641TIP3   OH253413   6.788   3.488  15.596  0.3220 -0.1695 -0.1784
10641TIP3    H153414   6.861   3.504  15.537  1.0807 -1.3793  0.4042
10641TIP3    H253415   6.825   3.495  15.684 -0.6310  0.8583  0.1659
10642TIP3   OH253416   5.693   3.631  13.494 -0.0448 -0.2879 -0.2077
10642TIP3    H153417   5.774   3.671  13.463 -0.5805  0.2904 -0.8809
10642TIP3    H253418   5.722   3.565  13.556  0.8856  0.9030  0.6810
10643TIP3   OH253419   1.828   1.439   1.826  0.2266 -0.3720 -0.3731
10643TIP3    H153420   1.800   1.416   1.915  0.1574  1.3191  0.0847
10643TIP3    H253421   1.896   1.376   1.805  0.9978 -0.1637  1.3288
10644TIP3   OH253422   6.013   4.327  11.462 -0.3375  0.4867  0.0663
10644TIP3    H153423   5.959   4.274  11.404 -1.1228  0.5156  0.7619
10644TIP3    H253424   6.092   4.344  11.411 -0.2898 -0.9010 -0.3731
10645TIP3   OH253425   1.942   0.771  13.503  0.0292 -0.2819 -0.2327
10645TIP3    H153426   1.889   0.844  13.534 -0.1902 -1.0181  1.2078
10645TIP3    H253427   1.953   0.715  13.580  0.2070 -1.7533 -1.2895
10646TIP3   OH253428   1.562   1.363  12.916 -0.2496  0.5501  0.1433
10646TIP3    H153429   1.487   1.319  12.955  0.0521  0.2509  0.3891
10646TIP3    H253430   1.559   1.452  12.952  0.6559 -0.0244  1.7422
10647TIP3   OH253431   0.211   1.257   2.177  0.0515  0.2829  0.3376
10647TIP3    H153432   0.247   1.174   2.148 -1.1182 -0.6585  1.4357
10647TIP3    H253433   0.116   1.246   2.172 -0.1403  1.2935  1.1605
10648TIP3   OH253434   1.827   6.043  14.589  0.8383 -0.1623  0.0954
10648TIP3    H153435   1.789   6.016  14.672 -0.6206  0.3554 -0.3715
10648TIP3    H253436   1.915   6.004  14.589  0.8890 -0.1585  1.8680
10649TIP3   OH253437   2.574   0.573  16.156 -0.3749 -0.3516 -0.2105
10649TIP3    H153438   2.539   0.636  16.093 -0.2918  1.6001  1.5957
10649TIP3    H253439   2.638   0.522  16.106  1.0053  2.2939 -1.3555
10650TIP3   OH253440   6.671   4.230  17.006 -0.4806 -0.1011  0.3013
10650TIP3    H153441   6.658   4.312  16.959 -0.0154  0.0135  0.3687
10650TIP3    H253442   6.693   4.256  17.095  1.5354 -0.2347 -0.1105
10651TIP3   OH253443   1.673   1.380  11.778  0.0550 -0.3367  0.0060
10651TIP3    H153444   1.731   1.455  11.767  0.6991 -0.6331  1.1885
10651TIP3    H253445   1.591   1.417  11.812 -0.2891  0.0193 -1.1569
10652TIP3   OH253446   0.615   2.648   0.281 -0.1379  0.0658  0.5442
10652TIP3    H153447   0.639   2.726   0.232  0.2677  0.4630  1.3499
10652TIP3    H253448   0.523   2.632   0.258  0.7200 -1.2679 -2.3088
10653TIP3   OH253449   5.658   1.959  16.291  0.2715  0.2303 -0.2704
10653TIP3    H153450   5.615   2.025  16.346  1.3114 -0.9531  2.1109
10653TIP3    H253451   5.625   1.976  16.203 -0.3079  3.2367  0.4056
10654TIP3   OH253452   5.336   3.822  14.265  0.3278  0.1226 -0.8664
10654TIP3    H153453   5.326   3.877  14.343 -2.3756 -0.5154 -0.6551
10654TIP3    H253454   5.388   3.747  14.295 -0.9371 -0.2775  0.4861
10655TIP3   OH253455   2.449   3.768  14.184 -0.6840  0.3984 -0.2146
10655TIP3    H153456   2.376   3.807  14.233 -0.1953  1.3423 -0.2256
10655TIP3    H253457   2.524   3.775  14.243  0.2812  2.9580 -1.6096
10656TIP3   OH253458   6.073   1.129   5.390 -0.6733 -0.0095  0.5542
10656TIP3    H153459   6.090   1.037   5.365 -0.4206  0.1369  0.1651
10656TIP3    H253460   6.050   1.172   5.308 -1.3371  0.1601  0.8264
10657TIP3   OH253461   4.978   3.445   3.817  0.2617 -0.3702  0.1410
10657TIP3    H153462   4.998   3.533   3.848  0.5524 -0.4854  0.2797
10657TIP3    H253463   4.931   3.458   3.734 -0.4339 -0.0626  0.5763
10658TIP3   OH253464   1.164   6.667   3.309 -0.0357  0.3140  0.8144
10658TIP3    H153465   1.191   6.676   3.400 -1.5160 -1.1061  1.4459
10658TIP3    H253466   1.197   6.581   3.283  0.0366  0.5447  0.1280
10659TIP3   OH253467   1.167   1.730   6.021  0.2798 -0.3651 -0.1945
10659TIP3    H153468   1.194   1.671   5.951  1.4823 -0.6406  0.4723
10659TIP3    H253469   1.212   1.697   6.099  1.2089  1.5793  0.1436
10660TIP3   OH253470   0.062   0.426   4.031 -0.4500 -0.2185 -0.0592
10660TIP3    H153471   0.005   0.436   3.955 -1.9859 -1.5715  0.8620
10660TIP3    H253472   0.051   0.335   4.058  1.3507 -0.2265  0.8137
10661TIP3   OH253473   1.367   2.446  14.756  0.1076 -0.0468 -0.1312
10661TIP3    H153474   1.413   2.363  14.768 -0.5399 -0.2392  1.1871
10661TIP3    H253475   1.431   2.513  14.779  0.4444 -0.2024 -0.6060
10662TIP3   OH253476   3.764   5.654   6.665 -0.5197 -0.4243  0.0739
10662TIP3    H153477   3.779   5.730   6.722 -1.7186 -1.0479  1.2925
10662TIP3    H253478   3.836   5.595   6.686 -0.5709 -0.3563  0.4660
10663TIP3   OH253479   6.763   2.717  12.985 -0.2478  0.0155  0.4032
10663TIP3    H153480   6.780   2.648  12.921  0.5702  1.8034 -1.4308
10663TIP3    H253481   6.804   2.686  13.066 -0.1504 -1.7357 -0.2761
10664TIP3   OH253482   4.491   0.152  12.973  0.5878 -0.4169  0.6223
10664TIP3    H153483   4.437   0.138  13.051  0.8984 -0.0417  0.9081
10664TIP3    H253484   4.487   0.068  12.926  1.5393 -1.1376  1.7500
10665TIP3   OH253485   2.045   5.586  13.078 -0.6112 -0.3325  0.4230
10665TIP3    H153486   2.051   5.492  13.095  1.2197 -0.5775 -1.2765
10665TIP3    H253487   2.105   5.625  13.142 -1.4485 -0.2877  1.1958
10666TIP3   OH253488   5.512   0.221  13.084  0.9690  0.1060 -0.4220
10666TIP3    H153489   5.521   0.166  13.006 -0.7550  0.8529 -1.2013
10666TIP3    H253490   5.475   0.303  13.051  1.3109  0.8796  1.0371
10667TIP3   OH253491   6.011   4.621   2.740  0.7574  0.1131 -0.2284
10667TIP3    H153492   6.100   4.587   2.723  0.9245 -0.3205  1.3127
10667TIP3    H253493   5.990   4.673   2.663  3.2099  1.9878  0.2494
10668TIP3   OH253494   3.131   3.236  11.791  0.1442  0.3743  0.6975
10668TIP3    H153495   3.044   3.238  11.833  0.2079 -0.6287  0.9099
10668TIP3    H253496   3.126   3.303  11.723 -1.2884 -0.5904 -0.2183
10669TIP3   OH253497   0.047   4.676   5.598 -0.5263  0.3243  0.4722
10669TIP3    H153498   0.045   4.601   5.657 -0.4317 -1.4408 -1.6415
10669TIP3    H253499   0.129   4.721   5.618 -0.1110 -0.7062  1.1197
10670TIP3   OH253500   0.653   3.105  12.652 -0.5743  0.2321 -0.0372
10670TIP3    H153501   0.693   3.049  12.719 -0.0180  1.9462  1.1219
10670TIP3    H253502   0.590   3.048  12.608  0.5394 -1.5266  0.5308
10671TIP3   OH253503   0.301   2.588  15.566  0.5764 -0.0513  0.2381
10671TIP3    H153504   0.228   2.615  15.510 -0.3337  0.7559  1.7310
10671TIP3    H253505   0.346   2.670  15.587  0.3167 -0.1991  1.4486
10672TIP3   OH253506   4.470   4.804   5.512 -0.2022 -1.0831 -0.6343
10672TIP3    H153507   4.523   4.874   5.475  0.8403 -0.7258  1.4140
10672TIP3    H253508   4.404   4.848   5.565  0.3019 -1.6153  0.4690
10673TIP3   OH253509   3.592   4.668  11.532 -0.5164 -0.5877 -0.2553
10673TIP3    H153510   3.632   4.696  11.450  1.5643  1.3453  1.2917
10673TIP3    H253511   3.634   4.584  11.551 -0.4987 -0.7136 -0.8179
10674TIP3   OH253512   3.806   6.830  12.577  0.0155 -0.2321  0.1118
10674TIP3    H153513   3.790   6.779  12.497  0.8175  3.0399 -2.3323
10674TIP3    H253514   3.748   6.906  12.569  0.6434  0.5471  2.3347
10675TIP3   OH253515   4.155   0.456   6.574 -0.1461  0.0493  0.4408
10675TIP3    H153516   4.187   0.546   6.573  0.6482 -0.0461  4.2014
10675TIP3    H253517   4.172   0.424   6.485  1.2485  3.0150 -0.4855
10676TIP3   OH253518   4.920   1.155   4.371  0.1160  0.7500  0.3644
10676TIP3    H153519   4.941   1.161   4.278  1.6649  0.3685  0.6688
10676TIP3    H253520   4.998   1.117   4.411 -0.5267  0.9081  1.8256
10677TIP3   OH253521   1.265   1.715  14.919 -0.6929 -0.0921  0.1425
10677TIP3    H153522   1.275   1.748  14.830 -0.5183  0.2301  0.2815
10677TIP3    H253523   1.266   1.793  14.975 -3.8611  0.0459  0.2147
10678TIP3   OH253524   2.759   5.064  14.224  0.5006  0.2641  1.0572
10678TIP3    H153525   2.734   5.155  14.205 -1.3114 -0.8516 -2.8574
10678TIP3    H253526   2.841   5.052  14.175  0.2684 -0.4659  0.8507
10679TIP3   OH253527   0.965   4.177   4.700  0.3336 -0.4213 -0.3770
10679TIP3    H153528   0.888   4.120   4.704 -0.0431 -0.1323 -2.3729
10679TIP3    H253529   0.991   4.188   4.791 -0.7196 -2.2275  0.2063
10680TIP3   OH253530   4.480   4.065  13.034 -0.1530  0.6332 -0.1069
10680TIP3    H153531   4.386   4.069  13.053  0.0300 -0.0975  1.0041
10680TIP3    H253532   4.511   3.988  13.082  0.9721  0.7171 -0.6747
10681TIP3   OH253533   2.017   0.716   9.986 -0.2520 -0.0846  0.4603
10681TIP3    H153534   2.021   0.803  10.025 -1.4850  0.4859 -0.6274
10681TIP3    H253535   1.941   0.718   9.928 -0.4900 -1.9819  0.6261
10682TIP3   OH253536   0.459   2.834  13.667  0.9530 -0.0889 -0.2497
10682TIP3    H153537   0.477   2.847  13.573  0.8913 -1.0536 -0.4007
10682TIP3    H253538   0.364   2.839  13.674  0.9053 -0.7034 -0.3593
10683TIP3   OH253539   0.795   2.689   3.998  0.4022 -0.0896  0.0665
10683TIP3    H153540   0.888   2.691   4.020  0.4964 -2.6321  0.1295
10683TIP3    H253541   0.754   2.639   4.068 -0.4608 -1.7817 -1.5494
10684TIP3   OH253542   0.744   3.411   1.482 -0.1327  0.2758 -0.1216
10684TIP3    H153543   0.806   3.440   1.415 -1.4325  0.3147 -1.3495
10684TIP3    H253544   0.745   3.316   1.475  1.4209  0.1422  1.4069
10685TIP3   OH253545   1.644   0.014   4.077 -0.6479 -0.3937 -0.3709
10685TIP3    H153546   1.568   0.058   4.039 -1.1637 -1.1571 -0.2302
10685TIP3    H253547   1.715   0.034   4.016 -0.6173  1.4903  0.2087
10686TIP3   OH253548   1.781   4.587  16.985 -0.2399 -0.2750 -0.1751
10686TIP3    H153549   1.798   4.643  17.061 -0.9801  0.7326 -0.7265
10686TIP3    H253550   1.867   4.554  16.960  0.2557  0.8426 -0.0008
10687TIP3   OH253551   4.617   0.842  14.424  0.6054  0.2463 -0.3756
10687TIP3    H153552   4.591   0.894  14.348 -1.8206  1.0703  0.9114
10687TIP3    H253553   4.667   0.770  14.388  1.2278  1.6644 -2.5474
10688TIP3   OH253554   1.914   1.138  14.471  0.6417  0.3269 -0.2710
10688TIP3    H153555   1.991   1.129  14.416  0.9803 -0.7351  0.3349
10688TIP3    H253556   1.932   1.215  14.525  1.7753 -0.5044  0.5934
10689TIP3   OH253557   1.105   5.375   5.420  0.0203  0.0795 -0.0933
10689TIP3    H153558   1.132   5.299   5.473  0.7912  0.9294  0.7750
10689TIP3    H253559   1.117   5.347   5.330 -2.9401 -2.0417  0.0104
10690TIP3   OH253560   2.908   5.915   1.709 -0.1515 -0.4609  0.1170
10690TIP3    H153561   2.866   5.989   1.753 -0.3710  0.1811 -1.1262
10690TIP3    H253562   2.849   5.892   1.637  1.4866  0.3853 -1.5974
10691TIP3   OH253563   2.490   4.969  10.601  0.3140 -0.1123  0.6536
10691TIP3    H153564   2.567   4.992  10.549  0.2794  0.2993  0.7744
10691TIP3    H253565   2.424   5.034  10.575 -0.2130 -0.8807  0.0496
10692TIP3   OH253566   3.719   2.727   2.608  0.5788  0.3233 -0.4791
10692TIP3    H153567   3.813   2.745   2.620  0.1184  2.0601  1.0669
10692TIP3    H253568   3.690   2.695   2.694 -0.1368 -0.8172 -1.1311
10693TIP3   OH253569   0.771   3.124   4.926  0.1960 -0.1931  0.3820
10693TIP3    H153570   0.814   3.051   4.971  1.7995  1.4502  1.6407
10693TIP3    H253571   0.831   3.198   4.936 -0.4817  0.8773 -2.4862
10694TIP3   OH253572   4.907   6.484   1.569  0.0475  0.2246 -0.3626
10694TIP3    H153573   4.928   6.514   1.480 -0.0446  0.1474 -0.4095
10694TIP3    H253574   4.978   6.521   1.623  0.0005  0.4288 -0.4380
10695TIP3   OH253575   4.418   5.786  15.086 -0.4460  1.0729 -0.0542
10695TIP3    H153576   4.392   5.694  15.084  3.4191 -0.2252  1.3488
10695TIP3    H253577   4.471   5.798  15.008  0.4198  1.6459  0.6090
10696TIP3   OH253578   4.447   3.852  15.358  0.2411  0.5451 -0.4346
10696TIP3    H153579   4.473   3.769  15.399 -1.8086 -0.1953 -0.5173
10696TIP3    H253580   4.416   3.827  15.271  1.4143  1.6863 -1.2199
10697TIP3   OH253581   4.938   0.935  16.999  0.1781 -0.1211  0.0298
10697TIP3    H153582   4.945   0.959  16.906  0.5909 -3.0400 -0.7721
10697TIP3    H253583   5.026   0.947  17.033 -0.0296  1.2122  0.1571
10698TIP3   OH253584   4.079   1.524  16.715 -0.5486 -0.0336 -0.3823
10698TIP3    H153585   4.082   1.429  16.728 -1.4780 -0.0340 -0.0517
10698TIP3    H253586   4.059   1.535  16.622 -0.9138 -0.1803 -0.3247
10699TIP3   OH253587   1.906   2.024   4.162 -0.1092 -0.8099  0.4503
10699TIP3    H153588   1.965   2.041   4.089 -0.1927  0.2827  0.6124
10699TIP3    H253589   1.906   2.106   4.212 -0.3435 -1.4141  1.4638
10700TIP3   OH253590   3.188   2.661  16.673  0.2504 -0.4394 -0.4265
10700TIP3    H153591   3.157   2.585  16.722  2.1690  0.4257  2.3815
10700TIP3    H253592   3.279   2.640  16.651  0.3547  0.4487 -0.8941
10701TIP3   OH253593   1.320   0.522   1.603  0.4442  0.7230 -0.0914
10701TIP3    H153594   1.406   0.510   1.645  1.0142 -0.5273 -1.5386
10701TIP3    H253595   1.324   0.468   1.524 -0.5934  2.9694 -1.7924
10702TIP3   OH253596   3.917   2.910   1.692  0.4027 -0.4990  0.4039
10702TIP3    H153597   3.976   2.938   1.762 -0.2317  2.0309  0.0172
10702TIP3    H253598   3.975   2.889   1.619  0.9323  2.1405 -0.0347
10703TIP3   OH253599   5.247   4.185   0.522  0.0752  0.1882  0.3668
10703TIP3    H153600   5.313   4.251   0.545  0.2781 -0.2790  1.1331
10703TIP3    H253601   5.167   4.215   0.564  0.0511  0.1936  0.3176
10704TIP3   OH253602   3.973   0.591  11.759 -0.2067  0.7849 -0.2562
10704TIP3    H153603   3.932   0.677  11.743 -0.0158  0.8880 -0.1905
10704TIP3    H253604   3.905   0.540  11.802  0.2844  1.5116  1.4514
10705TIP3   OH253605   4.813   4.906  12.552  0.2580 -0.1341  0.2410
10705TIP3    H153606   4.851   4.912  12.640  0.5040  0.2253  0.1131
10705TIP3    H253607   4.831   4.991  12.513 -0.3402 -0.0980  0.0352
10706TIP3   OH253608   3.424   4.508  16.632 -0.0569  0.2648  0.0546
10706TIP3    H153609   3.334   4.531  16.610 -0.2578  0.1240  0.6990
10706TIP3    H253610   3.477   4.547  16.563 -0.6798 -0.4266 -0.8291
10707TIP3   OH253611   6.724   4.906  12.295 -0.0940  0.2626 -0.3146
10707TIP3    H153612   6.793   4.893  12.360  0.0432 -0.0324 -0.5240
10707TIP3    H253613   6.669   4.976  12.333 -1.9648 -2.1414  1.7601
10708TIP3   OH253614   3.653   6.688   3.231  0.1130 -0.2527 -0.1001
10708TIP3    H153615   3.739   6.730   3.240 -0.9870  1.7421  2.1286
10708TIP3    H253616   3.657   6.612   3.288  0.5605 -0.5058 -0.4573
10709TIP3   OH253617   5.165   5.590  11.606 -0.3553 -0.1796 -0.4808
10709TIP3    H153618   5.105   5.556  11.672 -1.0563 -2.0615 -1.9897
10709TIP3    H253619   5.119   5.579  11.523  1.3493  0.0472 -1.5208
10710TIP3   OH253620   0.234   2.155   2.076 -0.0057  0.3473  0.2117
10710TIP3    H153621   0.188   2.213   2.015  0.5026  1.4805  0.8854
10710TIP3    H253622   0.292   2.103   2.020 -0.7506  0.1899 -0.4438
10711TIP3   OH253623   3.859   2.322  16.749 -0.0614 -0.0768  0.2445
10711TIP3    H153624   3.915   2.329  16.672  1.6849  1.4568  1.5701
10711TIP3    H253625   3.841   2.228  16.757 -0.1545 -0.2938 -1.8799
10712TIP3   OH253626   5.643   6.718   3.192 -0.3865  0.3985  0.1890
10712TIP3    H153627   5.699   6.780   3.148  0.2680  0.4443  1.0548
10712TIP3    H253628   5.564   6.713   3.138 -0.1549  1.4388 -0.2573
10713TIP3   OH253629   5.357   5.653   1.882  0.6261 -0.3891  0.2973
10713TIP3    H153630   5.420   5.618   1.818  0.2566  0.5586 -0.6045
10713TIP3    H253631   5.399   5.732   1.916  0.0989  0.0275 -0.0141
10714TIP3   OH253632   3.756   1.772  12.293  0.6342 -0.1947  0.2092
10714TIP3    H153633   3.691   1.746  12.358  1.7897 -1.2292  1.0093
10714TIP3    H253634   3.748   1.867  12.288 -0.9890 -0.3063  0.2020
10715TIP3   OH253635   3.021   3.117   4.791 -0.5636  0.4963 -0.7625
10715TIP3    H153636   3.007   3.027   4.821 -0.0112  0.0852 -1.6971
10715TIP3    H253637   2.933   3.155   4.789 -0.7546  0.1200  0.0552
10716TIP3   OH253638   4.884   6.452  11.037 -0.1205  0.0862 -0.0595
10716TIP3    H153639   4.844   6.396  11.104  1.6203 -2.8328 -1.2499
10716TIP3    H253640   4.840   6.426  10.956  0.4706  0.7627 -0.6060
10717TIP3   OH253641   4.430   1.921  16.553  0.8146 -0.2456  0.9037
10717TIP3    H153642   4.390   2.002  16.587 -1.7601 -1.1020  0.1047
10717TIP3    H253643   4.442   1.937  16.460 -0.1601 -0.9147  0.6458
10718TIP3   OH253644   0.004   6.519  14.175  0.1064 -0.1790  0.2657
10718TIP3    H153645   0.031   6.452  14.239  1.4456 -0.8146 -0.9177
10718TIP3    H253646   0.023   6.602  14.219  1.2233 -0.6041  0.6144
10719TIP3   OH253647   3.854   2.108  12.947 -0.0811 -0.9727  0.0422
10719TIP3    H153648   3.893   2.021  12.932  0.8168 -0.9870  2.2064
10719TIP3    H253649   3.910   2.168  12.898 -2.0594 -1.7193 -3.4952
10720TIP3   OH253650   5.763   0.056  15.795 -0.0878 -0.0358 -0.2246
10720TIP3    H153651   5.809   0.028  15.874 -1.1617  0.2632  0.5346
10720TIP3    H253652   5.819   0.125  15.757  0.5745 -0.3823  0.1099
10721TIP3   OH253653   0.145   4.123   5.035  0.9626  0.0033  0.0822
10721TIP3    H153654   0.236   4.121   5.006  1.4017 -1.5801  1.4165
10721TIP3    H253655   0.114   4.033   5.026  0.3373 -0.0224  1.9883
10722TIP3   OH253656   0.740   2.525   1.507 -0.6437  0.0038 -0.3154
10722TIP3    H153657   0.669   2.468   1.479  0.0954 -0.4771 -1.2533
10722TIP3    H253658   0.723   2.609   1.463  0.2839 -0.6226 -1.9537
10723TIP3   OH253659   1.448   4.257   0.517 -0.1544 -0.0854 -0.2251
10723TIP3    H153660   1.424   4.344   0.550 -1.3737 -0.2117 -0.7373
10723TIP3    H253661   1.543   4.260   0.510 -0.2340  1.6010 -1.2290
10724TIP3   OH253662   2.909   0.427   0.496  0.1118 -0.3689 -0.1804
10724TIP3    H153663   2.996   0.392   0.475 -0.2624 -1.1503 -0.4615
10724TIP3    H253664   2.875   0.368   0.564 -0.7849 -0.9600 -1.1102
10725TIP3   OH253665   5.272   1.455   0.659  0.6051  0.1743  0.4780
10725TIP3    H153666   5.297   1.533   0.710 -0.5105  0.0761  1.2179
10725TIP3    H253667   5.207   1.488   0.597  1.3768  0.1394 -0.3574
10726TIP3   OH253668   2.968   6.172   6.462  0.7536  0.8224  0.3648
10726TIP3    H153669   2.874   6.180   6.445  0.4609 -1.4872  0.5785
10726TIP3    H253670   2.990   6.251   6.512 -1.6162  0.3112  2.4347
10727TIP3   OH253671   0.871   3.296  12.489 -0.2720 -0.2843  0.1420
10727TIP3    H153672   0.911   3.248  12.562 -0.7393  0.7289  1.0903
10727TIP3    H253673   0.777   3.292  12.507 -0.2703  1.9831  0.9224
10728TIP3   OH253674   1.258   3.674  16.366 -0.2399  0.4457  0.3821
10728TIP3    H153675   1.317   3.674  16.291 -1.1443 -1.5471 -0.4094
10728TIP3    H253676   1.290   3.603  16.422 -1.0313  0.2716  0.6302
10729TIP3   OH253677   3.390   2.121   0.345 -0.1959 -0.3944  0.2572
10729TIP3    H153678   3.388   2.208   0.386 -1.1601  0.3583 -1.2743
10729TIP3    H253679   3.367   2.060   0.415 -1.4439  0.7974  0.9397
10730TIP3   OH253680   1.453   3.581   3.380 -0.4899 -0.0528 -0.2975
10730TIP3    H153681   1.498   3.505   3.417  0.1494  0.0230 -0.8984
10730TIP3    H253682   1.412   3.548   3.300 -1.8920 -0.2244  0.4512
10731TIP3   OH253683   4.179   6.807  12.005 -0.0975  0.0964  0.1626
10731TIP3    H153684   4.269   6.774  12.001 -0.4143 -1.4402  2.9616
10731TIP3    H253685   4.126   6.729  12.021 -1.6651  1.2378  0.7680
10732TIP3   OH253686   1.215   1.709   5.596 -0.5303 -0.0231 -0.3962
10732TIP3    H153687   1.130   1.705   5.641  0.5392  2.3081  2.0699
10732TIP3    H253688   1.193   1.735   5.506 -2.5065 -1.1377 -0.2915
10733TIP3   OH253689   2.132   5.665   0.705 -0.3119 -0.7594 -0.4047
10733TIP3    H153690   2.226   5.654   0.694 -0.0314  0.5598  0.4937
10733TIP3    H253691   2.120   5.684   0.798 -1.3051  0.5490 -0.7597
10734TIP3   OH253692   1.862   5.148   2.359  0.0495  0.8185 -0.1506
10734TIP3    H153693   1.811   5.150   2.440 -0.6205  0.6365 -0.5548
10734TIP3    H253694   1.864   5.056   2.334 -0.2105  0.9378 -0.6218
10735TIP3   OH253695   3.412   1.377   5.368 -0.4425 -0.1134  0.1214
10735TIP3    H153696   3.446   1.328   5.442  0.4331  2.3406  1.4798
10735TIP3    H253697   3.436   1.325   5.291  1.0549 -1.4224  1.4075
10736TIP3   OH253698   4.243   1.050   3.107 -0.3357 -0.2991  0.1939
10736TIP3    H153699   4.284   1.136   3.107 -0.4242 -0.1647 -2.7780
10736TIP3    H253700   4.316   0.989   3.096 -0.4554 -0.4393  0.1729
10737TIP3   OH253701   4.706   3.201   5.623  0.2509  0.6175  0.1780
10737TIP3    H153702   4.753   3.137   5.570 -0.0088  0.7267 -0.1833
10737TIP3    H253703   4.765   3.220   5.696  0.3065 -0.0810  0.3224
10738TIP3   OH253704   6.474   2.670   1.124 -0.4509 -0.2430 -0.2234
10738TIP3    H153705   6.397   2.631   1.164 -0.5149 -0.6307 -0.7173
10738TIP3    H253706   6.480   2.630   1.037  1.1812 -1.4219  0.3694
10739TIP3   OH253707   3.558   2.335   2.204 -0.6836 -0.2125 -0.4146
10739TIP3    H153708   3.630   2.382   2.246  0.4367 -1.4502 -0.8411
10739TIP3    H253709   3.601   2.278   2.140 -2.1346 -0.2989 -1.3659
10740TIP3   OH253710   5.695   1.918   5.030  0.1937 -0.1692 -0.0917
10740TIP3    H153711   5.686   1.832   5.070  3.0192  0.0497  1.1874
10740TIP3    H253712   5.705   1.979   5.103 -2.1131  1.4179 -0.9410
10741TIP3   OH253713   2.470   1.310  15.769 -0.3666 -0.4787 -0.7910
10741TIP3    H153714   2.453   1.387  15.823  1.0094 -1.4521  1.1419
10741TIP3    H253715   2.391   1.257  15.778 -0.5243 -0.1966 -0.5060
10742TIP3   OH253716   2.439   1.243  11.573 -0.6661 -0.1769  0.4162
10742TIP3    H153717   2.419   1.285  11.657 -0.0487  1.1528 -0.0739
10742TIP3    H253718   2.364   1.263  11.517 -0.0576  0.9079 -0.0331
10743TIP3   OH253719   0.032   6.017  12.815 -0.0741 -0.2256  0.2873
10743TIP3    H153720   0.094   5.947  12.836  0.0304 -0.6430 -1.3047
10743TIP3    H253721  -0.037   5.974  12.764 -1.5826  0.2766  1.7725
10744TIP3   OH253722   1.318   6.458   2.586 -0.0401 -0.3893  0.1194
10744TIP3    H153723   1.391   6.456   2.649 -0.8117  1.7963  1.2063
10744TIP3    H253724   1.242   6.432   2.637 -0.7855  2.0171  0.3668
10745TIP3   OH253725   5.415   1.344   4.624  0.2814 -0.2057  0.1734
10745TIP3    H153726   5.469   1.273   4.659 -0.8669 -0.0359  2.4237
10745TIP3    H253727   5.433   1.419   4.681 -0.7289  0.4652 -0.3673
10746TIP3   OH253728   6.099   4.264  15.967 -0.6898 -0.2124  0.3978
10746TIP3    H153729   6.060   4.342  16.005 -1.6730  0.2174 -1.3914
10746TIP3    H253730   6.033   4.196  15.978 -0.3914 -0.4497  0.7353
10747TIP3   OH253731   2.531   4.343  16.725  0.0350 -0.0306 -0.1538
10747TIP3    H153732   2.462   4.375  16.784 -0.6915 -2.2654  0.3131
10747TIP3    H253733   2.521   4.395  16.646 -0.4913  1.4640  0.8527
10748TIP3   OH253734   6.289   6.260  16.182 -0.4618 -0.0923 -0.1231
10748TIP3    H153735   6.290   6.214  16.266 -3.1846  0.9057  0.5580
10748TIP3    H253736   6.336   6.202  16.122  1.0722 -1.0897  1.9324
10749TIP3   OH253737   2.664   5.856   1.563 -0.2961  0.3062  0.7601
10749TIP3    H153738   2.648   5.815   1.477  0.0838  0.7996  0.4498
10749TIP3    H253739   2.587   5.832   1.615 -1.6578  1.8773 -0.4184
10750TIP3   OH253740   6.180   0.900   1.544 -0.0792  0.2254 -0.3943
10750TIP3    H153741   6.097   0.859   1.522 -1.5742  0.7504  3.4395
10750TIP3    H253742   6.180   0.982   1.496 -1.7270  0.1448 -0.5855
10751TIP3   OH253743   1.638   4.385  15.501 -0.4937  0.4441  0.0029
10751TIP3    H153744   1.592   4.334  15.567 -0.2893 -2.0572 -1.6257
10751TIP3    H253745   1.578   4.456  15.479 -1.8820 -0.4758  0.6736
10752TIP3   OH253746   4.214   0.406   3.707 -0.3949  0.0390 -0.2838
10752TIP3    H153747   4.194   0.326   3.755  0.5649 -0.1767 -0.2357
10752TIP3    H253748   4.132   0.455   3.708 -0.9060 -0.7936 -0.0380
10753TIP3   OH253749   1.386   4.125   4.396 -0.5366  0.1504 -0.3960
10753TIP3    H153750   1.452   4.089   4.338  1.3168  1.0923  1.0250
10753TIP3    H253751   1.372   4.057   4.462 -0.3117  0.2834 -0.2071
10754TIP3   OH253752   2.730   1.888   4.407  0.1493  0.3445 -0.9559
10754TIP3    H153753   2.820   1.899   4.438 -0.0678  0.8717 -0.4774
10754TIP3    H253754   2.696   1.978   4.401 -0.8042  0.0993  0.2998
10755TIP3   OH253755   2.038   6.226  16.346 -0.5362  0.2250 -0.4813
10755TIP3    H153756   2.131   6.232  16.366 -0.7661 -0.3034  0.8246
10755TIP3    H253757   2.011   6.316  16.331  0.1372  0.4018 -0.6949
10756TIP3   OH253758   1.452   5.515   1.976  0.6315  0.0307  0.2411
10756TIP3    H153759   1.404   5.433   1.984 -0.2479  0.5733  0.5932
10756TIP3    H253760   1.540   5.494   2.008  0.6254 -0.9503 -0.3529
10757TIP3   OH253761   4.785   0.033   4.732  0.0904 -0.1453 -0.6694
10757TIP3    H153762   4.810   0.123   4.711 -0.6203  0.1949 -0.1002
10757TIP3    H253763   4.740   0.040   4.816  0.0021 -1.0345 -0.6358
10758TIP3   OH253764   5.395   0.601   4.368  0.7232  0.0089  0.4881
10758TIP3    H153765   5.387   0.659   4.292 -0.3814  0.4484  0.9243
10758TIP3    H253766   5.476   0.552   4.352 -1.1540 -2.4974 -2.7850
10759TIP3   OH253767   1.433   5.658   2.740 -0.4576 -0.2471  0.4619
10759TIP3    H153768   1.468   5.653   2.651 -2.3684  0.4956 -0.4123
10759TIP3    H253769   1.422   5.752   2.756 -1.8421 -0.4247  0.7160
10760TIP3   OH253770   2.609   5.890   5.596  0.2265  0.5465 -0.2169
10760TIP3    H153771   2.601   5.881   5.691  1.8944  0.9268 -0.0014
10760TIP3    H253772   2.598   5.984   5.580  0.6994  0.5959 -0.2892
10761TIP3   OH253773   6.832   2.811   0.771 -0.3940  0.0283 -0.5404
10761TIP3    H153774   6.858   2.898   0.739 -0.2080  0.0034 -0.4562
10761TIP3    H253775   6.819   2.824   0.865 -0.2729 -0.0595 -0.5129
10762TIP3   OH253776   5.132   2.776  14.372  0.5395 -0.2257  0.4897
10762TIP3    H153777   5.126   2.765  14.277  0.9420  0.8309  0.3276
10762TIP3    H253778   5.053   2.825  14.395  1.6765  1.7854  0.3040
10763TIP3   OH253779   4.164   4.668   1.729  0.0956 -0.9274 -0.3695
10763TIP3    H153780   4.079   4.646   1.768 -0.4401  1.6652  0.1261
10763TIP3    H253781   4.150   4.662   1.635 -0.8284  0.0303 -0.3044
10764TIP3   OH253782   2.898   3.289  11.477 -0.1752  0.4128 -0.2074
10764TIP3    H153783   2.884   3.206  11.432 -0.3937  0.3477 -0.0211
10764TIP3    H253784   2.878   3.271  11.569  0.2367  0.5547 -0.0877
10765TIP3   OH253785   6.677   0.799   1.806  0.5437  0.1202  0.2691
10765TIP3    H153786   6.670   0.881   1.756  0.1301 -0.5199 -0.7557
10765TIP3    H253787   6.679   0.731   1.739  0.3535 -0.7488  1.1314
10766TIP3   OH253788   0.561   3.196   2.167 -0.1606  0.1660 -0.4970
10766TIP3    H153789   0.625   3.134   2.203 -1.0878 -0.4599  0.1019
10766TIP3    H253790   0.482   3.181   2.217  0.0521  3.0808  0.9056
10767TIP3   OH253791   6.004   6.116   5.719 -0.1007  0.4308 -0.0198
10767TIP3    H153792   5.932   6.140   5.777  1.3205 -2.5029  3.3050
10767TIP3    H253793   5.964   6.111   5.632 -2.8492  2.9677  0.9153
10768TIP3   OH253794   2.131   0.258  10.706  0.0593  0.2126  0.7447
10768TIP3    H153795   2.041   0.229  10.693  0.3902  0.1751 -2.0893
10768TIP3    H253796   2.138   0.337  10.654  1.7853 -0.0349  0.5528
10769TIP3   OH253797   6.528   3.189   1.496 -0.4064 -0.2056  0.2023
10769TIP3    H153798   6.595   3.254   1.520  0.0863 -0.3761 -0.6486
10769TIP3    H253799   6.481   3.172   1.577  1.9522 -1.6690  1.3895
10770TIP3   OH253800   2.173   1.624   4.343  0.0425  0.3086 -0.2345
10770TIP3    H153801   2.142   1.571   4.269  0.5858 -2.7730  1.5383
10770TIP3    H253802   2.266   1.600   4.351  0.3917  1.8219  0.4782
10771TIP3   OH253803   4.817   4.829  11.988 -0.0819  0.4010  0.0317
10771TIP3    H153804   4.774   4.821  12.073 -0.2730 -0.4495 -0.1411
10771TIP3    H253805   4.863   4.746  11.976  0.9355  0.9690 -0.1617
10772TIP3   OH253806   5.898   2.614   4.747  0.3874 -0.3107 -0.1460
10772TIP3    H153807   5.892   2.524   4.716 -1.2510 -0.7827  1.3852
10772TIP3    H253808   5.832   2.661   4.697 -0.4103 -0.5020  0.6999
10773TIP3   OH253809   5.317   5.169   0.406  0.0244 -0.1564  0.1434
10773TIP3    H153810   5.269   5.252   0.413  0.7628  0.4140 -1.2071
10773TIP3    H253811   5.291   5.134   0.321  1.9755  0.1845 -0.6355
10774TIP3   OH253812   6.653   0.637  11.301 -0.0925  0.0955  0.0527
10774TIP3    H153813   6.689   0.597  11.222 -1.8991  1.6434 -1.6577
10774TIP3    H253814   6.701   0.718  11.312  0.3883 -0.2783  0.7741
10775TIP3   OH253815   1.130   0.232   1.981 -0.6420  0.7745 -0.2552
10775TIP3    H153816   1.170   0.164   1.926 -0.3284 -0.9980  2.0140
10775TIP3    H253817   1.036   0.215   1.976 -0.5818  0.3278  0.1143
10776TIP3   OH253818   5.283   5.707   0.491 -0.1425 -0.0341 -0.5317
10776TIP3    H153819   5.271   5.754   0.573 -0.7673  1.1640 -1.2843
10776TIP3    H253820   5.249   5.619   0.509 -3.0117  1.0005 -0.2840
10777TIP3   OH253821   5.611   5.135   0.997  0.5049  0.4776 -0.4962
10777TIP3    H153822   5.523   5.172   0.988  0.6034  0.8923  0.1878
10777TIP3    H253823   5.667   5.209   1.016  0.3081 -0.1594  3.4971
10778TIP3   OH253824   6.287   0.323   2.921  0.8163 -0.5325  0.1222
10778TIP3    H153825   6.340   0.277   2.855 -0.1721 -2.3271  0.5124
10778TIP3    H253826   6.197   0.317   2.888  0.8283  3.6882 -1.2498
10779TIP3   OH253827   1.698   6.793   3.224  0.1718 -0.7986  0.4864
10779TIP3    H153828   1.733   6.777   3.136  0.3586  1.0066  0.1778
10779TIP3    H253829   1.631   6.726   3.237 -1.4264  0.1734 -1.9599
10780TIP3   OH253830   2.295   5.816  11.382 -0.3082 -0.4083  0.6846
10780TIP3    H153831   2.358   5.854  11.443  0.2267 -0.7043  0.3248
10780TIP3    H253832   2.225   5.782  11.438  0.2246 -0.7643  1.1375
10781TIP3   OH253833   6.546   3.803   3.954 -0.2194  0.4913 -0.2318
10781TIP3    H153834   6.578   3.747   4.024 -0.5707 -1.6523 -1.6699
10781TIP3    H253835   6.617   3.802   3.889 -0.5656  1.0781 -0.6235
10782TIP3   OH253836   4.079   0.626  11.379  0.0225  0.1124 -0.3319
10782TIP3    H153837   4.077   0.567  11.454  0.4525  0.7783  0.2153
10782TIP3    H253838   4.151   0.594  11.324 -1.0509 -1.1066 -1.0947
10783TIP3   OH253839   4.619   0.130   1.615  0.6287  0.0766 -0.3066
10783TIP3    H153840   4.670   0.168   1.687 -0.7208  0.9760  0.2006
10783TIP3    H253841   4.634   0.189   1.541  1.4546 -0.4583 -0.5749
10784TIP3   OH253842   6.527   1.243   3.123 -0.2157 -0.4256 -0.4686
10784TIP3    H153843   6.451   1.273   3.171  0.4538 -1.3187  1.2194
10784TIP3    H253844   6.491   1.184   3.056 -0.9773 -1.1891  0.5904
10785TIP3   OH253845   2.710   1.586   3.401  0.3373  0.1341  0.2935
10785TIP3    H153846   2.720   1.641   3.478 -0.0434 -1.5839  1.6229
10785TIP3    H253847   2.670   1.505   3.434  0.5107 -0.7985 -1.6446
10786TIP3   OH253848   4.536   6.423   0.532  0.0705 -0.5208 -0.0926
10786TIP3    H153849   4.588   6.359   0.484  0.1807 -0.4705 -0.0394
10786TIP3    H253850   4.447   6.386   0.532 -0.2215  0.1054 -1.5051
10787TIP3   OH253851   4.033   1.334  14.178  0.6259  0.1876  0.3440
10787TIP3    H153852   4.107   1.394  14.169 -1.1560  2.2794 -1.9392
10787TIP3    H253853   4.007   1.315  14.088 -1.6217 -0.4392  1.0579
10788TIP3   OH253854   6.646   0.706   3.396  0.4007 -0.6861 -0.6792
10788TIP3    H153855   6.672   0.625   3.352  0.1213 -1.3724  0.3845
10788TIP3    H253856   6.616   0.763   3.325  0.7775 -1.4392 -1.4656
10789TIP3   OH253857   1.502   2.356  11.358  0.8412 -0.4122  0.3451
10789TIP3    H153858   1.575   2.342  11.297  0.1396 -0.1370 -0.5886
10789TIP3    H253859   1.452   2.274  11.354  0.3138 -0.0811 -0.1461
10790TIP3   OH253860   4.006   2.069  12.010 -0.2144 -0.2258 -0.3295
10790TIP3    H153861   4.048   2.154  11.999  1.3939 -1.1438 -1.8314
10790TIP3    H253862   3.924   2.077  11.961  0.0502  0.3823 -0.6851
10791TIP3   OH253863   2.477   2.997  14.777 -0.2109 -0.5801 -0.3048
10791TIP3    H153864   2.558   2.962  14.813 -0.4249  0.5438  1.3862
10791TIP3    H253865   2.450   3.064  14.839 -2.1351 -0.5066 -1.1417
10792TIP3   OH253866   2.414   5.558   2.620 -0.3190 -0.1522  0.3687
10792TIP3    H153867   2.368   5.576   2.701  1.0438 -1.6292  1.5538
10792TIP3    H253868   2.356   5.589   2.551 -0.7458  2.8542  1.9063
10793TIP3   OH253869   0.766   2.075   5.951 -0.2831  1.1280  0.5109
10793TIP3    H153870   0.672   2.069   5.968 -0.1270  1.9485  1.7244
10793TIP3    H253871   0.781   2.167   5.929 -0.1063  0.5669 -2.0184
10794TIP3   OH253872   3.597   0.335  10.929 -0.1088 -0.4719  0.8070
10794TIP3    H153873   3.546   0.322  10.849  0.2054  0.5815  0.4269
10794TIP3    H253874   3.532   0.344  10.998 -0.4243  0.2927  0.4138
10795TIP3   OH253875   5.654   3.136  10.985 -0.3908  0.0296  0.5691
10795TIP3    H153876   5.691   3.087  10.911  0.1067  0.4015  0.5654
10795TIP3    H253877   5.586   3.079  11.019  0.2967 -0.7533  0.6763
10796TIP3   OH253878   2.333   6.157   0.860 -0.1764 -0.2326  0.3146
10796TIP3    H153879   2.266   6.140   0.927  0.1780 -0.1556  0.6934
10796TIP3    H253880   2.324   6.085   0.798 -0.9017  0.0133  0.1309
10797TIP3   OH253881   5.631   2.161   4.125 -0.0550 -0.2261 -0.6681
10797TIP3    H153882   5.707   2.217   4.109  0.5128  0.0706  2.4361
10797TIP3    H253883   5.563   2.221   4.154 -0.9049 -0.6954 -1.6629
10798TIP3   OH253884   4.778   4.945  14.650  0.1723 -0.0550  0.1001
10798TIP3    H153885   4.810   5.034  14.658 -0.9262  0.4385 -0.6381
10798TIP3    H253886   4.770   4.931  14.555  0.4536 -0.9802  0.2068
10799TIP3   OH253887   3.404   1.897  13.393  0.2778 -0.4762 -0.4771
10799TIP3    H153888   3.361   1.944  13.465 -1.9050 -0.2562 -1.8102
10799TIP3    H253889   3.425   1.811  13.430 -0.1486 -0.1323  0.6228
10800TIP3   OH253890   4.604   1.281  17.050 -0.4575 -0.4031 -0.3144
10800TIP3    H153891   4.607   1.365  17.005  2.1091  0.0698  0.5726
10800TIP3    H253892   4.634   1.218  16.985  2.4066  0.1586  0.3103
10801TIP3   OH253893   3.575   4.354  13.224  0.5539  0.7869 -0.2160
10801TIP3    H153894   3.564   4.259  13.230  0.0494  0.9152  1.5003
10801TIP3    H253895   3.637   4.367  13.153 -1.3651 -0.6657 -2.3103
10802TIP3   OH253896   3.566   5.274   0.942 -0.2048 -0.0912  0.5726
10802TIP3    H153897   3.604   5.191   0.913 -0.9913 -0.3466  0.2598
10802TIP3    H253898   3.617   5.341   0.896 -0.0043 -0.4201  0.3084
10803TIP3   OH253899   2.428   1.066   0.044  0.1690 -0.2986  0.0884
10803TIP3    H153900   2.334   1.050   0.056 -0.0702 -0.9960 -2.2569
10803TIP3    H253901   2.456   1.103   0.128 -2.1556 -0.1833  0.9079
10804TIP3   OH253902   0.670   4.900   1.361 -0.0964  0.6039 -0.5182
10804TIP3    H153903   0.585   4.868   1.392 -0.8581  1.5475 -1.5801
10804TIP3    H253904   0.684   4.981   1.410 -0.0567  0.7166 -0.7145
10805TIP3   OH253905   5.287   3.468   1.428  0.0952 -0.1282 -0.4118
10805TIP3    H153906   5.210   3.418   1.402  0.4391 -0.2529 -1.2383
10805TIP3    H253907   5.350   3.453   1.357  0.1460  1.6374 -0.7894
10806TIP3   OH253908   3.090   6.448   1.335 -0.3185  0.1475 -0.1795
10806TIP3    H153909   3.181   6.453   1.365 -0.4146 -0.2571  0.1790
10806TIP3    H253910   3.084   6.516   1.268  0.1913  0.3202 -0.0566
10807TIP3   OH253911   6.047   0.965   2.574  0.2071 -0.0541  0.3022
10807TIP3    H153912   6.064   1.032   2.509 -0.7756  1.6516  1.7132
10807TIP3    H253913   6.120   0.971   2.636 -0.5854  0.7413  1.1983
10808TIP3   OH253914   4.149   1.832   5.291  0.4410  0.2273  0.1143
10808TIP3    H153915   4.121   1.884   5.216  1.6669  1.5936  0.5428
10808TIP3    H253916   4.245   1.839   5.290  0.6761 -2.0605  0.2105
10809TIP3   OH253917   6.223   6.753  14.186 -0.5683 -0.0763 -0.2164
10809TIP3    H153918   6.231   6.759  14.090 -2.0826  0.6580 -0.3184
10809TIP3    H253919   6.305   6.790  14.219  0.5319 -1.4800 -1.2144
10810TIP3   OH253920   6.775   1.367   0.196 -0.3816 -0.1412  0.8684
10810TIP3    H153921   6.730   1.451   0.209 -0.5721 -0.2312  0.7891
10810TIP3    H253922   6.706   1.306   0.172 -0.1522 -0.1731  0.2690
10811TIP3   OH253923   2.522   1.085  12.259  0.2937  0.1692 -0.4837
10811TIP3    H153924   2.492   1.130  12.338 -1.9613  1.0527 -1.7552
10811TIP3    H253925   2.444   1.044  12.223  1.1162  0.2650 -2.5482
10812TIP3   OH253926   1.297   1.371  16.721  0.5175 -0.2520  0.0294
10812TIP3    H153927   1.230   1.325  16.671  0.7104 -0.1816 -0.2957
10812TIP3    H253928   1.373   1.313  16.718  0.4484 -0.3666  0.4637
10813TIP3   OH253929   3.408   0.678   0.682 -0.6549  0.1461 -0.3470
10813TIP3    H153930   3.371   0.761   0.712 -2.9999 -0.9467  0.0183
10813TIP3    H253931   3.499   0.681   0.711 -1.0989  1.9016  1.0927
10814TIP3   OH253932   5.635   3.864  13.200 -0.2579 -0.6098 -0.8351
10814TIP3    H153933   5.705   3.817  13.247 -0.7491 -0.3080  0.2297
10814TIP3    H253934   5.672   3.951  13.183 -1.1180  0.3947  1.8274
10815TIP3   OH253935   4.821   3.775   1.159 -0.1676  0.1191 -0.0653
10815TIP3    H153936   4.847   3.815   1.243 -0.5156 -1.7934  1.0019
10815TIP3    H253937   4.781   3.847   1.110  1.5510  1.7016  0.6959
10816TIP3   OH253938   1.895   4.263   3.368  0.4040 -0.3276 -0.1519
10816TIP3    H153939   1.800   4.254   3.364  0.3318  0.1875  0.3496
10816TIP3    H253940   1.912   4.301   3.454  1.2067 -2.2486  0.6093
10817TIP3   OH253941   1.398   0.892   0.116  0.5287  0.3365 -0.1558
10817TIP3    H153942   1.331   0.859   0.056 -0.1479  0.4541  0.5229
10817TIP3    H253943   1.370   0.981   0.137  0.0356 -0.1393  1.3554
10818TIP3   OH253944   2.389   1.365  16.526  0.1726 -0.3482  0.3028
10818TIP3    H153945   2.425   1.378  16.613 -1.9453 -0.0745  1.1937
10818TIP3    H253946   2.443   1.420  16.469 -0.5700  2.3655  2.0166
10819TIP3   OH253947   4.348   1.946   5.718 -0.0811 -0.2286  0.3619
10819TIP3    H153948   4.391   2.024   5.754 -1.2753 -0.3336  2.1571
10819TIP3    H253949   4.414   1.877   5.726  0.5726  0.3241 -0.1103
10820TIP3   OH253950   4.811   2.135  13.231  0.3941  0.2404  0.2694
10820TIP3    H153951   4.760   2.163  13.155 -3.8655  3.6932  3.8668
10820TIP3    H253952   4.857   2.214  13.260 -0.3510 -0.1278  2.7338
10821TIP3   OH253953   2.949   3.651   4.792  0.0041  0.2019  0.1275
10821TIP3    H153954   2.980   3.699   4.869  0.3703  1.6031 -0.8594
10821TIP3    H253955   2.996   3.568   4.795 -0.9513 -0.3243  2.0942
10822TIP3   OH253956   0.864   0.901   2.778  0.2989 -0.0968  0.0235
10822TIP3    H153957   0.956   0.892   2.751  0.2856  1.5192 -0.7040
10822TIP3    H253958   0.854   0.995   2.793 -0.9763 -0.3847  1.1399
10823TIP3   OH253959   2.782   1.441   1.907  0.3246 -0.2100 -0.5864
10823TIP3    H153960   2.870   1.468   1.881  0.1261  0.5257 -0.5209
10823TIP3    H253961   2.796   1.364   1.963  1.0924  1.2225  1.2763
10824TIP3   OH253962   1.876   0.471  13.987 -0.0913  0.1848 -0.3228
10824TIP3    H153963   1.822   0.428  13.920  2.1910 -0.6608 -1.7613
10824TIP3    H253964   1.916   0.399  14.035 -0.1214  0.7825  0.6053
10825TIP3   OH253965   6.695   1.220  16.861  0.1537  0.2403  0.6069
10825TIP3    H153966   6.627   1.190  16.921 -0.9041  2.3374  0.5456
10825TIP3    H253967   6.723   1.304  16.897  3.2962 -0.8572  1.0370
10826TIP3   OH253968   2.938   2.004   1.962 -0.1141 -0.4452 -0.6057
10826TIP3    H153969   2.949   2.099   1.963  2.9538 -0.6875  0.0354
10826TIP3    H253970   2.910   1.983   2.051 -0.5293 -0.1788 -0.6699
10827TIP3   OH253971   1.604   6.773  12.049  0.2575 -0.2374  0.3415
10827TIP3    H153972   1.663   6.836  12.009  0.6128 -0.5168  0.4191
10827TIP3    H253973   1.535   6.826  12.090 -0.7318  0.0311 -1.5696
10828TIP3   OH253974   2.423   6.394   3.398 -0.1652 -0.2482 -0.2567
10828TIP3    H153975   2.383   6.481   3.401  1.8108  0.7037  0.1929
10828TIP3    H253976   2.436   6.370   3.489  1.6175  0.1721 -0.3531
10829TIP3   OH253977   1.037   5.009  16.236  0.1425 -0.1531 -0.3815
10829TIP3    H153978   1.105   5.042  16.296 -1.0737  0.2578  0.8118
10829TIP3    H253979   1.050   5.061  16.156  2.5589 -1.5406 -0.9988
10830TIP3   OH253980   5.716   4.369   1.164 -0.4296 -0.1948  0.6673
10830TIP3    H153981   5.755   4.451   1.133 -0.0162 -0.4800  0.4145
10830TIP3    H253982   5.789   4.325   1.209 -0.8183 -0.1341  1.3705
10831TIP3   OH253983   1.800   2.205  14.336 -0.3710 -0.2768  0.0888
10831TIP3    H153984   1.863   2.151  14.289  0.4591 -0.7480  1.6938
10831TIP3    H253985   1.777   2.275  14.274 -1.0467 -2.0933 -1.8302
10832TIP3   OH253986   1.781   5.561  13.147 -0.2703  0.4574 -0.0666
10832TIP3    H153987   1.873   5.563  13.120 -0.4291 -1.0121 -0.8394
10832TIP3    H253988   1.752   5.473  13.123 -1.6239  0.5785  1.0416
10833TIP3   OH253989   5.810   1.737  13.790  0.1347  0.1807  0.1277
10833TIP3    H153990   5.767   1.807  13.840  0.6511  1.7501 -1.5165
10833TIP3    H253991   5.793   1.760  13.699  1.4897 -1.1179 -0.4764
10834TIP3   OH253992   2.067   4.115   4.775  0.4738  0.5657 -0.4410
10834TIP3    H153993   1.995   4.103   4.713 -1.0530 -0.3569  1.4213
10834TIP3    H253994   2.103   4.028   4.787 -0.0322  0.5089  0.8330
10835TIP3   OH253995   6.073   1.951  11.360  0.6492  0.6335  0.1630
10835TIP3    H153996   6.062   2.042  11.390 -0.7176  0.4166  0.4137
10835TIP3    H253997   5.995   1.935  11.307  0.6469 -0.5407  0.5015
10836TIP3   OH253998   2.107   2.410   4.140  0.1869  0.3079 -0.4120
10836TIP3    H153999   2.184   2.372   4.098  0.3168 -0.8077  0.7521
10836TIP3    H254000   2.038   2.407   4.074  0.8814  0.4132 -1.1487
10837TIP3   OH254001   0.222   3.801   0.447  0.1946  0.3048 -0.5127
10837TIP3    H154002   0.171   3.882   0.449 -0.1008  0.1169  0.7993
10837TIP3    H254003   0.211   3.767   0.359 -1.2814  0.7010 -0.4958
10838TIP3   OH254004   0.394   0.913   5.321  0.2574  0.3163  0.2948
10838TIP3    H154005   0.312   0.866   5.309  0.9169 -0.9788  0.6873
10838TIP3    H254006   0.398   0.974   5.246 -0.4815 -0.4491 -0.3874
10839TIP3   OH254007   6.686   5.344   3.856  0.1319 -0.3997  0.1419
10839TIP3    H154008   6.659   5.366   3.945 -0.9854  0.0055 -0.2929
10839TIP3    H254009   6.728   5.258   3.865 -0.3455 -0.5531  0.9909
10840TIP3   OH254010   1.942   0.269  16.389  0.5058 -0.0277 -0.2235
10840TIP3    H154011   1.939   0.184  16.347 -0.6410  0.7068 -1.7655
10840TIP3    H254012   1.850   0.291  16.405  0.8224  0.5351  1.0229
10841TIP3   OH254013   6.272   3.797   5.759  0.8357  0.1890  0.3208
10841TIP3    H154014   6.270   3.713   5.805  0.0060  0.3958  0.6791
10841TIP3    H254015   6.260   3.775   5.667  0.9437 -0.1123  0.3797
10842TIP3   OH254016   5.338   3.540   3.638  0.3942 -0.6080  0.4897
10842TIP3    H154017   5.293   3.576   3.715  1.0719 -0.0733  0.6388
10842TIP3    H254018   5.407   3.603   3.619  0.8451 -1.2340  0.0308
10843TIP3   OH254019   3.545   1.215  14.402  0.3465 -0.1896  0.5064
10843TIP3    H154020   3.528   1.137  14.455  1.6130 -1.8876 -1.4389
10843TIP3    H254021   3.476   1.276  14.427 -1.1697 -2.1935  1.5638
10844TIP3   OH254022   4.943   6.262   4.003  0.2464  0.3127 -0.0646
10844TIP3    H154023   4.906   6.346   4.030 -1.0043 -0.5100  0.9198
10844TIP3    H254024   4.867   6.212   3.973  0.9999 -0.4078 -0.8201
10845TIP3   OH254025   4.668   0.783  12.162 -0.5857 -0.1992 -0.3589
10845TIP3    H154026   4.580   0.794  12.125 -0.6139 -2.0760 -0.9757
10845TIP3    H254027   4.670   0.691  12.191  0.5273  0.3501  1.4593
10846TIP3   OH254028   3.807   1.148   4.712  0.0775  0.7638 -0.6419
10846TIP3    H154029   3.752   1.176   4.785  2.5485  2.8159  0.6001
10846TIP3    H254030   3.807   1.223   4.652  0.3367  0.2089 -1.3492
10847TIP3   OH254031   0.451   1.469   2.620  0.5357 -0.3278 -0.0670
10847TIP3    H154032   0.437   1.490   2.527  1.6756  1.9275  0.2131
10847TIP3    H254033   0.423   1.378   2.628  0.4550 -0.6064 -2.6406
10848TIP3   OH254034   0.474   4.458   3.949  0.1058 -0.7171 -0.2637
10848TIP3    H154035   0.554   4.471   4.000 -1.0922 -2.3707  2.2894
10848TIP3    H254036   0.503   4.413   3.870  2.0316  1.6955 -1.0542
10849TIP3   OH254037   2.556   5.432  13.407  0.1852  0.0657  0.2027
10849TIP3    H154038   2.529   5.449  13.497  0.3207  0.1824  0.2203
10849TIP3    H254039   2.526   5.342  13.389  0.7549 -0.2064  0.5894
10850TIP3   OH254040   3.506   5.030  13.913  0.6107  0.1325 -0.0463
10850TIP3    H154041   3.431   4.975  13.934  0.1397  0.3239 -1.1628
10850TIP3    H254042   3.570   5.010  13.981 -0.3442 -0.2298  0.7723
10851TIP3   OH254043   5.309   6.230  14.907  0.6197 -0.2014  0.8608
10851TIP3    H154044   5.361   6.186  14.974 -0.8140  0.0502  2.1907
10851TIP3    H254045   5.221   6.232  14.943 -0.1048  0.3541 -0.8586
10852TIP3   OH254046   2.682   4.006   4.304  0.0903  0.2963 -0.6552
10852TIP3    H154047   2.721   4.093   4.319  3.3273 -1.5309  3.6342
10852TIP3    H254048   2.752   3.957   4.261 -0.0498 -1.2393  0.7966
10853TIP3   OH254049   3.318   5.353  11.435 -0.3168  0.2740 -0.6576
10853TIP3    H154050   3.328   5.444  11.463 -0.4103  0.1555 -0.2404
10853TIP3    H254051   3.262   5.313  11.501  2.0160 -0.8181  0.7940
10854TIP3   OH254052   6.650   4.725  10.900  0.3390  0.7191  0.5069
10854TIP3    H154053   6.607   4.674  10.832 -0.0762  0.4149  0.9961
10854TIP3    H254054   6.612   4.813  10.892 -1.7344  0.0139  2.1073
10855TIP3   OH254055   6.586   2.652   5.884  0.0038  0.4952  0.0674
10855TIP3    H154056   6.590   2.630   5.977  0.4015  0.5057  0.0544
10855TIP3    H254057   6.505   2.704   5.876  0.3172  1.0832  0.5352
10856TIP3   OH254058   0.530   6.232   5.779 -0.2624 -0.0358  0.1421
10856TIP3    H154059   0.476   6.170   5.828 -2.5653  0.1549 -1.9356
10856TIP3    H254060   0.574   6.178   5.713 -0.0088  0.1873  0.1250
10857TIP3   OH254061   2.116   0.143  17.074 -0.6497 -0.2366 -0.2019
10857TIP3    H154062   2.075   0.095  17.002 -1.8510  1.0016 -0.3953
10857TIP3    H254063   2.102   0.088  17.151 -2.2017 -0.1267 -0.3752
10858TIP3   OH254064   3.657   1.167   5.659  0.7270 -0.0026  0.1029
10858TIP3    H154065   3.640   1.261   5.649 -0.3936 -0.3916 -2.7180
10858TIP3    H254066   3.676   1.155   5.752  2.2568  3.2061  0.3288
10859TIP3   OH254067   2.838   1.270  11.213 -0.3765 -0.2998 -0.8810
10859TIP3    H154068   2.772   1.322  11.168 -0.5199  1.0081  0.7244
10859TIP3    H254069   2.896   1.238  11.143 -2.4159 -1.1492 -2.2822
10860TIP3   OH254070   0.435   6.651  12.222 -0.1453  0.2944 -0.4246
10860TIP3    H154071   0.424   6.744  12.201  3.9466  1.0417 -0.0482
10860TIP3    H254072   0.462   6.650  12.314 -2.0483 -1.5158  0.1852
10861TIP3   OH254073   1.421   4.355   3.526  0.0931  0.0589  0.5033
10861TIP3    H154074   1.403   4.398   3.609 -0.3221 -1.8909  1.4831
10861TIP3    H254075   1.335   4.328   3.494  0.4719 -1.8154  0.9562
10862TIP3   OH254076   5.587   1.959   3.465  0.0072 -0.3703  0.1931
10862TIP3    H154077   5.519   2.023   3.444 -0.8039 -1.5009 -0.8006
10862TIP3    H254078   5.542   1.874   3.458  1.3666 -1.1121  0.2046
10863TIP3   OH254079   0.314   1.564   1.453 -0.7232 -0.4732  0.0280
10863TIP3    H154080   0.257   1.584   1.527 -0.5781  0.5697 -0.1395
10863TIP3    H254081   0.388   1.622   1.463 -0.5925 -0.4833 -0.8198
10864TIP3   OH254082   6.429   3.961   5.178 -0.1558 -0.1366  0.3118
10864TIP3    H154083   6.358   3.956   5.242 -1.2564 -0.4721 -0.8847
10864TIP3    H254084   6.404   3.899   5.109 -0.4181  2.0781 -1.7532
10865TIP3   OH254085   6.574   2.037   6.585  0.6450  0.0737  0.1811
10865TIP3    H154086   6.502   2.051   6.646 -1.0961  0.2489 -1.8027
10865TIP3    H254087   6.628   1.970   6.626 -0.7622 -0.2288  1.6367
10866TIP3   OH254088   0.492   3.963   1.510  0.0247 -0.0644 -0.3841
10866TIP3    H154089   0.556   4.005   1.568  1.0069  0.0648 -1.5273
10866TIP3    H254090   0.415   4.019   1.515  1.1108  1.6055 -1.4379
10867TIP3   OH254091   0.270   2.679  11.405  0.0958  0.0543 -0.0661
10867TIP3    H154092   0.335   2.616  11.436  0.1434 -0.0640 -0.3986
10867TIP3    H254093   0.320   2.755  11.377  0.1599 -0.3151 -0.9997
10868TIP3   OH254094   5.805   5.353   1.579  0.0631 -0.4572 -0.4576
10868TIP3    H154095   5.851   5.417   1.634 -0.8649  1.8870 -2.2341
10868TIP3    H254096   5.875   5.300   1.540  0.9549  0.1606  0.2568
10869TIP3   OH254097   0.871   2.768  15.519 -0.2722 -0.1166 -0.3895
10869TIP3    H154098   0.840   2.718  15.595  0.6268 -0.2220 -0.0710
10869TIP3    H254099   0.851   2.859  15.541 -1.3815 -0.2725 -0.7090
10870TIP3   OH254100   4.625   2.865  15.673 -0.3434 -0.2978  0.0060
10870TIP3    H154101   4.555   2.882  15.737  2.1180  1.1775  2.5433
10870TIP3    H254102   4.629   2.769  15.667 -1.6750 -0.4375  0.8202
10871TIP3   OH254103   5.198   2.393   5.725 -0.2695  0.6372  0.0835
10871TIP3    H154104   5.203   2.305   5.763 -0.0314  1.1659  1.3156
10871TIP3    H254105   5.130   2.437   5.775  1.2482  1.9076  1.1411
10872TIP3   OH254106   4.690   2.509   2.570  0.4935 -0.4935 -0.0972
10872TIP3    H154107   4.728   2.582   2.521 -1.1196  0.7859  0.5018
10872TIP3    H254108   4.597   2.509   2.547  0.2743 -1.7648  0.6659
10873TIP3   OH254109   1.098   4.071  15.440 -0.6844  0.2437  0.2898
10873TIP3    H154110   1.072   4.011  15.510 -0.6932 -1.7779 -1.3477
10873TIP3    H254111   1.016   4.095  15.397 -0.5178 -0.2324 -0.3126
10874TIP3   OH254112   1.083   0.761   3.481  0.0972 -0.2760  0.6502
10874TIP3    H154113   1.164   0.713   3.500  0.9111 -0.0245 -1.8625
10874TIP3    H254114   1.110   0.834   3.425 -1.6376  0.9529  1.3274
10875TIP3   OH254115   6.543   6.367   0.542  0.3066 -0.5588 -0.5881
10875TIP3    H154116   6.473   6.320   0.496 -0.5586 -3.5100  3.1736
10875TIP3    H254117   6.623   6.339   0.498 -0.5487 -1.6137 -1.5444
10876TIP3   OH254118   6.020   2.521   3.141 -0.1157  0.6386  0.0357
10876TIP3    H154119   5.937   2.494   3.102 -1.5575  0.5832  2.9123
10876TIP3    H254120   6.050   2.446   3.191  1.4349  0.8520 -0.4996
10877TIP3   OH254121   1.989   3.861   3.102 -0.2661  0.4364 -0.5598
10877TIP3    H154122   2.057   3.810   3.058  0.6710  0.4235  0.8427
10877TIP3    H254123   1.984   3.943   3.051  0.9848  0.5442 -0.5354
10878TIP3   OH254124   5.317   0.802  13.612  0.2285 -0.3658  0.2212
10878TIP3    H154125   5.354   0.816  13.700  1.0486 -0.7758 -0.0507
10878TIP3    H254126   5.223   0.795  13.627  0.3930 -0.8273  1.1163
10879TIP3   OH254127   2.487   2.600   0.615  0.1101  0.2646  0.0965
10879TIP3    H154128   2.450   2.676   0.660 -1.4123  0.1247 -0.8509
10879TIP3    H254129   2.445   2.600   0.529  0.7062 -1.1811 -0.2263
10880TIP3   OH254130   2.727   0.460   2.773 -0.4961 -0.7257  0.4040
10880TIP3    H154131   2.670   0.385   2.791 -1.3964 -0.4648 -1.1522
10880TIP3    H254132   2.695   0.495   2.690  0.7694  0.5767  0.4216
10881TIP3   OH254133   5.167   4.915   6.400  0.1798 -0.0260 -0.2855
10881TIP3    H154134   5.120   4.928   6.318 -0.5421  0.6205  0.2208
10881TIP3    H254135   5.150   4.824   6.424  0.2333 -0.1582 -0.7465
10882TIP3   OH254136   2.818   0.253   1.669  0.3924  0.0254 -0.3936
10882TIP3    H154137   2.862   0.329   1.631  0.1241  0.0701 -0.6216
10882TIP3    H254138   2.869   0.178   1.640  0.0601  0.0430 -1.0342
10883TIP3   OH254139   4.652   0.012   4.231 -0.0536 -0.0731  0.3512
10883TIP3    H154140   4.655   0.089   4.174  1.0245 -1.1326 -1.1223
10883TIP3    H254141   4.681  -0.060   4.175 -0.5934 -1.4821  1.8029
10884TIP3   OH254142   3.680   6.561   1.638  0.5459  0.1188 -0.4859
10884TIP3    H154143   3.717   6.624   1.575  0.2950 -0.1816 -0.9417
10884TIP3    H254144   3.696   6.601   1.723  0.4195  0.7931 -0.7638
10885TIP3   OH254145   4.250   1.087  14.063 -0.5827 -0.4396 -0.9151
10885TIP3    H154146   4.236   0.993  14.050 -1.7122 -0.0738 -2.7035
10885TIP3    H254147   4.162   1.123  14.069 -0.1578  0.5527 -0.5056
10886TIP3   OH254148   4.691   3.835  12.249 -0.0415 -0.1768 -0.1120
10886TIP3    H154149   4.723   3.771  12.312 -0.4757  0.8908  1.2343
10886TIP3    H254150   4.770   3.877  12.215  0.1459  0.7461  1.3710
10887TIP3   OH254151   3.856   4.352  14.773  0.0598  0.1257 -0.3734
10887TIP3    H154152   3.793   4.412  14.811  0.0067  1.4090 -2.3379
10887TIP3    H254153   3.813   4.318  14.694  1.0057 -0.6555 -0.5775
10888TIP3   OH254154   0.387   3.016  11.576  0.0803 -0.5718 -0.2084
10888TIP3    H154155   0.383   2.996  11.483  1.1155  1.5852 -0.8028
10888TIP3    H254156   0.476   2.992  11.602  0.3899  0.4735 -0.2483
10889TIP3   OH254157   1.875   5.144  14.032 -0.1713  0.3845 -0.1238
10889TIP3    H154158   1.809   5.076  14.042  0.4019  0.0380  1.6337
10889TIP3    H254159   1.827   5.217  13.992 -1.2653 -0.3504 -0.2068
10890TIP3   OH254160   2.899   2.513  12.508  1.0295  0.4627 -0.6123
10890TIP3    H154161   2.989   2.488  12.488  0.4817 -0.3273 -2.2630
10890TIP3    H254162   2.858   2.431  12.535  0.7843  0.8190  0.1292
10891TIP3   OH254163   6.322   4.031   5.934  0.2758  0.5997 -0.2642
10891TIP3    H154164   6.270   3.955   5.907 -0.3685  0.6904  0.7103
10891TIP3    H254165   6.367   4.002   6.013  0.6274  0.9885 -0.3186
10892TIP3   OH254166   5.586   1.202  14.510 -0.1378 -0.0606 -0.2093
10892TIP3    H154167   5.524   1.197  14.438  0.8397  0.9318 -1.1702
10892TIP3    H254168   5.573   1.121  14.560 -3.0820  0.6971  0.4097
10893TIP3   OH254169   0.718   5.109   4.268  0.1115  0.4461  0.2415
10893TIP3    H154170   0.759   5.195   4.281 -0.4086  0.4790  1.8734
10893TIP3    H254171   0.776   5.048   4.313  0.4871 -0.0837 -0.9340
10894TIP3   OH254172   1.506   3.493   2.210  0.2636 -0.6431 -0.0390
10894TIP3    H154173   1.565   3.565   2.233  0.5131 -0.9144  0.1863
10894TIP3    H254174   1.429   3.506   2.265  0.2610 -0.4811 -0.0826
10895TIP3   OH254175   3.515   4.738   2.416 -0.3972  0.2993 -0.7834
10895TIP3    H154176   3.449   4.739   2.485  0.4033 -1.6936  0.0854
10895TIP3    H254177   3.570   4.662   2.436  1.8746  1.5866 -1.7448
10896TIP3   OH254178   2.476   3.761  11.075  0.1311  0.3262  0.6816
10896TIP3    H154179   2.456   3.849  11.042 -0.1986  0.1592  0.4385
10896TIP3    H254180   2.469   3.705  10.998 -1.3677 -0.1889  1.1707
10897TIP3   OH254181   0.660   4.846   6.665 -0.2575 -0.3292 -0.3465
10897TIP3    H154182   0.583   4.873   6.614 -0.5650 -1.7076 -0.6613
10897TIP3    H254183   0.722   4.918   6.654 -0.2634 -0.6131 -2.7969
10898TIP3   OH254184   1.612   0.739  16.346  0.4547  0.3465  0.0029
10898TIP3    H154185   1.545   0.716  16.280 -0.3821  0.6590  0.7276
10898TIP3    H254186   1.658   0.813  16.308  0.8636 -0.3048 -0.8133
10899TIP3   OH254187   3.542   1.553  16.691  0.4138  0.3684 -0.0103
10899TIP3    H154188   3.588   1.483  16.738  0.8015  0.4457 -0.2762
10899TIP3    H254189   3.597   1.630  16.704  0.1747  0.5415 -0.0288
10900TIP3   OH254190   4.800   2.817   2.949 -0.1545 -0.5631  0.1498
10900TIP3    H154191   4.811   2.808   3.044  2.8451 -0.8944 -0.1181
10900TIP3    H254192   4.755   2.901   2.938  2.7202  1.3986  1.8626
10901TIP3   OH254193   5.271   4.272  11.806  0.6558 -0.0939 -0.6084
10901TIP3    H154194   5.198   4.282  11.867  1.0151 -2.0381  0.2128
10901TIP3    H254195   5.289   4.361  11.776  0.0853  0.8832  1.6843
10902TIP3   OH254196   2.892   5.755  16.577  0.1807 -0.4248  0.3772
10902TIP3    H154197   2.921   5.844  16.596 -1.1880  0.1559 -0.1403
10902TIP3    H254198   2.874   5.756  16.483 -0.3455 -1.0917  0.4655
10903TIP3   OH254199   2.711   2.626   1.936 -0.3055 -0.7386  0.0715
10903TIP3    H154200   2.616   2.635   1.942 -0.2893  0.0009 -0.6623
10903TIP3    H254201   2.725   2.536   1.907 -0.7043 -1.3513  1.6603
10904TIP3   OH254202   6.341   5.817   1.004 -0.3099 -0.4600 -0.3219
10904TIP3    H154203   6.421   5.809   1.057 -0.6829  0.3276  0.3903
10904TIP3    H254204   6.311   5.906   1.021  0.5472  0.5208 -3.3169
10905TIP3   OH254205   6.026   5.131  13.774 -0.3018  0.2182 -0.8064
10905TIP3    H154206   5.932   5.109  13.779 -0.4722  1.1335  0.3943
10905TIP3    H254207   6.060   5.110  13.861  0.5012  0.3852 -1.0777
10906TIP3   OH254208   5.780   1.056   2.527  0.2232 -0.3026 -0.5814
10906TIP3    H154209   5.835   1.007   2.588  0.1774  0.6094  0.2190
10906TIP3    H254210   5.828   1.053   2.444  1.5752  0.5759  0.1223
10907TIP3   OH254211   2.902   4.295   2.351  0.3903  0.0244  0.2929
10907TIP3    H154212   2.896   4.273   2.258  1.4410  0.1286  0.1816
10907TIP3    H254213   2.880   4.214   2.397  3.0009 -1.0271 -0.0993
10908TIP3   OH254214   0.202   3.143   4.918 -0.2674 -0.4135  0.6094
10908TIP3    H154215   0.109   3.152   4.937  0.1745  0.0901  2.8210
10908TIP3    H254216   0.223   3.052   4.940 -0.1190 -0.3689  0.6550
10909TIP3   OH254217   2.790   0.741  11.696  0.0958  0.7026  0.4783
10909TIP3    H154218   2.834   0.826  11.684 -0.7487  1.1795  0.6757
10909TIP3    H254219   2.697   0.761  11.687 -0.0502 -0.4513 -0.9406
10910TIP3   OH254220   4.567   1.311   1.434 -0.4764 -0.2838  0.2397
10910TIP3    H154221   4.601   1.251   1.368 -2.2565 -1.2980  0.1742
10910TIP3    H254222   4.472   1.301   1.429 -0.7648  1.4465  1.2741
10911TIP3   OH254223   6.091   3.594  12.357  0.0843  0.4796 -0.8157
10911TIP3    H154224   6.026   3.588  12.427 -0.1576  1.7176 -0.9084
10911TIP3    H254225   6.042   3.629  12.283  0.2593 -1.1503 -1.7264
10912TIP3   OH254226   3.127   2.096  14.987  0.2744 -0.2884  0.4027
10912TIP3    H154227   3.141   2.035  14.915 -1.2597 -1.3123  0.9078
10912TIP3    H254228   3.184   2.065  15.057  0.7108 -0.1432  0.1159
10913TIP3   OH254229   6.409   6.187  15.471 -0.5632  0.0172 -0.1430
10913TIP3    H154230   6.326   6.162  15.510  0.5980  0.6975  3.0801
10913TIP3    H254231   6.435   6.266  15.518  2.5665 -0.9771  0.0409
10914TIP3   OH254232   4.666   4.879   3.905  0.1888 -0.2917  0.2739
10914TIP3    H154233   4.732   4.838   3.849 -1.0396 -1.0147 -0.6666
10914TIP3    H254234   4.661   4.969   3.874  0.8099 -0.1876  0.4472
10915TIP3   OH254235   4.722   3.590  13.977  0.1859 -0.2754 -0.1225
10915TIP3    H154236   4.630   3.611  13.959 -0.0946 -0.3169  1.1430
10915TIP3    H254237   4.722   3.559  14.067  0.9723 -3.2415 -1.0273
10916TIP3   OH254238   0.482   5.934  14.247 -0.2008  0.0717  0.8658
10916TIP3    H154239   0.552   5.998  14.240 -0.1555  0.0022  0.6749
10916TIP3    H254240   0.496   5.874  14.173 -0.8448  0.4423  0.4339
10917TIP3   OH254241   1.916   0.687   2.926 -0.3520  0.1041  0.0751
10917TIP3    H154242   1.979   0.616   2.939  1.6346  1.5515 -1.1871
10917TIP3    H254243   1.900   0.690   2.832 -0.9633  0.8966  0.1833
10918TIP3   OH254244   3.507   4.788  11.164 -0.0085 -0.4086  0.1897
10918TIP3    H154245   3.521   4.698  11.136 -0.7149 -0.0113 -1.6197
10918TIP3    H254246   3.414   4.804  11.144 -0.1475  0.4056  1.4297
10919TIP3   OH254247   6.223   4.361   5.065  0.4895  0.0112 -0.8734
10919TIP3    H154248   6.180   4.319   4.991  1.9394 -0.3774 -1.5425
10919TIP3    H254249   6.310   4.320   5.068  1.3971  1.8440 -0.5917
10920TIP3   OH254250   1.445   1.350   2.430 -0.1504 -0.3940  0.1991
10920TIP3    H154251   1.516   1.287   2.444 -0.9718 -1.1052  1.3390
10920TIP3    H254252   1.460   1.418   2.496 -0.8222 -0.8254  0.8067
10921TIP3   OH254253   2.463   3.863  12.504 -0.2874  0.9620  0.2890
10921TIP3    H154254   2.450   3.931  12.438 -2.5304 -1.9691 -2.6461
10921TIP3    H254255   2.556   3.844  12.502 -0.4159  0.0983 -3.2080
10922TIP3   OH254256   2.744   2.351  13.617 -0.1453  0.3623  0.0095
10922TIP3    H154257   2.762   2.430  13.567  0.7843  0.3533  0.3027
10922TIP3    H254258   2.807   2.353  13.689  1.2939 -1.6017 -1.0725
10923TIP3   OH254259   3.271   5.983  15.784  0.4580 -0.4690  0.5842
10923TIP3    H154260   3.226   5.977  15.868  1.9853  1.3064  1.5826
10923TIP3    H254261   3.329   5.907  15.783 -0.9439 -1.5995  0.1978
10924TIP3   OH254262   6.598   3.133   3.542 -0.4513 -0.0647 -0.0321
10924TIP3    H154263   6.635   3.050   3.572 -0.2963 -0.1120 -0.3522
10924TIP3    H254264   6.669   3.196   3.552 -0.8656  0.2455  1.1503
10925TIP3   OH254265   5.999   2.926   4.397 -0.4011 -0.3214  0.4622
10925TIP3    H154266   5.921   2.923   4.453 -1.0584  1.2738 -0.3068
10925TIP3    H254267   6.052   2.997   4.432  0.4547 -1.0112  0.6186
10926TIP3   OH254268   5.294   3.550  12.757  0.2652  0.6873  0.7074
10926TIP3    H154269   5.297   3.641  12.785 -0.7258  1.0304 -0.2265
10926TIP3    H254270   5.242   3.551  12.676  1.5433 -0.5021 -0.1693
10927TIP3   OH254271   5.783   3.350   5.024 -0.0823  0.1802 -0.6705
10927TIP3    H154272   5.745   3.277   4.975 -0.3861  0.3294 -0.6644
10927TIP3    H254273   5.721   3.422   5.011 -0.7053 -0.0597  0.7647
10928TIP3   OH254274   1.603   3.097  12.234  0.5439 -0.4532 -0.5594
10928TIP3    H154275   1.682   3.103  12.288  0.3432  0.5109 -0.3593
10928TIP3    H254276   1.548   3.169  12.263 -0.3567 -1.0194 -0.8074
10929TIP3   OH254277   4.632   4.925   0.340  0.6393  0.3775  0.4324
10929TIP3    H154278   4.631   4.857   0.273 -0.9234 -0.7800  1.5490
10929TIP3    H254279   4.637   5.007   0.291  0.7689 -0.4746 -1.0324
10930TIP3   OH254280   0.348   5.732  16.183 -0.3955 -0.2430 -0.6034
10930TIP3    H154281   0.421   5.693  16.232 -0.1549  1.5230  0.5199
10930TIP3    H254282   0.271   5.682  16.211  0.2247 -1.5987 -1.1944
10931TIP3   OH254283   4.491   5.973  14.560 -0.4000 -0.0381 -0.1077
10931TIP3    H154284   4.449   5.899  14.604  0.2453 -0.4238 -0.1280
10931TIP3    H254285   4.540   5.933  14.489  0.0530  0.4052 -0.0457
10932TIP3   OH254286   4.195   4.052   2.407 -0.0870 -0.4933 -0.1297
10932TIP3    H154287   4.152   3.969   2.385 -2.5147  0.9728 -1.2451
10932TIP3    H254288   4.152   4.117   2.353  0.3889  1.8478  2.1017
10933TIP3   OH254289   3.419   0.624   1.067 -0.6690  0.2264  0.0509
10933TIP3    H154290   3.417   0.545   1.121 -0.0422  1.3894  1.8558
10933TIP3    H254291   3.485   0.680   1.108 -2.1717  2.3384 -0.2264
10934TIP3   OH254292   0.160   6.787  11.123  0.2120  0.3703  0.0554
10934TIP3    H154293   0.091   6.721  11.132 -1.0429  1.6807  0.5010
10934TIP3    H254294   0.183   6.786  11.031 -0.4291 -0.0666 -0.1072
10935TIP3   OH254295   4.811   0.607  10.396 -0.0193  0.4081  0.7396
10935TIP3    H154296   4.831   0.574  10.483  1.9232 -1.5493 -0.3457
10935TIP3    H254297   4.748   0.544  10.360  0.9109 -0.1070 -0.0393
10936TIP3   OH254298   4.882   1.890  16.663 -0.3508  0.0741 -0.0685
10936TIP3    H154299   4.861   1.902  16.570 -3.6320  1.9712  0.7618
10936TIP3    H254300   4.899   1.978  16.695  0.5911 -0.5429  1.2087
10937TIP3   OH254301   4.998   3.224   2.781  0.2220 -0.0100 -0.6366
10937TIP3    H154302   5.013   3.204   2.874 -1.0916  1.3612 -0.0763
10937TIP3    H254303   5.008   3.140   2.736  1.6989 -0.5482  0.6212
10938TIP3   OH254304   1.344   3.879   3.216  0.0255  0.3498 -0.0641
10938TIP3    H154305   1.334   3.969   3.245  0.1706  0.2479  0.3073
10938TIP3    H254306   1.260   3.837   3.237  0.6244 -0.1052  1.6145
10939TIP3   OH254307   3.723   2.061   2.758 -0.0489  0.1719 -0.5185
10939TIP3    H154308   3.761   1.973   2.757 -0.0383  0.1786 -1.0480
10939TIP3    H254309   3.641   2.053   2.711 -0.4295  0.2853  0.1149
10940TIP3   OH254310   5.131   5.658  15.425 -0.0726 -0.2531  0.2211
10940TIP3    H154311   5.201   5.723  15.415 -1.2259  1.0275  0.2297
10940TIP3    H254312   5.120   5.622  15.337  0.3210 -0.1687  0.1352
10941TIP3   OH254313   0.797   4.838   1.123  0.1578  0.3637  0.4583
10941TIP3    H154314   0.747   4.768   1.081 -1.9473  1.9032  0.2141
10941TIP3    H254315   0.757   4.849   1.209  1.3726  0.3842  1.0488
10942TIP3   OH254316   2.533   5.209   3.981 -0.4480  0.2309 -0.4424
10942TIP3    H154317   2.588   5.193   3.904  3.0502 -1.7504  2.1925
10942TIP3    H254318   2.593   5.204   4.055 -3.7213  1.2717  2.5655
10943TIP3   OH254319   5.586   6.265  13.895 -0.0753 -0.1908  0.3081
10943TIP3    H154320   5.539   6.337  13.853 -1.1711 -1.7438 -1.2859
10943TIP3    H254321   5.579   6.282  13.989 -3.1522  0.1021  0.1183
10944TIP3   OH254322   2.012   3.591  11.978 -0.3225  0.4387  0.1346
10944TIP3    H154323   1.984   3.527  12.044 -1.0414 -1.2016 -1.6444
10944TIP3    H254324   1.939   3.654  11.974 -0.4269  0.3585  0.6525
10945TIP3   OH254325   6.762   5.848  13.131  0.0412 -0.4122  0.5021
10945TIP3    H154326   6.803   5.811  13.210 -0.4828 -0.7411  0.6252
10945TIP3    H254327   6.693   5.906  13.165  0.7719  0.5978  0.3084
10946TIP3   OH254328   1.809   5.740   1.160 -0.0979  0.3446  0.5611
10946TIP3    H154329   1.778   5.732   1.070 -1.6189  0.6855  1.0205
10946TIP3    H254330   1.892   5.692   1.162 -1.4270 -2.1327 -0.3391
10947TIP3   OH254331   1.012   4.681   5.159 -0.1559  0.0494 -0.1638
10947TIP3    H154332   1.018   4.759   5.213  1.9109  1.7851 -2.6717
10947TIP3    H254333   1.072   4.618   5.200 -1.3589 -0.0820  1.5144
10948TIP3   OH254334   1.575   2.951  14.588 -0.5364  0.0939  0.1161
10948TIP3    H154335   1.624   3.032  14.577  0.7958 -0.8159 -1.0360
10948TIP3    H254336   1.524   2.943  14.507  1.6065 -1.6234 -1.1950
10949TIP3   OH254337   0.027   0.563   3.136 -0.0274  0.3320 -0.1909
10949TIP3    H154338   0.044   0.571   3.230 -0.9814  2.7720 -0.1528
10949TIP3    H254339   0.040   0.470   3.117  2.1096  0.0880  1.9541
10950TIP3   OH254340   2.067   4.487   0.180  0.4490 -0.0547 -0.8757
10950TIP3    H154341   2.092   4.459   0.268 -1.1793  1.4967  0.1668
10950TIP3    H254342   1.989   4.436   0.160  0.1920  0.3563 -0.9461
10951TIP3   OH254343   0.536   2.647   3.455  0.0531 -0.2006  0.9153
10951TIP3    H154344   0.534   2.706   3.379  0.0900 -1.0853  0.2196
10951TIP3    H254345   0.527   2.706   3.531  0.2761  0.7176  0.2469
10952TIP3   OH254346   3.025   2.380   0.635 -0.4425  0.3226 -0.3483
10952TIP3    H154347   3.051   2.371   0.543 -0.3243  1.0163 -0.3910
10952TIP3    H254348   3.107   2.373   0.684 -0.3400  1.1658 -0.3872
10953TIP3   OH254349   4.445   2.024   3.756  0.5238  0.3227  0.4908
10953TIP3    H154350   4.458   2.084   3.682  1.2375 -0.4983 -0.0698
10953TIP3    H254351   4.387   2.072   3.816  1.4442  1.7610  0.2840
10954TIP3   OH254352   2.800   1.160   4.691  0.2134  0.6554 -0.3423
10954TIP3    H154353   2.854   1.104   4.637  0.9399  1.1341 -0.1314
10954TIP3    H254354   2.732   1.103   4.726  0.8789 -0.0651 -0.2121
10955TIP3   OH254355   2.059   3.671  14.228  0.4629  0.7005  0.3461
10955TIP3    H154356   2.095   3.725  14.298 -1.7067 -1.7783  3.6879
10955TIP3    H254357   2.088   3.582  14.248 -2.1022 -0.4270 -0.4583
10956TIP3   OH254358   4.928   2.091  15.318 -0.1055  0.3706  0.5180
10956TIP3    H154359   5.022   2.094  15.334 -0.0887  3.0148  0.3962
10956TIP3    H254360   4.920   2.069  15.225  0.3617 -0.0822  0.5816
10957TIP3   OH254361   1.908   0.032  16.274 -0.2703 -0.1097  0.0763
10957TIP3    H154362   1.831  -0.025  16.270 -1.7439  1.7207  0.8374
10957TIP3    H254363   1.927   0.052  16.182 -2.6161  1.7761 -0.0900
10958TIP3   OH254364   3.979   1.479  16.974 -0.4131  0.0374 -0.4325
10958TIP3    H154365   3.994   1.384  16.977 -1.4732 -0.1253  1.8879
10958TIP3    H254366   3.992   1.502  16.882  0.5582 -2.2292 -0.9388
10959TIP3   OH254367   4.936   5.243   6.101 -0.2564  0.1571 -0.3271
10959TIP3    H154368   4.872   5.313   6.110 -0.9943 -0.3875 -1.1778
10959TIP3    H254369   4.981   5.240   6.185 -3.0313 -1.0648  1.2390
10960TIP3   OH254370   5.296   3.123   3.717 -0.6633  0.5972  0.5049
10960TIP3    H154371   5.370   3.062   3.723 -1.8468 -0.9594 -0.0627
10960TIP3    H254372   5.290   3.161   3.805 -0.8693 -1.3318  1.3710
10961TIP3   OH254373   2.009   2.637   5.786 -0.2180  0.9641 -0.3862
10961TIP3    H154374   2.021   2.729   5.763  0.9231  1.1577  0.8594
10961TIP3    H254375   1.915   2.621   5.774 -0.2585  2.0081 -1.5652
10962TIP3   OH254376   3.561   4.607  13.574  0.6902  0.1162  0.8262
10962TIP3    H154377   3.649   4.611  13.538  0.0886 -0.3459 -0.7810
10962TIP3    H254378   3.505   4.646  13.507 -0.4338 -0.4342  1.4046
10963TIP3   OH254379   3.567   6.243  16.364  0.4938 -0.0937 -0.3640
10963TIP3    H154380   3.548   6.226  16.272  0.0263 -0.3222 -0.2314
10963TIP3    H254381   3.483   6.273  16.400  0.2201 -1.6066  0.3490
10964TIP3   OH254382   6.047   2.782  13.559  0.2251 -0.2120  0.2960
10964TIP3    H154383   5.973   2.726  13.533 -0.3943  0.9583 -0.5355
10964TIP3    H254384   6.009   2.870  13.566  1.7511  0.6213 -1.2487
10965TIP3   OH254385   1.765   2.077   5.588 -0.4162  0.4331 -0.0702
10965TIP3    H154386   1.796   2.158   5.629  1.4069 -0.4173  0.3058
10965TIP3    H254387   1.798   2.082   5.498  1.8884 -0.9618  0.6225
10966TIP3   OH254388   0.872   4.281  16.296 -0.1036 -0.4784 -0.5791
10966TIP3    H154389   0.911   4.357  16.253  1.5374 -0.6183  0.5827
10966TIP3    H254390   0.794   4.262  16.244 -0.1775  1.5545 -1.3040
10967TIP3   OH254391   1.261   0.695   5.707 -0.0359 -0.2614  0.5007
10967TIP3    H154392   1.309   0.620   5.671  0.4925  0.6603 -0.8224
10967TIP3    H254393   1.325   0.739   5.763  0.6537  0.7948 -1.0233
10968TIP3   OH254394   0.573   3.491  14.648  0.3002  0.0217 -0.6660
10968TIP3    H154395   0.520   3.412  14.645 -0.0945  0.2365  0.1585
10968TIP3    H254396   0.509   3.562  14.660  0.7386  0.3075  0.0678
10969TIP3   OH254397   3.563   1.408   5.629 -0.1497  0.2472  0.1376
10969TIP3    H154398   3.551   1.431   5.721 -4.3961 -1.2484  0.1825
10969TIP3    H254399   3.578   1.492   5.585  1.3484  1.0541  2.0379
10970TIP3   OH254400   0.008   0.841  11.007  0.2876 -0.0046 -0.3378
10970TIP3    H154401   0.080   0.810  10.951  0.4237 -1.4941  0.6174
10970TIP3    H254402  -0.065   0.852  10.946  1.0024  0.4470 -1.1469
10971TIP3   OH254403   4.268   0.257  14.695  0.0232  0.2529  0.3325
10971TIP3    H154404   4.205   0.320  14.659 -0.2745  0.4283  1.1497
10971TIP3    H254405   4.240   0.243  14.785  1.4413  0.7043  0.8642
10972TIP3   OH254406   4.727   2.163   1.509 -0.3343  0.0088 -0.0746
10972TIP3    H154407   4.812   2.205   1.520  0.2758 -0.7566 -1.4757
10972TIP3    H254408   4.747   2.069   1.506 -0.7413 -0.1164 -3.3563
10973TIP3   OH254409   2.704   2.234   2.052  0.2515 -0.4999  0.4268
10973TIP3    H154410   2.794   2.255   2.077  0.5051 -0.1218 -0.7284
10973TIP3    H254411   2.705   2.236   1.956 -0.8005 -1.3187  0.3850
10974TIP3   OH254412   4.801   5.783  15.183 -0.0787  0.3618 -0.1456
10974TIP3    H154413   4.787   5.733  15.103 -0.9823 -0.3845  0.4534
10974TIP3    H254414   4.728   5.844  15.187 -1.0579 -0.8127  0.9737
10975TIP3   OH254415   4.733   5.420   0.239  0.1246  0.2747  0.6390
10975TIP3    H154416   4.720   5.326   0.226 -0.5670  0.2480  1.4428
10975TIP3    H254417   4.695   5.438   0.325 -0.3821  1.4319  0.1885
10976TIP3   OH254418   5.358   4.048  11.342  0.2109 -0.4320  0.2605
10976TIP3    H154419   5.427   4.058  11.276  0.0013 -0.6437  0.0070
10976TIP3    H254420   5.355   4.133  11.386  1.9601 -0.9949  1.5963
10977TIP3   OH254421   2.706   1.026  11.920 -0.3901  0.1039 -0.1450
10977TIP3    H154422   2.760   1.028  11.841 -2.5044  0.3634 -1.6934
10977TIP3    H254423   2.766   1.045  11.991  1.8084 -1.1656 -1.5517
10978TIP3   OH254424   1.053   5.109   2.653  0.2806  0.3341 -0.1379
10978TIP3    H154425   1.138   5.149   2.635  0.5619  0.2809  0.9682
10978TIP3    H254426   1.028   5.145   2.738 -0.5800 -0.0210 -0.2368
10979TIP3   OH254427   5.434   0.167   5.639  0.1005  0.3256 -0.8945
10979TIP3    H154428   5.346   0.130   5.648 -0.2647  1.6057  1.3906
10979TIP3    H254429   5.430   0.249   5.687  2.5430  0.4701 -0.8597
10980TIP3   OH254430   2.502   3.459   0.413 -0.2733 -0.3819 -0.6105
10980TIP3    H154431   2.421   3.410   0.401 -0.4802 -0.1187 -0.2904
10980TIP3    H254432   2.562   3.398   0.456 -0.1480 -0.7231 -1.2558
10981TIP3   OH254433   4.254   4.929   1.683 -0.3906  0.0136 -0.4610
10981TIP3    H154434   4.226   4.840   1.705 -0.8889 -0.1029 -1.4942
10981TIP3    H254435   4.317   4.952   1.750 -2.8254  0.2355  1.9071
10982TIP3   OH254436   2.758   0.983   2.964 -0.2501  0.2571  0.1178
10982TIP3    H154437   2.690   1.026   3.015 -0.1897  1.4413 -0.7802
10982TIP3    H254438   2.729   0.989   2.873  0.7569  0.2397 -0.2225
10983TIP3   OH254439   3.795   2.938   5.458  0.8287  0.0228 -1.1169
10983TIP3    H154440   3.799   3.027   5.493 -2.1559  0.3137 -1.3390
10983TIP3    H254441   3.799   2.948   5.363  1.0046 -0.1466 -1.1302
10984TIP3   OH254442   1.638   6.700  10.976  0.2149 -0.3847  0.2643
10984TIP3    H154443   1.597   6.614  10.977 -1.2159  0.2645  0.5997
10984TIP3    H254444   1.647   6.723  11.069 -1.6165  0.7715  0.2223
10985TIP3   OH254445   5.627   5.946  10.893  0.1769 -0.4859  0.8962
10985TIP3    H154446   5.586   5.871  10.936 -1.0207 -0.0290  0.5871
10985TIP3    H254447   5.688   5.980  10.958 -0.9241 -0.3762  1.9050
10986TIP3   OH254448   3.192   3.884  15.430  0.6384 -0.0197  0.1688
10986TIP3    H154449   3.125   3.952  15.441  1.3193  0.5243  1.0313
10986TIP3    H254450   3.147   3.803  15.455 -0.4249 -0.0624 -1.6466
10987TIP3   OH254451   3.925   5.347   0.983 -0.1164  0.7716 -0.5894
10987TIP3    H154452   3.847   5.348   1.038 -0.2166  0.5437 -0.7307
10987TIP3    H254453   3.946   5.255   0.971 -0.4454  0.8009 -1.4443
10988TIP3   OH254454   3.684   0.039   4.414  0.0653 -0.2050 -0.4956
10988TIP3    H154455   3.645   0.123   4.438 -0.7103 -0.1505 -1.8433
10988TIP3    H254456   3.768   0.062   4.375  0.2544 -0.1312 -0.0540
10989TIP3   OH254457   0.313   5.611  12.393 -0.2161  0.1175  0.6691
10989TIP3    H154458   0.362   5.665  12.454 -0.4105  1.2744 -0.1741
10989TIP3    H254459   0.278   5.540  12.447 -0.3977  1.1185  1.9079
10990TIP3   OH254460   3.537   2.027   1.852  0.4772  0.0055  0.1979
10990TIP3    H154461   3.480   1.956   1.824 -0.7392  0.9436  0.1817
10990TIP3    H254462   3.567   2.068   1.771  1.0474 -0.3770  0.2095
10991TIP3   OH254463   0.193   2.260   4.002  0.3996 -0.2611  0.0065
10991TIP3    H154464   0.165   2.235   3.914 -1.1456 -2.7796  1.0843
10991TIP3    H254465   0.288   2.268   3.997  0.3046 -0.0575 -1.9514
10992TIP3   OH254466   5.797   6.283  15.710 -0.5153 -0.1267 -0.1491
10992TIP3    H154467   5.834   6.337  15.641  1.0197  1.8189  2.0552
10992TIP3    H254468   5.802   6.337  15.789  1.2379 -3.4627  2.2861
10993TIP3   OH254469   2.040   3.904  16.773 -0.6149 -0.1218 -0.0163
10993TIP3    H154470   2.129   3.891  16.804 -0.5139 -0.1498 -0.3188
10993TIP3    H254471   2.031   3.845  16.698 -1.3149 -1.1084  0.8113
10994TIP3   OH254472   3.647   5.201  14.682 -0.2782  0.0746  0.3911
10994TIP3    H154473   3.578   5.140  14.708 -0.8607  1.2373  1.6731
10994TIP3    H254474   3.716   5.187  14.747  0.0022  0.0846  0.0967
10995TIP3   OH254475   6.105   2.429   2.340 -0.0494  0.0805 -0.1353
10995TIP3    H154476   6.151   2.366   2.284 -0.1111  0.1261 -0.2375
10995TIP3    H254477   6.117   2.395   2.429  0.8005  0.4731 -0.0874
10996TIP3   OH254478   6.408   5.282   0.816  0.0236  0.1357 -0.6608
10996TIP3    H154479   6.333   5.341   0.812 -0.2882 -0.2686 -0.8407
10996TIP3    H254480   6.390   5.216   0.749 -0.3221 -0.9622  0.4899
10997TIP3   OH254481   5.701   0.925  12.695  0.3487 -0.1776  0.1260
10997TIP3    H154482   5.709   0.838  12.735 -1.6417 -0.1960  0.5820
10997TIP3    H254483   5.711   0.986  12.769  0.3561 -0.0761  0.0409
10998TIP3   OH254484   3.893   1.271   1.134  0.3683 -0.1186  0.4318
10998TIP3    H154485   3.852   1.287   1.049 -1.2587 -0.2356  1.1589
10998TIP3    H254486   3.892   1.357   1.177 -0.0950 -0.3312  0.8572
10999TIP3   OH254487   0.832   4.951  13.730 -0.2983 -0.4283 -0.1272
10999TIP3    H154488   0.917   4.942  13.686 -0.4684  0.3337 -0.6360
10999TIP3    H254489   0.829   5.043  13.756 -0.6355 -0.6411  0.5834
11000TIP3   OH254490   1.398   3.767   1.606  0.5115 -0.1280  0.2656
11000TIP3    H154491   1.480   3.772   1.655  1.5079  0.8831 -1.3779
11000TIP3    H254492   1.360   3.855   1.615 -1.0258 -0.9099  1.9629
11001TIP3   OH254493   1.769   4.463   4.036  0.1564  0.2958 -0.6554
11001TIP3    H154494   1.678   4.437   4.053 -0.2110  1.0968 -1.3157
11001TIP3    H254495   1.777   4.462   3.941  1.2421 -1.0394 -0.5788
11002TIP3   OH254496   0.220   1.554  11.133  0.1108  0.1529 -0.4477
11002TIP3    H154497   0.140   1.586  11.093  0.5563  0.7999 -0.8451
11002TIP3    H254498   0.195   1.531  11.223 -0.8661 -1.2257 -1.0518
11003TIP3   OH254499   6.102   6.015  11.798  0.1795 -0.3641  0.6941
11003TIP3    H154500   6.162   5.943  11.816 -0.2564 -0.6683  0.9286
11003TIP3    H254501   6.015   5.979  11.814 -0.3811 -0.9824 -2.8403
11004TIP3   OH254502   2.926   0.129  11.006 -0.3275 -0.7672 -0.8185
11004TIP3    H154503   2.891   0.057  10.954 -0.8117 -1.4306  0.3696
11004TIP3    H254504   3.002   0.092  11.050  0.4349 -0.0414 -1.4884
11005TIP3   OH254505   6.716   4.442   1.294 -0.6021  0.2155  0.8423
11005TIP3    H154506   6.640   4.495   1.268 -0.8828  0.1086  1.4196
11005TIP3    H254507   6.684   4.391   1.369 -0.1771 -0.3841  0.6131
11006TIP3   OH254508   1.053   1.210   2.934  0.0134 -0.1708 -0.9594
11006TIP3    H154509   1.115   1.264   2.885 -0.2190  0.2509 -0.7972
11006TIP3    H254510   1.067   1.234   3.026  0.3672 -0.8746 -0.8298
11007TIP3   OH254511   2.826   3.171   0.966  0.2046  0.1162  0.1710
11007TIP3    H154512   2.788   3.252   0.932  0.7931  0.4404  0.2737
11007TIP3    H254513   2.882   3.199   1.038 -0.8394 -0.5392  1.2717
11008TIP3   OH254514   5.415   6.586   1.373 -0.1102  0.3996  0.0554
11008TIP3    H154515   5.381   6.501   1.399  2.1224  0.1508  2.6506
11008TIP3    H254516   5.491   6.565   1.319  1.5615  0.5724  2.2078
11009TIP3   OH254517   0.948   6.235  15.492  0.3514  0.2797  0.1055
11009TIP3    H154518   0.983   6.229  15.403 -0.2961 -0.4356 -0.1058
11009TIP3    H254519   0.993   6.165  15.541  0.6379  0.6122  0.3299
11010TIP3   OH254520   5.812   1.458   5.871  0.2162  0.5188 -0.2120
11010TIP3    H154521   5.827   1.551   5.855  1.1342  0.4726  0.3067
11010TIP3    H254522   5.718   1.452   5.887  0.4732  1.8416  2.5796
11011TIP3   OH254523   4.488   4.576   1.998  0.4710  0.2595  0.1670
11011TIP3    H154524   4.459   4.563   1.908 -0.1884  0.5933  0.3263
11011TIP3    H254525   4.422   4.532   2.052  1.4116 -0.8550  0.4634
11012TIP3   OH254526   6.661   0.043  12.988 -0.2597 -0.3193  0.0094
11012TIP3    H154527   6.575   0.065  13.023 -0.0187  0.0515  0.3854
11012TIP3    H254528   6.645   0.016  12.898 -0.6110  1.0955 -0.3766
11013TIP3   OH254529   6.518   2.243   0.104  0.0156 -0.2741  0.3261
11013TIP3    H154530   6.600   2.264   0.059 -0.1989  0.6010  0.3109
11013TIP3    H254531   6.482   2.329   0.128 -0.2617 -0.6853  1.4740
11014TIP3   OH254532   6.143   4.478   1.991 -0.1066  0.1644 -0.5963
11014TIP3    H154533   6.217   4.436   2.034 -0.4641  0.5265  0.3995
11014TIP3    H254534   6.082   4.407   1.973 -0.1587  0.0725 -0.0655
11015TIP3   OH254535   2.533   3.321  11.592 -0.2896  0.1493  0.3019
11015TIP3    H154536   2.533   3.333  11.687  0.0102 -0.1817  0.3470
11015TIP3    H254537   2.581   3.239  11.579  2.4021  1.7047 -0.3325
11016TIP3   OH254538   2.789   1.588  10.782  0.1968  0.0081  0.3453
11016TIP3    H154539   2.712   1.566  10.730  0.0849  1.3754 -0.0939
11016TIP3    H254540   2.823   1.668  10.742  1.5630 -0.3043  0.8402
11017TIP3   OH254541   1.131   0.094   5.672 -0.5993 -0.3689  0.5679
11017TIP3    H154542   1.057   0.097   5.732 -0.3181 -0.5775  0.9237
11017TIP3    H254543   1.195   0.036   5.714 -0.1180  0.0281  0.3975
11018TIP3   OH254544   5.379   2.443  15.606  0.7298  0.5365 -0.2203
11018TIP3    H154545   5.474   2.450  15.615  0.6237  0.7667  0.9115
11018TIP3    H254546   5.363   2.351  15.587  1.0464 -0.0988  2.2162
11019TIP3   OH254547   0.241   6.656   5.400  0.4406  0.1277  0.0086
11019TIP3    H154548   0.241   6.717   5.474 -2.7646  0.5015 -0.1725
11019TIP3    H254549   0.261   6.571   5.440  1.2454  0.6940  0.8633
11020TIP3   OH254550   3.826   4.019  16.643 -0.3557 -1.0565 -0.4149
11020TIP3    H154551   3.798   4.013  16.734 -0.2544 -0.6297 -0.3563
11020TIP3    H254552   3.921   4.020  16.647 -0.3441 -1.3635 -0.5487
11021TIP3   OH254553   4.291   5.456   2.009 -0.0235  0.0016  0.3468
11021TIP3    H154554   4.222   5.391   2.020  0.1406 -0.2646 -0.1829
11021TIP3    H254555   4.247   5.533   1.973 -0.0046 -0.2459 -0.2043
11022TIP3   OH254556   6.764   0.618  15.227  0.6826  0.2117  0.3093
11022TIP3    H154557   6.785   0.702  15.267  3.6920 -0.4091  0.2936
11022TIP3    H254558   6.830   0.558  15.261  1.3110 -1.1580 -2.9338
11023TIP3   OH254559   4.792   6.247  11.217  0.7103 -0.0643  0.5840
11023TIP3    H154560   4.815   6.156  11.198 -1.3927 -0.5287  0.0309
11023TIP3    H254561   4.763   6.246  11.308 -3.4061 -0.9406 -0.5436
11024TIP3   OH254562   5.236   1.591  13.521  0.3024 -0.0794  0.1996
11024TIP3    H154563   5.222   1.565  13.430  1.3546 -1.8341  0.4771
11024TIP3    H254564   5.246   1.508  13.568  4.9601  0.6571  1.0506
11025TIP3   OH254565   0.353   6.630   6.223 -0.1641  0.3437 -0.5182
11025TIP3    H154566   0.317   6.565   6.283 -0.3594  1.9962  1.2460
11025TIP3    H254567   0.419   6.676   6.274 -0.0160  1.5286 -1.7216
11026TIP3   OH254568   0.845   5.867   3.746  0.6162 -0.2634 -0.0186
11026TIP3    H154569   0.800   5.948   3.771  0.6890  0.0977 -1.0414
11026TIP3    H254570   0.922   5.896   3.697  0.6416 -0.9525 -0.4000
11027TIP3   OH254571   0.224   5.088  10.582 -0.0293  0.1846  0.4173
11027TIP3    H154572   0.244   5.090  10.676 -2.0993  2.8116  0.9229
11027TIP3    H254573   0.181   5.004  10.569  0.4379 -0.2992  1.7784
11028TIP3   OH254574   4.946   6.014   3.766 -0.2723 -0.1329 -0.4372
11028TIP3    H154575   5.007   6.087   3.778  1.9662 -1.9433 -0.2500
11028TIP3    H254576   4.964   5.983   3.677 -1.8129  0.0173 -0.8311
11029TIP3   OH254577   1.301   0.442   1.160 -0.1705 -0.4580 -0.5151
11029TIP3    H154578   1.255   0.453   1.077 -1.3056 -2.1985 -0.1650
11029TIP3    H254579   1.233   0.454   1.227  0.5747  0.1515  0.1584
11030TIP3   OH254580   4.002   3.444  13.068  0.4486 -0.1974 -0.3096
11030TIP3    H154581   4.061   3.475  13.137  0.5891  0.1781 -0.5980
11030TIP3    H254582   4.007   3.511  13.000 -2.6864  1.5490  0.9280
11031TIP3   OH254583   3.771   0.201  15.612 -0.0320 -0.3992  0.3356
11031TIP3    H154584   3.760   0.116  15.655 -0.9129 -0.0613  0.7897
11031TIP3    H254585   3.797   0.179  15.523 -0.3123 -1.1510  0.4320
11032TIP3   OH254586   2.701   0.132   1.418 -0.9610  0.5896 -0.0617
11032TIP3    H154587   2.715   0.195   1.489 -0.1508  1.2111 -0.7568
11032TIP3    H254588   2.753   0.056   1.443 -2.0801  0.0864  0.8673
11033TIP3   OH254589   4.853   0.447  15.116  0.0074  0.1607  1.0150
11033TIP3    H154590   4.809   0.517  15.067 -0.4252  0.2625  1.5386
11033TIP3    H254591   4.914   0.408  15.053  0.1900  0.9489  0.6889
11034TIP3   OH254592   3.323   0.258   4.303  0.4177 -0.4123  0.3586
11034TIP3    H154593   3.280   0.341   4.321  0.3618 -0.6114  1.1509
11034TIP3    H254594   3.410   0.267   4.343  0.3189 -0.8283  0.6684
11035TIP3   OH254595   4.553   5.446   2.341  0.1026 -0.7149 -0.5685
11035TIP3    H154596   4.543   5.379   2.273 -0.1118 -0.4749 -0.7770
11035TIP3    H254597   4.615   5.408   2.403  0.9742 -0.5999 -1.3389
11036TIP3   OH254598   4.512   2.211  15.297 -0.9165  0.4921  0.1873
11036TIP3    H154599   4.597   2.197  15.338 -1.3978 -1.9765  0.4512
11036TIP3    H254600   4.528   2.205  15.203 -0.6689  0.9544  0.1974
11037TIP3   OH254601   4.340   5.157  11.062  0.7666 -0.2701  0.4167
11037TIP3    H154602   4.347   5.198  10.975  1.6490 -1.0156  0.1200
11037TIP3    H254603   4.286   5.217  11.112  1.1916  0.7606 -0.3114
11038TIP3   OH254604   4.199   4.380  13.730  0.0116  0.3238 -0.1067
11038TIP3    H154605   4.179   4.287  13.721  2.2459 -0.1574 -1.0304
11038TIP3    H254606   4.138   4.412  13.796  1.1513 -2.4938  2.5688
11039TIP3   OH254607   0.857   5.957  14.791 -0.1019  0.2981 -0.0621
11039TIP3    H154608   0.908   6.032  14.760  0.4324 -0.5787 -1.4011
11039TIP3    H254609   0.766   5.981  14.773 -0.2149  1.6960  1.9602
11040TIP3   OH254610   4.049   0.478  15.810  0.5259 -0.5515 -0.2029
11040TIP3    H154611   4.142   0.458  15.814  0.9379  1.0538 -1.1160
11040TIP3    H254612   4.006   0.393  15.824  2.0675 -1.1217  1.4723
11041TIP3   OH254613   1.146   2.956   0.054  0.1228  0.2432  0.3735
11041TIP3    H154614   1.082   2.968   0.125 -1.1620  2.1215 -0.9932
11041TIP3    H254615   1.141   3.038   0.005  3.4601  0.3617  0.0486
11042TIP3   OH254616   4.674   6.709   1.963 -0.2466  0.4020 -0.1865
11042TIP3    H154617   4.683   6.726   2.057 -0.3527 -0.1165 -0.0792
11042TIP3    H254618   4.636   6.790   1.928 -3.1912 -0.4777  0.7237
11043TIP3   OH254619   3.231   3.891  17.094 -0.7489 -0.8587 -0.1969
11043TIP3    H154620   3.316   3.883  17.137 -1.0137 -1.4460  0.2275
11043TIP3    H254621   3.242   3.963  17.033 -0.5715  0.5381  1.3924
11044TIP3   OH254622   4.964   6.403  12.141  0.4604  0.1556  0.0702
11044TIP3    H154623   5.047   6.450  12.139  1.5175 -1.6427 -0.8035
11044TIP3    H254624   4.973   6.335  12.075 -1.2391 -0.8565  0.8070
11045TIP3   OH254625   3.143   1.098  13.025 -0.5392 -0.3925 -0.1216
11045TIP3    H154626   3.147   1.130  12.935  0.3998 -0.4779 -0.1137
11045TIP3    H254627   3.076   1.030  13.024 -1.1238  0.1743 -0.5694
11046TIP3   OH254628   1.504   4.275   6.236  0.3925  0.0416  0.0414
11046TIP3    H154629   1.571   4.226   6.284  1.5833  1.8409  0.3266
11046TIP3    H254630   1.431   4.282   6.298  0.7566 -0.2031  0.5042
11047TIP3   OH254631   2.396   5.114   3.628  0.0314 -0.0548  0.1486
11047TIP3    H154632   2.474   5.084   3.676 -1.7615 -1.8332  2.1994
11047TIP3    H254633   2.389   5.053   3.554  0.3961 -0.1177  0.1637
11048TIP3   OH254634   2.240   2.745  15.131 -0.0842  0.2494 -0.2432
11048TIP3    H154635   2.193   2.826  15.152 -0.0164  0.4367 -0.8029
11048TIP3    H254636   2.332   2.769  15.135 -0.0036 -0.1660  1.0474
11049TIP3   OH254637   1.591   6.793  15.552  0.4733 -0.5020 -0.0389
11049TIP3    H154638   1.582   6.734  15.628  1.8490 -0.4001  0.2267
11049TIP3    H254639   1.575   6.737  15.476 -2.6863 -0.2478  0.3184
11050TIP3   OH254640   1.293   3.695  13.061  0.3600 -0.3073  0.1709
11050TIP3    H154641   1.334   3.739  12.987 -0.8600  0.8549  0.1479
11050TIP3    H254642   1.297   3.759  13.132  0.3027 -0.9019  0.7159
11051TIP3   OH254643   3.691   5.104   2.904  0.4550  0.4162  0.1378
11051TIP3    H154644   3.607   5.072   2.936  0.6201 -0.0508  0.1217
11051TIP3    H254645   3.691   5.197   2.925  0.5323  0.1418  1.4765
11052TIP3   OH254646   2.925   0.574   3.936 -0.0886 -0.4467 -0.5965
11052TIP3    H154647   3.014   0.544   3.916  0.3091  1.1240 -1.3748
11052TIP3    H254648   2.915   0.559   4.030 -0.2904 -3.7707 -1.0307
11053TIP3   OH254649   0.359   2.030  10.914  0.3341  0.2548 -1.1203
11053TIP3    H154650   0.276   1.984  10.900  0.6057 -0.7703  0.3921
11053TIP3    H254651   0.425   1.970  10.881  0.7003 -0.5741  0.9769
11054TIP3   OH254652   2.640   5.507  11.027 -0.2670  0.2189  0.0810
11054TIP3    H154653   2.700   5.460  10.969 -1.5915 -1.4619 -0.0136
11054TIP3    H254654   2.564   5.526  10.973 -1.9243 -2.2009  1.3862
11055TIP3   OH254655   5.203   4.328   0.240 -0.1621  0.1638 -0.2117
11055TIP3    H154656   5.229   4.264   0.305 -0.5497  1.0384  0.8393
11055TIP3    H254657   5.271   4.395   0.244  0.0708 -0.0128 -1.0660
11056TIP3   OH254658   0.124   3.589  16.757  0.4585  0.1292  0.4678
11056TIP3    H154659   0.073   3.622  16.831 -2.8326 -1.5090 -0.8307
11056TIP3    H254660   0.156   3.668  16.713 -2.5165  1.4683  0.4520
11057TIP3   OH254661   4.080   4.915  16.901  0.6436 -0.0661 -0.9250
11057TIP3    H154662   4.079   4.841  16.962  2.4418  0.7635  0.1763
11057TIP3    H254663   4.167   4.913  16.862  0.0942  0.4387 -2.2407
11058TIP3   OH254664   4.130   0.314  11.742  0.1848  0.0238  0.2253
11058TIP3    H154665   4.125   0.265  11.659  1.4152 -0.1371  0.2234
11058TIP3    H254666   4.074   0.390  11.728 -0.1972 -0.3755 -0.4928
11059TIP3   OH254667   6.649   3.745   6.059 -0.2163 -0.2422  0.0950
11059TIP3    H154668   6.708   3.698   6.000  0.0088  0.9989 -0.7134
11059TIP3    H254669   6.707   3.791   6.119 -0.2467  1.6404 -1.2103
11060TIP3   OH254670   4.574   4.368  14.319  0.2875  0.2670 -0.2067
11060TIP3    H154671   4.559   4.462  14.334 -0.8567  0.1857 -0.7438
11060TIP3    H254672   4.614   4.364  14.232  2.0662  0.3632  0.5595
11061TIP3   OH254673   3.430   5.779   3.649 -0.1092 -0.8137 -0.1443
11061TIP3    H154674   3.410   5.715   3.717  0.2530 -1.5365 -0.7037
11061TIP3    H254675   3.440   5.862   3.696 -0.8961 -1.1020  0.5544
11062TIP3   OH254676   4.824   5.948   2.810  0.2801  0.2892  0.1249
11062TIP3    H154677   4.783   5.939   2.895  1.2344 -0.4536  0.5235
11062TIP3    H254678   4.827   6.043   2.794 -2.2548  0.3729 -0.2869
11063TIP3   OH254679   3.848   1.740  16.792 -0.0524 -0.2223 -0.1250
11063TIP3    H154680   3.941   1.724  16.777  0.3699  1.2454  0.7757
11063TIP3    H254681   3.842   1.833  16.811 -1.5765 -0.4897  0.8544
11064TIP3   OH254682   0.684   6.274  12.731  0.0895  0.3760  0.4618
11064TIP3    H154683   0.732   6.219  12.792  0.8806 -0.2216 -0.6657
11064TIP3    H254684   0.723   6.256  12.646 -2.6483 -0.7391 -0.6738
11065TIP3   OH254685   5.786   3.777  12.849  0.2417 -0.2721  0.8328
11065TIP3    H154686   5.709   3.745  12.802  0.9606 -1.5952  0.5029
11065TIP3    H254687   5.812   3.704  12.905  1.2695  0.1354  0.9075
11066TIP3   OH254688   5.887   2.262   0.742 -0.3649 -0.8736  0.6190
11066TIP3    H154689   5.799   2.233   0.720 -1.2377 -0.3359  3.1316
11066TIP3    H254690   5.911   2.210   0.819  1.3728 -0.7226  0.2265
11067TIP3   OH254691   5.878   5.794  14.129 -0.4247 -0.4433 -0.1004
11067TIP3    H154692   5.926   5.789  14.047 -2.2262 -2.6125 -1.1266
11067TIP3    H254693   5.813   5.863  14.116 -1.5129 -1.5988 -1.0234
11068TIP3   OH254694   3.549   1.328  12.999  0.0879 -0.2875 -0.2277
11068TIP3    H154695   3.495   1.297  12.926 -1.1998 -2.2952  1.4604
11068TIP3    H254696   3.504   1.406  13.030  0.6149  0.5560 -1.4740
11069TIP3   OH254697   5.024   2.763  16.182  0.1306 -0.2227  0.0112
11069TIP3    H154698   4.990   2.772  16.271  2.5516 -0.3786  1.0246
11069TIP3    H254699   5.115   2.735  16.194  0.7442  0.4633 -2.5068
11070TIP3   OH254700   6.437   2.716  11.982  0.3317 -0.3087 -0.3685
11070TIP3    H154701   6.484   2.683  12.059  0.2416 -1.0091 -0.6072
11070TIP3    H254702   6.448   2.648  11.916  0.7603  0.4690 -1.1241
11071TIP3   OH254703   3.487   2.022   2.609 -0.1289  0.3015  0.1704
11071TIP3    H154704   3.400   2.040   2.644  0.2901  2.6770  0.2096
11071TIP3    H254705   3.488   2.066   2.524  0.3867 -1.4441 -0.7662
11072TIP3   OH254706   3.348   5.287   4.582  0.1594 -0.5433  0.2605
11072TIP3    H154707   3.350   5.208   4.637 -0.0106 -1.7224 -1.3737
11072TIP3    H254708   3.293   5.349   4.631 -2.1287 -2.4506  0.2663
11073TIP3   OH254709   4.811   3.354   4.876 -0.0688  0.5551  0.1320
11073TIP3    H154710   4.773   3.323   4.959 -0.1905  0.0350 -0.1176
11073TIP3    H254711   4.736   3.380   4.823 -0.3884 -3.0486 -1.4400
11074TIP3   OH254712   6.580   5.957  14.952 -0.1837  0.2453 -0.2509
11074TIP3    H154713   6.524   5.982  14.879 -2.4823  0.2650  1.4239
11074TIP3    H254714   6.631   6.036  14.972  1.3029 -0.0632 -2.4189
11075TIP3   OH254715   5.858   0.745   3.141 -0.2363 -0.4136 -0.0441
11075TIP3    H154716   5.923   0.721   3.207  1.0525  0.3934 -0.9713
11075TIP3    H254717   5.842   0.839   3.155  1.0362  0.0851 -1.6490
11076TIP3   OH254718   3.671   5.924   1.365  0.1773 -0.1664  0.8614
11076TIP3    H154719   3.652   5.973   1.285  1.6331  0.4132  0.8507
11076TIP3    H254720   3.596   5.865   1.374 -0.8609  0.9625  0.0338
11077TIP3   OH254721   5.444   0.744  17.069 -0.3634 -0.0532  0.3166
11077TIP3    H154722   5.534   0.776  17.066 -0.2618 -0.2039  1.4002
11077TIP3    H254723   5.445   0.674  17.135 -1.8619  1.9988  2.7295
11078TIP3   OH254724   4.336   3.096  12.838 -0.1990  0.0502 -0.5431
11078TIP3    H154725   4.304   3.166  12.895  0.5552  0.3630 -0.4991
11078TIP3    H254726   4.290   3.018  12.869 -0.6766  0.4289 -0.2715
11079TIP3   OH254727   2.973   2.644  12.163 -0.2691  0.0940  0.1290
11079TIP3    H154728   2.884   2.611  12.160  0.3846 -1.8234  0.5321
11079TIP3    H254729   3.008   2.627  12.076 -0.0611  0.1049  0.2103
11080TIP3   OH254730   2.696   3.835   1.456 -0.1402  0.1256 -0.2867
11080TIP3    H154731   2.659   3.919   1.430 -0.7116 -0.1916 -0.5468
11080TIP3    H254732   2.626   3.772   1.437  0.1486 -0.3607  0.2264
11081TIP3   OH254733   4.281   2.812  17.033  0.4414 -0.0743 -0.5079
11081TIP3    H154734   4.228   2.879  17.076  0.4800 -0.4394  0.1126
11081TIP3    H254735   4.243   2.729  17.062  0.6472 -0.3293 -0.9515
11082TIP3   OH254736   3.023   1.383  15.423  0.0473  0.3547 -0.4375
11082TIP3    H154737   2.933   1.385  15.456  0.0732  3.6691 -0.2023
11082TIP3    H254738   3.017   1.336  15.340 -1.4104 -1.5833  0.7009
11083TIP3   OH254739   3.297   6.382  10.680  0.0226  0.8149 -0.1104
11083TIP3    H154740   3.261   6.300  10.647  0.5281  1.1158 -1.4911
11083TIP3    H254741   3.294   6.441  10.605 -0.4116  2.1010  0.8764
11084TIP3   OH254742   0.093   2.117  15.488 -0.4961  0.4028 -0.3310
11084TIP3    H154743   0.018   2.060  15.505 -0.2306 -0.0519 -0.6810
11084TIP3    H254744   0.119   2.149  15.575 -1.6205  1.2508 -0.2785
11085TIP3   OH254745   3.259   5.558  12.044  0.5951 -0.1039  0.2591
11085TIP3    H154746   3.328   5.618  12.015 -0.2895  0.6700 -0.3037
11085TIP3    H254747   3.237   5.588  12.132  0.2437  0.3275  0.0278
11086TIP3   OH254748   5.018   2.029  11.545 -0.3868 -0.0360  0.4656
11086TIP3    H154749   5.055   1.941  11.542 -1.0657 -0.3027 -1.4743
11086TIP3    H254750   4.959   2.028  11.621  1.2197 -0.5394  1.7452
11087TIP3   OH254751   5.764   3.954   3.253 -0.2721  0.1300  0.1782
11087TIP3    H154752   5.790   3.864   3.268  0.4282  0.5167  1.3948
11087TIP3    H254753   5.670   3.949   3.237 -0.4517 -0.7181  1.3317
11088TIP3   OH254754   3.751   3.371   5.328 -0.1712 -0.1343 -0.3796
11088TIP3    H154755   3.736   3.331   5.242  0.1089 -0.5396 -0.2423
11088TIP3    H254756   3.669   3.416   5.348  0.3733  1.5765 -1.7022
11089TIP3   OH254757   1.212   4.901   4.144  0.1074 -0.5146  0.1071
11089TIP3    H154758   1.284   4.922   4.203 -0.5261 -1.0816  1.0969
11089TIP3    H254759   1.206   4.805   4.146  0.3876 -0.5779 -1.2567
11090TIP3   OH254760   2.402   5.508   3.423  0.4447  0.1765 -0.2067
11090TIP3    H154761   2.445   5.448   3.362 -1.8181 -0.9221 -0.8487
11090TIP3    H254762   2.328   5.542   3.373  1.3732  3.2261  0.2947
11091TIP3   OH254763   0.175   5.333   1.326 -0.0920  0.0417 -0.1651
11091TIP3    H154764   0.103   5.303   1.270  0.6903 -1.0356 -0.6307
11091TIP3    H254765   0.197   5.257   1.379  0.5550  0.4319  0.1293
11092TIP3   OH254766   5.126   3.897  12.709  0.0485  0.1265  0.2127
11092TIP3    H154767   5.049   3.951  12.725 -1.1555 -1.1001 -1.1079
11092TIP3    H254768   5.162   3.930  12.627  1.8357  1.6116  1.5087
11093TIP3   OH254769   4.767   1.748   0.829 -0.3747 -0.1730 -0.1458
11093TIP3    H154770   4.797   1.736   0.919  1.0947  1.0504 -0.4393
11093TIP3    H254771   4.818   1.686   0.777  0.9181  1.1402 -0.4977
11094TIP3   OH254772   0.064   4.878   1.119  0.1852 -0.2266 -0.5186
11094TIP3    H154773   0.050   4.955   1.065  1.6156 -0.0180 -0.6276
11094TIP3    H254774   0.022   4.806   1.070  0.5858  0.1310 -1.4024
11095TIP3   OH254775   0.429   0.545   0.708 -0.5869  0.0741  0.0231
11095TIP3    H154776   0.382   0.620   0.745  0.5980  0.0578  1.6434
11095TIP3    H254777   0.490   0.584   0.645 -0.4585  0.4088  0.3507
11096TIP3   OH254778   1.217   1.591   4.526  0.2225 -0.1792 -0.1171
11096TIP3    H154779   1.152   1.539   4.574 -0.3867 -0.2628 -1.0149
11096TIP3    H254780   1.251   1.532   4.459  0.3106  0.2551 -0.4616
11097TIP3   OH254781   5.122   0.489  10.385 -0.5807  0.2526 -0.3652
11097TIP3    H154782   5.068   0.458  10.458  1.4854 -0.1003  1.1211
11097TIP3    H254783   5.143   0.409  10.336 -0.4016  0.2096 -0.2190
11098TIP3   OH254784   1.999   3.789  12.591 -0.2096  0.7065  0.5046
11098TIP3    H154785   2.036   3.799  12.504 -0.6473  2.4409  0.4840
11098TIP3    H254786   2.061   3.835  12.649 -0.1611 -0.0244  1.0462
11099TIP3   OH254787   5.525   6.312   4.766 -0.3399  0.4132 -0.2977
11099TIP3    H154788   5.600   6.320   4.826  0.7728 -2.6031 -1.1129
11099TIP3    H254789   5.538   6.382   4.703  0.7124  1.1546  0.6830
11100TIP3   OH254790   4.738   3.466  12.926  0.1946 -0.4758  0.2949
11100TIP3    H154791   4.655   3.493  12.967 -0.4383 -1.1887 -0.4653
11100TIP3    H254792   4.757   3.381  12.966  1.2066  0.2129  1.3358
11101TIP3   OH254793   4.924   0.914  10.957 -0.6949  0.4269 -0.6551
11101TIP3    H154794   4.904   0.821  10.971  0.8617 -0.0291 -1.2187
11101TIP3    H254795   4.872   0.939  10.881 -3.2567  0.8279  1.0780
11102TIP3   OH254796   1.148   4.483   0.862 -0.0740  0.1603  0.0888
11102TIP3    H154797   1.086   4.447   0.799  0.4384  0.1203 -0.4028
11102TIP3    H254798   1.143   4.578   0.849 -0.2322  0.1721  0.2401
11103TIP3   OH254799   1.287   3.949   0.997 -0.7023 -0.4034  0.5850
11103TIP3    H154800   1.212   3.911   0.952 -0.1663 -0.4775 -0.2668
11103TIP3    H254801   1.274   4.044   0.989  0.0324 -0.3957 -0.8769
11104TIP3   OH254802   4.561   3.143   5.319  0.1369  0.6627 -0.0873
11104TIP3    H154803   4.619   3.070   5.297 -0.0873  0.4402  0.0415
11104TIP3    H254804   4.500   3.105   5.383 -1.7895  0.1535 -2.1164
11105TIP3   OH254805   1.451   0.753   6.142 -0.0585 -0.2761  0.0505
11105TIP3    H154806   1.492   0.839   6.132 -1.3412  0.4355  0.6039
11105TIP3    H254807   1.439   0.743   6.237 -0.8584 -0.5899 -0.0760
11106TIP3   OH254808   6.219   4.940   5.419  0.7940 -0.3051 -0.0173
11106TIP3    H154809   6.267   4.946   5.336  0.3515  2.2639 -0.1736
11106TIP3    H254810   6.127   4.927   5.392  0.5567  1.1623 -0.0195
11107TIP3   OH254811   2.024   2.912  15.293  0.6864  0.1693  0.2119
11107TIP3    H154812   1.987   2.989  15.336 -0.0591  0.2729 -0.5876
11107TIP3    H254813   1.965   2.895  15.219 -0.2147 -2.2541  1.3967
11108TIP3   OH254814   3.419   6.807  12.496 -0.0300  0.1348 -0.1075
11108TIP3    H154815   3.437   6.713  12.500  1.8339  0.4214 -0.9437
11108TIP3    H254816   3.383   6.821  12.408 -1.4343  0.0597  0.4276
11109TIP3   OH254817   2.628   2.991   4.059  0.2639  0.2954  0.1175
11109TIP3    H154818   2.543   2.997   4.102 -0.1591  0.4936 -0.7160
11109TIP3    H254819   2.645   2.897   4.052 -0.7775  0.1781 -1.3623
11110TIP3   OH254820   4.392   0.174   1.332 -0.9677  0.4803 -0.4566
11110TIP3    H154821   4.348   0.243   1.382  0.1310  1.6442 -1.0348
11110TIP3    H254822   4.393   0.099   1.391  0.6270  1.9259  1.4994
11111TIP3   OH254823   0.787   0.589   1.335  0.2863 -0.2921  0.2684
11111TIP3    H154824   0.778   0.589   1.239  1.8080 -1.4459  0.0897
11111TIP3    H254825   0.737   0.512   1.363 -1.6925  1.0370  0.6371
11112TIP3   OH254826   2.667   5.224  15.780  0.0639  0.1038  0.0667
11112TIP3    H154827   2.703   5.279  15.711 -0.2302 -0.9315 -0.9511
11112TIP3    H254828   2.740   5.167  15.805  0.0943  0.2963  0.4094
11113TIP3   OH254829   4.728   1.933   5.315 -0.3283 -0.4033  0.5362
11113TIP3    H154830   4.647   1.982   5.305 -0.4934 -0.5153  1.2709
11113TIP3    H254831   4.795   1.990   5.278 -0.6297  0.0372  0.6615
11114TIP3   OH254832   3.929   0.377   5.677 -0.7783 -0.2535  0.6666
11114TIP3    H154833   3.845   0.353   5.715 -1.6586 -1.7564 -1.9733
11114TIP3    H254834   3.966   0.294   5.648 -0.0065  0.7350 -1.3327
11115TIP3   OH254835   4.792   2.938  16.936  0.1903 -0.2376 -0.2922
11115TIP3    H154836   4.770   3.025  16.902 -0.7267 -0.0677  0.6807
11115TIP3    H254837   4.881   2.948  16.971 -0.3366  0.6575  0.8650
11116TIP3   OH254838   2.249   3.768  16.878 -0.0707 -0.2725 -0.2348
11116TIP3    H154839   2.313   3.839  16.871 -0.6764  0.1563 -1.9382
11116TIP3    H254840   2.302   3.689  16.883  0.6030  0.2050  0.4445
11117TIP3   OH254841   6.564   0.296  12.894 -0.2278 -0.0721  0.4191
11117TIP3    H154842   6.551   0.235  12.822  0.1966 -0.1905  0.4402
11117TIP3    H254843   6.642   0.346  12.870 -0.8082  0.7420  0.2114
11118TIP3   OH254844   4.965   3.194  15.289  0.3139  0.1360 -0.1890
11118TIP3    H154845   4.935   3.126  15.229 -2.0945 -0.8850  1.9898
11118TIP3    H254846   4.890   3.252  15.299  1.4617  1.6641  0.0515
11119TIP3   OH254847   3.330   4.941   0.693 -0.0797 -0.5271  0.2100
11119TIP3    H154848   3.389   5.004   0.652  1.5997 -1.0662  1.7158
11119TIP3    H254849   3.309   4.980   0.778  0.4470 -1.6720  0.8759
11120TIP3   OH254850   2.058   2.813   0.659 -0.2467  0.2557 -0.5480
11120TIP3    H154851   2.065   2.805   0.564 -0.3110  0.1029 -0.5396
11120TIP3    H254852   1.969   2.783   0.679  0.3830 -1.4983 -0.2425
11121TIP3   OH254853   6.109   1.490   4.909 -0.2165 -0.0621  0.7988
11121TIP3    H154854   6.193   1.523   4.877 -0.3656  0.1505  0.6209
11121TIP3    H254855   6.046   1.514   4.841 -0.6203  0.7980  1.4565
11122TIP3   OH254856   6.266   0.061  15.474  0.6780  0.4163 -0.2104
11122TIP3    H154857   6.302   0.059  15.562  0.2788 -1.0037 -0.0512
11122TIP3    H254858   6.172   0.043  15.486  0.7136 -0.3309 -0.9423
11123TIP3   OH254859   0.679   4.249  13.538 -0.2837 -0.5771  0.1312
11123TIP3    H154860   0.674   4.180  13.604 -1.1893  0.3562  1.0854
11123TIP3    H254861   0.772   4.272  13.533 -0.1633 -0.8977  0.8441
11124TIP3   OH254862   4.596   6.335  13.427  0.0153  0.6080  0.3661
11124TIP3    H154863   4.587   6.332  13.332  0.2606  1.2549  0.3230
11124TIP3    H254864   4.514   6.374  13.458 -0.1832  0.1448  0.4500
11125TIP3   OH254865   2.239   4.349  12.321  0.4632  0.0024  0.0501
11125TIP3    H154866   2.296   4.409  12.371  0.1720  0.4071 -0.1026
11125TIP3    H254867   2.175   4.318  12.385  0.4064  0.1206  0.0513
11126TIP3   OH254868   4.891   3.960  13.307 -0.8908  0.2163  0.2804
11126TIP3    H154869   4.827   4.025  13.275 -1.8571 -1.1252 -0.6215
11126TIP3    H254870   4.967   3.971  13.249 -0.2144  1.8901  1.4215
11127TIP3   OH254871   2.220   4.250  13.958 -0.1079 -0.4379  0.4620
11127TIP3    H154872   2.198   4.180  13.896 -0.3111 -0.4503  0.5502
11127TIP3    H254873   2.159   4.238  14.031 -0.6122  0.2740  0.1579
11128TIP3   OH254874   1.397   6.093   6.424  0.1954  0.1459 -0.1596
11128TIP3    H154875   1.455   6.029   6.465 -1.0926  0.7751  2.9988
11128TIP3    H254876   1.442   6.177   6.438 -0.7924  0.4923  1.1213
11129TIP3   OH254877   3.097   0.995  13.724 -0.0312  0.4205  0.3229
11129TIP3    H154878   3.169   0.968  13.667 -0.0613  2.3198 -0.6964
11129TIP3    H254879   3.131   1.071  13.772 -1.3703  1.4476 -0.2896
11130TIP3   OH254880   2.223   6.277  10.776  0.6322  0.4960  0.1239
11130TIP3    H154881   2.226   6.332  10.855  1.6475  2.0094 -0.8994
11130TIP3    H254882   2.190   6.336  10.708  2.0804 -0.0291 -1.0912
11131TIP3   OH254883   5.640   5.959   4.524 -0.3236 -0.5911 -0.3782
11131TIP3    H154884   5.727   5.923   4.541  0.4219  1.3215  0.1337
11131TIP3    H254885   5.603   5.972   4.612  0.6002  2.4802 -0.3331
11132TIP3   OH254886   4.730   3.664   4.781  0.5627  0.5608  0.4149
11132TIP3    H154887   4.700   3.575   4.764  1.3289  0.3248  0.2541
11132TIP3    H254888   4.649   3.715   4.794  0.1657 -0.5113  2.4187
11133TIP3   OH254889   5.520   3.929   1.459 -0.5938 -0.3839  0.3072
11133TIP3    H154890   5.482   3.979   1.386 -1.2529 -0.0072  0.8958
11133TIP3    H254891   5.560   3.853   1.418 -3.6051 -1.8119 -0.2073
11134TIP3   OH254892   1.776   3.141  14.600 -0.3318  0.5936  0.2143
11134TIP3    H154893   1.824   3.176  14.525 -0.7433  1.4479  0.3318
11134TIP3    H254894   1.844   3.127  14.667 -0.0568  0.4858 -0.0842
11135TIP3   OH254895   2.505   5.317   6.645 -0.4989 -0.5408 -0.1342
11135TIP3    H154896   2.435   5.376   6.673 -0.1584 -0.3631  0.3638
11135TIP3    H254897   2.560   5.307   6.723  0.7856  0.3956 -0.8763
11136TIP3   OH254898   3.399   3.983  11.901 -0.1046  0.3265 -0.9163
11136TIP3    H154899   3.487   4.021  11.911  0.3875 -0.9232 -0.1928
11136TIP3    H254900   3.415   3.890  11.889 -1.3740 -0.0825  0.2854
11137TIP3   OH254901   0.356   3.191   1.136 -0.0729  0.5190 -0.0433
11137TIP3    H154902   0.439   3.238   1.139 -1.6285  3.5909 -0.9805
11137TIP3    H254903   0.314   3.211   1.219  0.9487 -3.0196  1.5143
11138TIP3   OH254904   4.636   4.078  12.409 -0.7610 -0.4149  0.0671
11138TIP3    H154905   4.605   4.142  12.345  0.1618  0.8010  0.7846
11138TIP3    H254906   4.636   3.995  12.362 -1.1761  0.2594 -1.1610
11139TIP3   OH254907   0.262   4.459   4.497 -0.5182 -0.2686  0.6402
11139TIP3    H154908   0.342   4.413   4.473 -0.5981 -0.9488  1.6094
11139TIP3    H254909   0.241   4.512   4.421  0.5843 -0.4533  0.1874
11140TIP3   OH254910   1.243   2.874   4.576  0.3077 -0.1547 -0.2406
11140TIP3    H154911   1.285   2.897   4.659 -0.0509  2.3270 -0.6689
11140TIP3    H254912   1.294   2.800   4.543  0.4476 -1.2201  2.1553
11141TIP3   OH254913   3.768   0.481  12.428 -0.6407 -0.2158  0.0662
11141TIP3    H154914   3.842   0.480  12.367 -0.8346 -0.7253 -0.1693
11141TIP3    H254915   3.792   0.545  12.495  0.9084 -1.7635  1.0842
11142TIP3   OH254916   4.530   0.197  15.029  0.0369  0.0111 -0.9063
11142TIP3    H154917   4.618   0.212  15.063 -0.1343 -1.2250  0.1032
11142TIP3    H254918   4.532   0.235  14.941  1.9913 -1.1774 -1.4216
11143TIP3   OH254919   4.273   6.776  16.160 -0.0711  0.1943 -0.3007
11143TIP3    H154920   4.251   6.856  16.208 -0.2078 -0.1079  0.1509
11143TIP3    H254921   4.368   6.768  16.168  0.0455  0.7499 -1.0523
11144TIP3   OH254922   2.994   3.592  13.119  0.5492 -0.3854 -0.1879
11144TIP3    H154923   2.920   3.609  13.060 -2.4846 -0.9557  3.1157
11144TIP3    H254924   3.070   3.620  13.069 -1.9645  1.5771 -3.3834
11145TIP3   OH254925   3.256   5.623  16.773  0.4329 -0.8241  0.0192
11145TIP3    H154926   3.316   5.665  16.834  1.0029  0.9412 -1.6421
11145TIP3    H254927   3.186   5.688  16.759 -0.2881 -1.6541 -0.3164
11146TIP3   OH254928   5.090   3.058   6.078 -0.6283 -0.3521  0.1811
11146TIP3    H154929   5.029   3.013   6.137  0.7691 -1.4685  0.8357
11146TIP3    H254930   5.160   2.995   6.064  1.1046  1.3818  0.6268
11147TIP3   OH254931   1.344   5.092  12.424 -1.0367 -0.2261  1.1600
11147TIP3    H154932   1.384   5.078  12.509 -0.2062  1.6558  1.1288
11147TIP3    H254933   1.379   5.021  12.369  1.9144  1.0051  1.2777
11148TIP3   OH254934   5.660   0.831   2.127  0.3271 -0.1008  0.0197
11148TIP3    H154935   5.731   0.893   2.143 -0.6238  1.6505 -2.0768
11148TIP3    H254936   5.698   0.764   2.071  1.1752 -1.1425  1.7424
11149TIP3   OH254937   4.499   5.664  13.319 -0.3819  0.1744 -0.3645
11149TIP3    H154938   4.449   5.620  13.250  0.3481  0.4102 -1.0662
11149TIP3    H254939   4.496   5.757  13.295  1.5043  0.0713 -1.1994
11150TIP3   OH254940   3.898   0.082   5.804 -0.9785  0.4759 -0.0029
11150TIP3    H154941   3.841   0.006   5.814 -0.2094 -0.6585 -2.9540
11150TIP3    H254942   3.962   0.074   5.874 -2.4112 -0.1424  1.2726
11151TIP3   OH254943   6.559   2.352   4.889  0.1672  0.0995 -0.5561
11151TIP3    H154944   6.548   2.446   4.872 -0.3431  0.4199  1.3180
11151TIP3    H254945   6.492   2.332   4.955  1.4647 -1.1685  0.4330
11152TIP3   OH254946   6.557   1.268   4.047  0.5356 -0.2064 -0.2549
11152TIP3    H154947   6.549   1.195   4.108 -1.2313  0.1859  0.0439
11152TIP3    H254948   6.478   1.262   3.993  0.4957  1.3203 -0.3915
11153TIP3   OH254949   1.285   1.531  16.309 -0.0549  0.2233 -0.9058
11153TIP3    H154950   1.318   1.443  16.290 -1.6379 -1.4683  3.1343
11153TIP3    H254951   1.192   1.528  16.285 -0.6111  0.0396  1.1519
11154TIP3   OH254952   3.524   2.310  16.951  0.0719  0.1897 -0.0752
11154TIP3    H154953   3.603   2.259  16.932 -0.4618 -0.7290  0.1490
11154TIP3    H254954   3.553   2.401  16.941  1.1383 -0.1275 -0.0806
11155TIP3   OH254955   2.638   2.895   1.871 -0.4454 -0.0703  0.1645
11155TIP3    H154956   2.684   2.815   1.896 -1.0874 -0.8468 -1.0508
11155TIP3    H254957   2.622   2.940   1.954  0.3244 -0.9723  0.8293
11156TIP3   OH254958   5.768   6.559   4.854 -0.4974 -0.1489 -0.0012
11156TIP3    H154959   5.832   6.488   4.844  0.7172  0.8005  0.6357
11156TIP3    H254960   5.775   6.584   4.947 -1.0053  0.6935 -0.1821
11157TIP3   OH254961   6.663   5.539   1.022  0.2125  0.1694 -0.1742
11157TIP3    H154962   6.615   5.458   1.040  0.6967 -0.2244 -0.6004
11157TIP3    H254963   6.754   5.518   1.045  0.4599  0.3580 -0.9355
11158TIP3   OH254964   4.235   4.452   2.523  0.1109  0.5731  0.7065
11158TIP3    H154965   4.266   4.497   2.602  0.8546  0.1738  0.6442
11158TIP3    H254966   4.245   4.359   2.543 -1.9077  0.3738  1.0424
11159TIP3   OH254967   4.823   5.405  15.689 -0.1133 -0.7760 -0.1648
11159TIP3    H154968   4.755   5.342  15.667 -0.5963 -0.3285  0.0143
11159TIP3    H254969   4.876   5.362  15.756 -3.1651  0.6294  3.4769
11160TIP3   OH254970   2.986   4.787  12.547  0.1427  0.0631 -0.3793
11160TIP3    H154971   2.927   4.750  12.613 -0.3393  1.4693  0.0107
11160TIP3    H254972   3.037   4.853  12.594  2.1815 -1.2252 -0.6797
11161TIP3   OH254973   1.596   6.340   2.187  0.2267  0.0629  0.0867
11161TIP3    H154974   1.514   6.368   2.227 -0.2854 -1.2602  0.0176
11161TIP3    H254975   1.659   6.336   2.260  0.5008  1.9418 -0.0051
11162TIP3   OH254976   1.160   4.002   4.172 -0.0221 -0.0058  0.1201
11162TIP3    H154977   1.251   4.028   4.161 -0.0639 -0.0249 -0.2820
11162TIP3    H254978   1.134   4.042   4.255  0.1182  0.6751 -0.1496
11163TIP3   OH254979   3.026   0.744  13.205  0.1119 -0.9186 -0.0436
11163TIP3    H154980   2.997   0.653  13.213 -0.1947 -0.8552 -0.3792
11163TIP3    H254981   3.046   0.771  13.294 -0.2257 -1.1790  0.1125
11164TIP3   OH254982   5.114   3.382   3.223  0.1434 -0.5356  0.0462
11164TIP3    H154983   5.195   3.371   3.272  0.3325  2.2757  0.5203
11164TIP3    H254984   5.104   3.300   3.175  2.5483 -1.4739  0.9800
11165TIP3   OH254985   0.544   0.448   5.817  0.0487 -0.5450  0.1436
11165TIP3    H154986   0.613   0.508   5.845 -0.5453  0.0989  0.2679
11165TIP3    H254987   0.567   0.365   5.858  0.2725 -0.1127  0.9223
11166TIP3   OH254988   4.958   4.809  16.822 -0.2074 -0.0253 -0.2111
11166TIP3    H154989   5.002   4.784  16.741 -1.0641 -1.1742 -0.3403
11166TIP3    H254990   4.996   4.753  16.889 -0.6165 -0.1757 -0.1026
11167TIP3   OH254991   6.203   6.263  11.766  0.0532 -0.1183  0.1829
11167TIP3    H154992   6.270   6.223  11.712 -0.0839 -0.6589  0.4112
11167TIP3    H254993   6.147   6.190  11.794  0.6272  0.0068  1.7801
11168TIP3   OH254994   6.058   4.312  15.104  0.0503  0.2757  0.3209
11168TIP3    H154995   5.989   4.361  15.148  0.6336  1.2051  0.2278
11168TIP3    H254996   6.021   4.291  15.018 -1.1314 -1.6377  1.2270
11169TIP3   OH254997   0.423   1.226  15.695  0.1620  0.1800 -0.4202
11169TIP3    H154998   0.514   1.222  15.724 -0.1914 -0.4755  0.6849
11169TIP3    H254999   0.427   1.254  15.604  1.5315 -1.0330 -0.7631
11170TIP3   OH255000   3.906   5.291   1.831 -0.0139 -0.4170 -0.1194
11170TIP3    H155001   3.988   5.309   1.786 -0.7447 -0.0335 -1.3413
11170TIP3    H255002   3.850   5.366   1.810 -0.5243 -0.4335  1.0926
11171TIP3   OH255003   3.657   0.802  17.104  0.5988 -0.0651 -0.2533
11171TIP3    H155004   3.630   0.803  17.012 -1.2447  0.1323  0.2580
11171TIP3    H255005   3.673   0.895  17.124 -2.0556  0.3072  0.4299
11172TIP3   OH255006   1.930   0.556  12.375 -0.4404 -0.6688  0.1362
11172TIP3    H155007   1.972   0.503  12.308 -1.3329 -1.6165  0.2984
11172TIP3    H255008   1.862   0.605  12.328 -0.5141 -0.7018  0.2072
11173TIP3   OH255009   1.553   6.259  13.451  0.5773  0.2063  0.1950
11173TIP3    H155010   1.569   6.325  13.384  1.7393 -0.0709  0.1749
11173TIP3    H255011   1.515   6.185  13.403  0.4608  0.3858  0.0095
11174TIP3   OH255012   6.183   1.449  13.842  0.1544 -0.6436  0.2229
11174TIP3    H155013   6.111   1.444  13.904  0.7783 -0.5682  0.9608
11174TIP3    H255014   6.244   1.381  13.870  0.5246 -0.4942 -0.2014
11175TIP3   OH255015   6.702   3.747   0.970  0.0662  0.1296 -0.3872
11175TIP3    H155016   6.675   3.839   0.965 -1.0640 -0.0914  1.0119
11175TIP3    H255017   6.778   3.748   1.028  0.8062  0.3006 -1.3327
11176TIP3   OH255018   6.636   2.098  15.460  0.2329 -0.2435  0.1626
11176TIP3    H155019   6.642   2.188  15.430  0.4168  0.0565  1.0708
11176TIP3    H255020   6.564   2.060  15.409 -0.5138  0.7031  0.4977
11177TIP3   OH255021   3.051   5.939  16.434 -0.3629  0.1054 -0.2023
11177TIP3    H155022   2.970   5.989  16.428 -0.8431 -0.5914  0.2951
11177TIP3    H255023   3.048   5.880  16.359 -0.2218  0.2029 -0.2862
11178TIP3   OH255024   0.018   2.497  11.732  0.4692  0.4689  0.2353
11178TIP3    H155025  -0.028   2.413  11.744 -1.5337  1.4672 -0.0522
11178TIP3    H255026   0.018   2.511  11.638 -0.9461  1.6590  0.3737
11179TIP3   OH255027   4.826   5.487  13.769 -0.0247  0.2682 -0.0016
11179TIP3    H155028   4.803   5.571  13.729  0.6381  1.2475  1.5342
11179TIP3    H255029   4.854   5.511  13.858  0.0752 -1.6072  0.5051
11180TIP3   OH255030   3.876   1.128   2.433 -0.2777  0.0655  0.6182
11180TIP3    H155031   3.885   1.196   2.366  0.2999  0.4560  1.0791
11180TIP3    H255032   3.813   1.164   2.496 -0.6352 -0.2000  0.4205
11181TIP3   OH255033   6.819   5.794   5.181 -0.1697 -0.3494  0.4779
11181TIP3    H155034   6.884   5.771   5.114 -1.3991  0.8475 -1.1923
11181TIP3    H255035   6.800   5.886   5.165 -1.8916 -0.5383  1.2545
11182TIP3   OH255036   6.245   2.553  15.015 -0.0202 -0.0598  0.0804
11182TIP3    H155037   6.324   2.564  14.963 -0.0027  0.3055  0.1862
11182TIP3    H255038   6.183   2.617  14.980 -0.1235 -0.0492  0.2802
11183TIP3   OH255039   3.789   1.499   0.374  0.2010  0.0036 -0.1681
11183TIP3    H155040   3.734   1.430   0.338  0.2517  0.3853 -0.9899
11183TIP3    H255041   3.771   1.576   0.321 -0.6063  0.9229  1.3635
11184TIP3   OH255042   0.447   3.933  14.955 -0.7801 -0.6070  0.0843
11184TIP3    H155043   0.507   4.008  14.958  0.2532 -1.4206  1.0137
11184TIP3    H255044   0.385   3.949  15.026 -0.8828 -0.3745 -0.0588
11185TIP3   OH255045   6.838   2.905  14.933  0.2032  0.0509  0.2830
11185TIP3    H155046   6.923   2.939  14.905  0.0421 -0.0924 -0.3904
11185TIP3    H255047   6.792   2.982  14.967  0.2657  0.2993 -0.1814
11186TIP3   OH255048   6.518   6.092  11.969 -0.1622  0.9259  0.3306
11186TIP3    H155049   6.505   6.166  11.910 -0.2755  0.2428 -0.5260
11186TIP3    H255050   6.580   6.035  11.922 -0.8773 -0.0114  0.4989
11187TIP3   OH255051   4.070   4.963  13.702  0.2193  0.5876 -0.0403
11187TIP3    H155052   4.080   5.000  13.790  0.7825 -1.4948  0.8285
11187TIP3    H255053   4.044   4.872  13.717 -0.4762  0.3973 -2.0684
11188TIP3   OH255054   0.067   1.853   5.210 -0.1192 -0.2249  0.3518
11188TIP3    H155055   0.156   1.829   5.235 -0.2943 -2.7598 -1.0784
11188TIP3    H255056   0.012   1.810   5.275 -0.3200  1.2073  1.1429
11189TIP3   OH255057   5.849   1.622  12.639  0.3560  0.0895  0.3509
11189TIP3    H155058   5.768   1.647  12.684  1.6629  1.3145  2.1388
11189TIP3    H255059   5.821   1.557  12.574 -2.5817  2.7856 -1.3987
11190TIP3   OH255060   5.423   6.047   0.361  0.1384  0.5871 -0.0960
11190TIP3    H155061   5.364   6.038   0.435  0.5970  0.4705  0.2571
11190TIP3    H255062   5.378   6.106   0.301 -1.0565 -0.7041 -0.5437
11191TIP3   OH255063   0.872   5.896  11.493 -0.1927  0.4395 -0.8765
11191TIP3    H155064   0.812   5.959  11.532  1.0279 -0.3684  2.8304
11191TIP3    H255065   0.956   5.942  11.488  0.0139  0.0521 -1.1048
11192TIP3   OH255066   6.271   1.779  16.817 -0.2512 -0.4238  0.3184
11192TIP3    H155067   6.347   1.743  16.864 -0.1158  0.9903  1.2597
11192TIP3    H255068   6.199   1.720  16.840  0.4703 -1.6136 -0.3476
11193TIP3   OH255069   2.857   5.313   0.886  0.5606 -0.0421  0.2296
11193TIP3    H155070   2.819   5.398   0.907  0.0455  0.0638 -1.0549
11193TIP3    H255071   2.822   5.254   0.953 -1.0431  0.2715 -0.2877
11194TIP3   OH255072   1.863   4.010  17.001  0.4619  0.3112  0.6360
11194TIP3    H155073   1.902   3.963  16.928 -1.6561 -1.7448  0.7143
11194TIP3    H255074   1.938   4.039  17.053  1.9565  0.0728 -1.2638
11195TIP3   OH255075   6.772   3.579  12.177 -0.3010  0.1260 -0.0371
11195TIP3    H155076   6.694   3.558  12.228 -0.7584 -0.0448 -0.7907
11195TIP3    H255077   6.837   3.606  12.242 -1.1423  0.7649  0.5582
11196TIP3   OH255078   1.648   3.767  15.672 -0.3569 -0.1470  0.3779
11196TIP3    H155079   1.575   3.824  15.649  0.2370  0.7394  0.6167
11196TIP3    H255080   1.617   3.679  15.652 -0.7216  0.3679 -1.5668
11197TIP3   OH255081   5.969   1.582   5.243  0.5658  0.5559 -0.2981
11197TIP3    H155082   5.936   1.504   5.198  1.9912 -0.2853  0.0402
11197TIP3    H255083   6.031   1.548   5.307  1.9869  2.0156 -0.8291
11198TIP3   OH255084   0.323   1.239  14.871 -0.0214  0.0425 -0.0629
11198TIP3    H155085   0.416   1.225  14.855  0.0305  1.0302 -0.6900
11198TIP3    H255086   0.279   1.171  14.821  0.3813 -1.0572  1.0298
11199TIP3   OH255087   5.239   5.586  14.163  0.3310 -0.0016  0.4668
11199TIP3    H155088   5.181   5.615  14.092  0.4508 -0.9701 -0.0417
11199TIP3    H255089   5.207   5.499  14.187 -0.3810  0.7323  2.3673
11200TIP3   OH255090   1.518   0.692   0.274 -0.0008  0.3730 -0.1175
11200TIP3    H155091   1.518   0.704   0.369 -0.4567 -2.3593  0.2919
11200TIP3    H255092   1.445   0.747   0.244  0.1285  1.2587  1.1006
11201TIP3   OH255093   0.520   6.684  12.479  0.0597 -0.1903 -0.1654
11201TIP3    H155094   0.591   6.746  12.462 -0.7037  0.1840 -2.4300
11201TIP3    H255095   0.455   6.735  12.528  0.2175  0.2653 -0.4220
11202TIP3   OH255096   6.269   3.272   2.119  0.5256 -0.1996  0.0620
11202TIP3    H155097   6.242   3.189   2.079 -2.7024 -0.8490  3.0749
11202TIP3    H255098   6.196   3.332   2.102  2.0268  1.5435 -0.5371
11203TIP3   OH255099   0.536   4.188  11.832 -0.4303 -0.1000 -0.4840
11203TIP3    H155100   0.626   4.184  11.864 -0.3868 -0.6888 -0.6706
11203TIP3    H255101   0.544   4.213  11.740 -0.3728 -1.4451 -0.8608
11204TIP3   OH255102   3.663   4.201  12.826 -0.2465  0.2581  0.0356
11204TIP3    H155103   3.658   4.279  12.770  1.6017 -0.2972 -0.9882
11204TIP3    H255104   3.617   4.133  12.776  0.4804  0.0311 -0.3368
11205TIP3   OH255105   6.227   2.636   2.857 -0.2561  0.1675  0.2483
11205TIP3    H155106   6.186   2.551   2.872  0.4673 -0.5101 -1.4216
11205TIP3    H255107   6.157   2.690   2.822 -0.1324 -0.5332 -1.1413
11206TIP3   OH255108   2.234   6.622  15.928 -1.0739 -0.1555 -0.0345
11206TIP3    H155109   2.170   6.601  15.861 -1.9115 -0.2238  0.7585
11206TIP3    H255110   2.232   6.546  15.987  1.7138 -1.4413 -1.3978
11207TIP3   OH255111   5.943   5.690  16.271 -0.0557  0.1378 -0.1063
11207TIP3    H155112   6.005   5.763  16.267 -0.9498  0.9106 -0.3028
11207TIP3    H255113   5.880   5.709  16.201  1.6998 -2.7724 -2.7707
11208TIP3   OH255114   6.493   4.613  15.650 -0.1151  0.8401 -0.1781
11208TIP3    H155115   6.480   4.520  15.631  0.2230  0.8096 -0.2747
11208TIP3    H255116   6.421   4.636  15.709  1.0725 -0.0469  1.7151
11209TIP3   OH255117   3.986   5.764   3.049  0.8875 -0.5282  0.6697
11209TIP3    H155118   4.022   5.820   3.118  0.0926 -1.3629  1.7996
11209TIP3    H255119   4.053   5.697   3.035  0.2703 -1.4505  1.9974
11210TIP3   OH255120   0.371   1.010  13.422  0.2257  0.9848 -0.8532
11210TIP3    H155121   0.465   1.023  13.408  0.6951 -3.4139 -4.0990
11210TIP3    H255122   0.364   0.985  13.514  2.2326  1.3122 -0.5523
11211TIP3   OH255123   2.445   1.509  12.727  0.3910  0.0610 -0.3645
11211TIP3    H155124   2.491   1.517  12.643  0.6988 -0.3523 -0.2413
11211TIP3    H255125   2.392   1.588  12.733 -0.7678 -0.5781 -1.6308
11212TIP3   OH255126   2.132   2.739   3.593  0.4178  0.0837 -0.4186
11212TIP3    H155127   2.073   2.813   3.607  0.2908 -0.2727  1.1952
11212TIP3    H255128   2.094   2.690   3.521 -1.6426 -0.4843  0.9791
11213TIP3   OH255129   6.110   2.220   1.595  0.4490 -0.3076 -0.4419
11213TIP3    H155130   6.058   2.287   1.637 -0.8227 -1.4831 -0.0608
11213TIP3    H255131   6.199   2.256   1.592 -0.1934  1.3452 -0.2391
11214TIP3   OH255132   0.673   4.193  14.382 -0.3493  0.3500 -0.9242
11214TIP3    H155133   0.601   4.156  14.433 -0.5681  1.0412 -0.7349
11214TIP3    H255134   0.654   4.286  14.376 -0.1073  0.3475 -1.9168
11215TIP3   OH255135   3.951   6.132  13.580 -0.1727  0.0194  0.6235
11215TIP3    H155136   3.959   6.140  13.485 -1.1003  1.8567  0.6651
11215TIP3    H255137   3.996   6.209  13.615  0.6470 -0.9114  1.7288
11216TIP3   OH255138   1.623   5.038   2.579 -0.1778  0.1702  0.2880
11216TIP3    H155139   1.713   5.034   2.611 -0.6029 -1.1825  1.4053
11216TIP3    H255140   1.584   4.954   2.603 -1.4259  0.2662 -1.1898
11217TIP3   OH255141   4.619   2.148   2.057 -0.1319  0.5536  0.7956
11217TIP3    H155142   4.618   2.068   2.111 -0.6352  1.1019  1.6337
11217TIP3    H255143   4.709   2.180   2.063 -0.4940  1.4119  2.5999
11218TIP3   OH255144   5.370   6.529  15.832  0.3268 -0.7797 -0.5230
11218TIP3    H155145   5.407   6.585  15.901 -0.0846 -2.5225  1.2143
11218TIP3    H255146   5.312   6.586  15.783  0.9314  0.6235  0.3402
11219TIP3   OH255147   4.148   2.750  12.405 -0.1971  0.3167  0.2784
11219TIP3    H155148   4.127   2.842  12.388 -0.0331  0.4556  0.8056
11219TIP3    H255149   4.185   2.718  12.323 -2.0911  0.1676 -0.5639
11220TIP3   OH255150   2.663   1.471   2.824  0.5483 -0.4512  0.6503
11220TIP3    H155151   2.629   1.542   2.880  1.1800 -0.3395  0.8996
11220TIP3    H255152   2.710   1.517   2.754  1.2901 -0.6291  1.0269
11221TIP3   OH255153   6.457   1.265  15.386 -0.8393 -0.3561 -0.2942
11221TIP3    H155154   6.484   1.320  15.460  2.7151 -1.3530 -0.6614
11221TIP3    H255155   6.437   1.327  15.316  1.4652  0.5828 -0.1986
11222TIP3   OH255156   0.947   6.837  17.007  0.1443  1.3751 -0.3012
11222TIP3    H155157   0.935   6.878  17.092  0.0195  0.5442  0.0877
11222TIP3    H255158   0.922   6.746  17.020  1.8043  0.8135 -0.7806
11223TIP3   OH255159   5.239   1.427  13.868 -0.2038 -0.3660  0.4084
11223TIP3    H155160   5.218   1.509  13.823 -0.8751 -0.9954 -0.4665
11223TIP3    H255161   5.333   1.431  13.882 -0.0853  0.1461 -0.4678
11224TIP3   OH255162   6.164   6.086  14.935 -0.1072 -0.4926 -0.6493
11224TIP3    H155163   6.228   6.118  15.000 -1.8346 -0.3965  1.0923
11224TIP3    H255164   6.163   6.154  14.868  0.4763  0.2879  0.0959
11225TIP3   OH255165   4.313   2.629   4.534 -0.0579 -0.0505 -0.1525
11225TIP3    H155166   4.339   2.626   4.626 -0.1237 -0.9566 -0.1487
11225TIP3    H255167   4.227   2.671   4.535  0.0947  0.2622  0.1584
11226TIP3   OH255168   1.863   0.750   2.660 -0.0369 -0.4066 -0.1319
11226TIP3    H155169   1.843   0.678   2.600 -1.0830  0.8346 -1.3623
11226TIP3    H255170   1.777   0.788   2.681  0.4925  0.4785  0.4893
11227TIP3   OH255171   6.148   0.455   2.271 -0.7051  0.6234  1.1198
11227TIP3    H155172   6.171   0.539   2.233 -0.2690  0.6954  1.5353
11227TIP3    H255173   6.065   0.431   2.230  0.6086 -0.1562 -1.2335
11228TIP3   OH255174   3.350   5.579   3.837  0.0946  0.2041  0.4903
11228TIP3    H155175   3.335   5.505   3.897 -0.4761  0.0877  0.2093
11228TIP3    H255176   3.264   5.620   3.827  0.3413  0.6944  0.3623
11229TIP3   OH255177   6.552   5.566   2.081 -0.2269 -0.1835  0.4530
11229TIP3    H155178   6.477   5.531   2.129 -0.1868 -0.2946  0.4356
11229TIP3    H255179   6.562   5.656   2.113  0.1367 -0.4290  1.0451
11230TIP3   OH255180   3.850   5.055  15.926  0.2271  0.0874 -0.0983
11230TIP3    H155181   3.817   5.004  15.999 -1.8074  0.6348 -0.5688
11230TIP3    H255182   3.805   5.139  15.933  0.7193  0.4901 -1.4255
11231TIP3   OH255183   3.448   4.457  14.678  0.7862  0.0219 -0.7323
11231TIP3    H155184   3.455   4.374  14.632  0.4955 -0.3370 -0.1439
11231TIP3    H255185   3.400   4.436  14.759 -0.4884  0.9892 -1.2010
11232TIP3   OH255186   0.382   6.433  16.868  0.1669 -0.3010  0.2835
11232TIP3    H155187   0.425   6.454  16.951 -0.8556  3.1070  0.0974
11232TIP3    H255188   0.446   6.458  16.801 -1.2360  3.1353  0.0441
11233TIP3   OH255189   5.008   2.518   4.502 -0.1269  0.1067  0.1347
11233TIP3    H155190   5.050   2.510   4.587  0.5882 -2.7245 -0.3753
11233TIP3    H255191   4.954   2.440   4.494 -2.0727  1.4829 -1.0746
11234TIP3   OH255192   6.779   6.056   1.428  0.7294 -0.6111  0.7476
11234TIP3    H155193   6.789   6.016   1.342  1.2685  0.9742  0.0324
11234TIP3    H255194   6.712   6.124   1.415  1.5088  0.2930  1.3242
11235TIP3   OH255195   2.450   0.777   2.964 -0.4868 -0.0621 -0.3798
11235TIP3    H155196   2.389   0.813   3.028 -1.1201 -1.0335 -0.4195
11235TIP3    H255197   2.464   0.848   2.902 -0.2555  0.7235  0.5437
11236TIP3   OH255198   6.049   4.632   1.238 -0.5121 -0.4257  0.0670
11236TIP3    H155199   6.097   4.551   1.221 -1.2724 -0.5281 -1.9144
11236TIP3    H255200   6.105   4.701   1.202 -0.8174 -0.3193 -0.2155
11237TIP3   OH255201   2.109   4.986  14.238 -0.4710  0.7608  0.0215
11237TIP3    H155202   2.165   5.011  14.165 -0.5096  1.9837  0.3808
11237TIP3    H255203   2.045   5.057  14.245 -1.9737 -0.5018 -0.2577
11238TIP3   OH255204   0.792   1.592  16.423 -0.1960 -0.0914 -0.3917
11238TIP3    H155205   0.814   1.623  16.511  0.5437 -0.3709 -0.4693
11238TIP3    H255206   0.743   1.511  16.438 -0.6329  0.1980 -0.2291
11239TIP3   OH255207   1.804   4.502   2.136  0.5919 -0.5728 -0.4775
11239TIP3    H155208   1.758   4.506   2.220  0.3679  1.0283 -0.6565
11239TIP3    H255209   1.753   4.558   2.078  1.3649 -0.7867 -1.3876
11240TIP3   OH255210   2.375   2.955  11.043  0.2871 -0.2073 -0.0624
11240TIP3    H155211   2.397   2.870  11.081 -0.5933 -0.1224  0.6817
11240TIP3    H255212   2.286   2.944  11.008  0.5069  0.1518 -0.7442
11241TIP3   OH255213   1.626   1.943  14.934  0.3101  0.4150 -0.0327
11241TIP3    H155214   1.663   1.868  14.981  1.7022  0.5089 -0.9075
11241TIP3    H255215   1.583   1.995  15.002 -0.4848 -1.0434  0.6196
11242TIP3   OH255216   5.732   0.144   1.856  0.6804  0.1534 -0.3382
11242TIP3    H155217   5.784   0.205   1.804  0.0984 -0.3854 -1.6240
11242TIP3    H255218   5.761   0.057   1.827 -0.4146 -0.1517 -0.5615
11243TIP3   OH255219   3.084   5.806  10.921 -0.2355 -0.7908 -0.1022
11243TIP3    H155220   3.130   5.744  10.977  0.1788 -1.9017 -1.6292
11243TIP3    H255221   2.992   5.796  10.945 -0.0388 -0.9872  0.6076
11244TIP3   OH255222   0.922   2.616  13.458 -0.1898  0.2183  0.5457
11244TIP3    H155223   0.946   2.536  13.411  0.3815  0.1236  0.9815
11244TIP3    H255224   0.870   2.584  13.533  0.1836  0.2397  0.8146
11245TIP3   OH255225   6.629   2.692  12.635  0.3565 -0.6330  0.0373
11245TIP3    H155226   6.536   2.712  12.646  0.5501 -0.2673  1.0689
11245TIP3    H255227   6.675   2.772  12.662  0.9668 -0.7107 -0.7358
11246TIP3   OH255228   0.180   3.854  15.634  0.2406  0.3857  0.1299
11246TIP3    H155229   0.091   3.855  15.598 -0.2805 -1.1320  1.2491
11246TIP3    H255230   0.172   3.896  15.719  0.3541 -0.6601  0.6754
11247TIP3   OH255231   5.257   0.589  15.827  0.5416 -0.0568  0.4560
11247TIP3    H155232   5.218   0.602  15.914  1.3062 -1.3506  1.0131
11247TIP3    H255233   5.337   0.641  15.829  0.4720  0.0520  0.4553
11248TIP3   OH255234   3.861   3.834  12.996  0.0744 -0.2998 -0.3458
11248TIP3    H155235   3.833   3.926  13.000  0.2674 -0.2554  0.0529
11248TIP3    H255236   3.948   3.835  13.035  0.1475 -0.6289 -0.5009
11249TIP3   OH255237   5.641   5.883   2.708 -0.8073  0.5300 -0.0230
11249TIP3    H155238   5.634   5.922   2.620  1.0119  1.9895  0.4029
11249TIP3    H255239   5.641   5.789   2.693 -3.2198  0.6686 -1.3182
11250TIP3   OH255240   5.800   3.491  10.712 -0.4623  0.2153  1.0369
11250TIP3    H155241   5.715   3.509  10.753 -1.1072 -0.9446  0.2872
11250TIP3    H255242   5.803   3.395  10.705  0.7145  0.2633  0.6291
11251TIP3   OH255243   1.064   6.648   0.676  0.2771  0.3462  0.3053
11251TIP3    H155244   1.154   6.628   0.650 -0.4784 -1.3730 -1.1950
11251TIP3    H255245   1.011   6.622   0.601 -1.4978  1.2762  1.1740
11252TIP3   OH255246   4.691   6.054  16.182  1.1491  0.6134  0.0299
11252TIP3    H155247   4.693   6.146  16.154 -0.1548  1.1536  1.5449
11252TIP3    H255248   4.669   6.005  16.102  0.0234  1.8186 -0.4362
11253TIP3   OH255249   4.502   4.047  12.018  0.1988 -0.6586 -0.7016
11253TIP3    H155250   4.465   4.023  11.933 -0.1680  0.8281 -0.9852
11253TIP3    H255251   4.560   4.120  11.999  0.1342 -0.3293  0.3186
11254TIP3   OH255252   2.889   2.453   5.150  0.3075 -0.1171  0.1852
11254TIP3    H155253   2.833   2.480   5.223  0.2308 -0.0175  0.0891
11254TIP3    H255254   2.943   2.530   5.131 -0.4350  0.2239 -0.5817
11255TIP3   OH255255   3.714   2.950   3.671 -0.8684  0.0716 -0.3919
11255TIP3    H155256   3.799   2.911   3.650 -0.7663 -0.4440  0.8792
11255TIP3    H255257   3.713   2.953   3.767 -1.7023  1.3825 -0.4185
11256TIP3   OH255258   3.219   3.756   4.221  0.2244 -0.0806  0.4837
11256TIP3    H155259   3.186   3.669   4.199  1.3957 -0.2175 -0.8795
11256TIP3    H255260   3.207   3.807   4.141 -0.2257  0.9581  1.1944
11257TIP3   OH255261   1.467   0.308   4.758  0.5358  0.2159  0.2035
11257TIP3    H155262   1.427   0.344   4.679 -0.2780 -0.0199  0.4981
11257TIP3    H255263   1.410   0.337   4.829 -0.5809 -2.2234  0.3907
11258TIP3   OH255264   5.104   0.326  13.012  0.2289 -0.9659  0.6613
11258TIP3    H155265   5.013   0.317  12.985  0.6322 -1.5722 -0.5629
11258TIP3    H255266   5.114   0.418  13.035 -0.8481 -1.0263  1.4477
11259TIP3   OH255267   2.096   5.737   2.220  0.2447 -0.0046 -0.1450
11259TIP3    H155268   2.142   5.678   2.161 -0.4885 -0.2890 -0.4343
11259TIP3    H255269   2.029   5.683   2.261 -0.3340  0.5872 -0.2967
11260TIP3   OH255270   6.781   5.215  12.884 -0.2405  0.0158  0.0900
11260TIP3    H155271   6.701   5.162  12.889  0.8496 -1.8511 -0.9779
11260TIP3    H255272   6.770   5.268  12.805 -0.7456  0.3654  0.3879
11261TIP3   OH255273   5.311   2.910  15.079  0.4571  0.1575  0.1202
11261TIP3    H155274   5.372   2.910  15.152  1.9925  0.4688 -1.1079
11261TIP3    H255275   5.362   2.879  15.004 -1.3497 -1.2568 -0.6248
11262TIP3   OH255276   5.769   3.338   1.842 -0.0555  0.0931 -0.4706
11262TIP3    H155277   5.703   3.390   1.888 -0.3136 -0.4263 -0.2492
11262TIP3    H255278   5.718   3.281   1.784  0.1523 -0.9796  0.3903
11263TIP3   OH255279   0.717   4.195  12.923 -0.5437  0.1426  0.4227
11263TIP3    H155280   0.683   4.263  12.981  0.7867  1.1744  0.0378
11263TIP3    H255281   0.765   4.136  12.981  1.0358  1.3343  0.3923
11264TIP3   OH255282   0.149   4.891   1.863 -0.0002 -0.0590  0.1343
11264TIP3    H155283   0.191   4.971   1.895 -0.9172  0.2675  0.5725
11264TIP3    H255284   0.056   4.903   1.884 -0.3474 -0.6769 -0.9578
11265TIP3   OH255285   5.620   1.234  14.829  0.3301  0.0278 -0.1621
11265TIP3    H155286   5.605   1.288  14.752 -2.0786  1.3411  1.1274
11265TIP3    H255287   5.544   1.176  14.833  0.4999 -0.1376  1.1311
11266TIP3   OH255288   5.339   1.228  13.308  0.4349 -0.6993 -0.3392
11266TIP3    H155289   5.276   1.161  13.334 -0.6145  0.4291  0.1244
11266TIP3    H255290   5.288   1.291  13.257  1.0967  0.3899  0.2988
11267TIP3   OH255291   5.180   1.228  10.490  0.5569  0.3170  0.7064
11267TIP3    H155292   5.209   1.262  10.574 -0.5076 -0.6992  1.5064
11267TIP3    H255293   5.104   1.174  10.510  0.9682 -0.8850 -0.7615
11268TIP3   OH255294   0.484   2.042   0.450 -0.1675 -0.2465  0.1133
11268TIP3    H155295   0.547   2.086   0.507 -0.1348 -0.8043  0.5168
11268TIP3    H255296   0.502   1.949   0.463  0.1221 -0.3748 -1.1267
11269TIP3   OH255297   5.268   0.136  16.991  0.5973  0.8961  0.2922
11269TIP3    H155298   5.260   0.072  17.061 -0.1150 -0.6340 -1.1273
11269TIP3    H255299   5.240   0.090  16.912  1.6715  2.4461 -1.0859
11270TIP3   OH255300   5.116   5.697   2.061  0.2267  0.1656 -0.5299
11270TIP3    H155301   5.046   5.678   2.124 -0.2385 -0.7020 -1.2939
11270TIP3    H255302   5.196   5.695   2.113  0.2312 -3.7946 -0.4410
11271TIP3   OH255303   2.432   5.322  11.416  0.4929  0.1632  0.4598
11271TIP3    H155304   2.473   5.406  11.437  0.3618  0.3244  0.0880
11271TIP3    H255305   2.435   5.272  11.498  0.0546  0.7462  0.8354
11272TIP3   OH255306   1.237   3.417  12.246  0.4311  0.7659  0.2032
11272TIP3    H155307   1.181   3.341  12.234  3.9319 -1.7974 -1.5682
11272TIP3    H255308   1.235   3.463  12.162  1.5057  0.2142 -0.1408
11273TIP3   OH255309   1.618   5.303  12.720  0.1239  0.4310  0.1813
11273TIP3    H155310   1.616   5.391  12.757  0.0916  0.7577 -0.5647
11273TIP3    H255311   1.535   5.264  12.746 -0.7550  1.3306 -1.0951
11274TIP3   OH255312   2.629   4.350  14.579 -0.2088 -0.3024 -0.0925
11274TIP3    H155313   2.630   4.394  14.494  1.1803 -0.4958 -0.1927
11274TIP3    H255314   2.706   4.384  14.625 -0.5653 -0.7049  0.8326
11275TIP3   OH255315   2.142   4.425   0.432  0.2846  0.1446 -0.2782
11275TIP3    H155316   2.102   4.481   0.499  0.1682 -0.1843 -0.0730
11275TIP3    H255317   2.236   4.440   0.441  0.1772  3.0400 -2.5617
11276TIP3   OH255318   6.430   3.585   1.645 -0.8566  0.6940  0.1199
11276TIP3    H155319   6.408   3.525   1.715 -0.2497  0.2849 -0.0348
11276TIP3    H255320   6.506   3.634   1.677  1.1968 -1.3687 -1.2457
11277TIP3   OH255321   6.374   4.991  16.455  0.1305  0.0778  0.3524
11277TIP3    H155322   6.355   4.965  16.545  1.1621 -0.6096  0.3875
11277TIP3    H255323   6.464   5.024  16.458 -0.2820  1.3071 -0.1822
11278TIP3   OH255324   6.243   1.864   4.883  0.1820  0.5354  0.1025
11278TIP3    H155325   6.332   1.849   4.916 -0.1272 -0.7350  0.4143
11278TIP3    H255326   6.220   1.782   4.839 -0.7726  0.9164 -0.1182
11279TIP3   OH255327   1.704   5.763  11.357 -0.0405 -0.5043 -0.2979
11279TIP3    H155328   1.699   5.849  11.398  1.2061 -0.5458  0.0048
11279TIP3    H255329   1.636   5.711  11.399 -1.0445  0.4291 -0.7438
11280TIP3   OH255330   0.285   3.279   4.688  0.2959 -0.3817 -0.8566
11280TIP3    H155331   0.329   3.356   4.722  1.2545 -1.0284 -0.5749
11280TIP3    H255332   0.269   3.224   4.765  0.4898 -0.8832 -1.1629
11281TIP3   OH255333   5.893   1.569  11.688  0.0799 -0.1146  0.1146
11281TIP3    H155334   5.965   1.608  11.737  1.9850 -0.3884 -2.2545
11281TIP3    H255335   5.822   1.634  11.693  1.8630  2.0050 -0.6656
11282TIP3   OH255336   4.800   1.554  17.111  0.3122 -0.2769  0.2744
11282TIP3    H155337   4.875   1.608  17.087 -1.0278  1.7853  0.5290
11282TIP3    H255338   4.739   1.563  17.037 -0.2519 -0.8500  0.6559
11283TIP3   OH255339   3.334   2.857   3.129 -0.3042  0.0906  0.6230
11283TIP3    H155340   3.385   2.919   3.077  1.4458 -1.7354  0.0135
11283TIP3    H255341   3.343   2.889   3.219  0.6558  0.6751  0.3329
11284TIP3   OH255342   0.230   4.421  16.857 -0.7032  0.6890 -0.4917
11284TIP3    H155343   0.199   4.333  16.833 -1.0059  1.2794 -2.4126
11284TIP3    H255344   0.313   4.405  16.902 -1.3577 -0.6375  0.3323
11285TIP3   OH255345   4.139   2.892   2.055 -0.2302 -0.5184 -0.2086
11285TIP3    H155346   4.048   2.866   2.044 -0.3043 -0.3903  0.0990
11285TIP3    H255347   4.147   2.913   2.148 -0.9176  3.3499 -0.8608
11286TIP3   OH255348   6.521   1.986  15.054 -0.0219  0.1253 -1.0365
11286TIP3    H155349   6.517   1.920  14.985  2.0537 -2.1311  0.7989
11286TIP3    H255350   6.586   1.951  15.116 -1.3999  2.2358  1.7936
11287TIP3   OH255351   2.124   4.164   0.341  1.0768 -0.4233 -0.1714
11287TIP3    H155352   2.169   4.124   0.417 -0.4389  0.2487  1.1306
11287TIP3    H255353   2.118   4.257   0.364 -1.4074 -0.5609 -0.0242
11288TIP3   OH255354   5.752   5.675  17.096  0.6735 -0.0670  0.5099
11288TIP3    H155355   5.676   5.710  17.141  0.6114  0.3928  0.0552
11288TIP3    H255356   5.786   5.748  17.044  1.2370 -0.3516  0.4636
11289TIP3   OH255357   2.719   0.984   1.260 -0.0318  0.0942 -0.1433
11289TIP3    H155358   2.810   0.953   1.264  0.4463  1.5307  0.9740
11289TIP3    H255359   2.669   0.919   1.310  0.6891  0.2720  0.8319
11290TIP3   OH255360   4.992   5.636   4.300 -0.3287  0.3349 -0.4662
11290TIP3    H155361   5.009   5.572   4.369  0.5418  2.1436  1.0771
11290TIP3    H255362   5.059   5.703   4.313 -0.7251  1.1927 -2.5219
11291TIP3   OH255363   3.482   1.311  14.070  0.0129  0.3415  0.2106
11291TIP3    H155364   3.395   1.350  14.071 -0.4072 -0.5591 -0.6165
11291TIP3    H255365   3.472   1.227  14.115  0.4992  0.3011  0.2521
11292TIP3   OH255366   0.160   1.751  17.107  0.2801  0.3249  0.4966
11292TIP3    H155367   0.144   1.677  17.048  1.4398  1.0866 -0.8515
11292TIP3    H255368   0.213   1.812  17.055  0.5394  1.4784  2.0347
11293TIP3   OH255369   4.357   5.320  13.912 -0.0026 -0.1413  0.0901
11293TIP3    H155370   4.389   5.409  13.926  0.7413 -0.4812  0.6131
11293TIP3    H255371   4.307   5.324  13.831  1.6459  0.3446 -0.9554
11294TIP3   OH255372   0.723   3.973   4.707 -0.4823 -0.0366 -0.0989
11294TIP3    H155373   0.630   3.957   4.688 -1.0489  1.7291  0.9200
11294TIP3    H255374   0.770   3.908   4.655 -2.1774  0.4932 -2.4477
11295TIP3   OH255375   6.760   5.262   3.078 -0.2494  0.5276 -0.1495
11295TIP3    H155376   6.760   5.357   3.088 -0.4941  0.5319 -0.1716
11295TIP3    H255377   6.675   5.243   3.038  0.2595  0.4135 -1.2238
11296TIP3   OH255378   0.426   4.561   2.761 -0.4715 -0.2780 -0.4897
11296TIP3    H155379   0.410   4.466   2.760  2.5774 -0.9314  0.5314
11296TIP3    H255380   0.408   4.587   2.851  1.1098 -0.4703 -0.0809
11297TIP3   OH255381   1.930   5.797   5.678 -0.2529 -0.8760  0.4839
11297TIP3    H155382   1.851   5.784   5.731  0.0646  0.2559  1.2592
11297TIP3    H255383   1.989   5.727   5.707  0.3772  0.4338  2.5635
11298TIP3   OH255384   0.835   1.756  14.796 -0.2908  0.0456 -0.5870
11298TIP3    H155385   0.877   1.836  14.826  0.8108 -1.2432  1.5598
11298TIP3    H255386   0.888   1.685  14.833 -1.8276 -1.6806 -1.4991
11299TIP3   OH255387   0.469   4.528  12.727  0.6337 -0.4125  0.5296
11299TIP3    H155388   0.427   4.530  12.813 -4.1663 -1.1349 -1.4800
11299TIP3    H255389   0.451   4.614  12.689  2.5572 -0.1522  0.0806
11300TIP3   OH255390   0.733   1.462   2.637 -0.6459  0.2421 -0.0402
11300TIP3    H155391   0.639   1.470   2.652 -0.2992  0.5855  2.5299
11300TIP3    H255392   0.758   1.382   2.683  0.4065  0.5286 -0.0768
11301TIP3   OH255393   5.848   5.062  15.866 -0.0456 -0.3646  0.0108
11301TIP3    H155394   5.772   5.099  15.910 -0.3548 -1.2672  0.2537
11301TIP3    H255395   5.835   5.084  15.774 -0.7825 -0.7879  0.0008
11302TIP3   OH255396   2.077   1.980  14.938 -0.3932  0.0711 -0.6212
11302TIP3    H155397   2.120   2.062  14.914  1.9429 -1.4541 -2.0180
11302TIP3    H255398   2.146   1.927  14.978 -2.1358 -0.8083  1.4072
11303TIP3   OH255399   3.556   1.415   1.205 -0.6588  0.1369 -0.0498
11303TIP3    H155400   3.511   1.378   1.129  1.1400  1.0928 -1.6844
11303TIP3    H255401   3.545   1.350   1.274 -2.5316 -0.6739 -1.0302
11304TIP3   OH255402   0.764   0.854   6.669 -0.1862 -0.3710  0.3209
11304TIP3    H155403   0.673   0.859   6.697 -0.3791  0.7248 -0.4713
11304TIP3    H255404   0.772   0.917   6.598  0.8158 -1.5804 -0.6900
11305TIP3   OH255405   2.710   0.646  16.419  0.7457 -0.2063  0.3200
11305TIP3    H155406   2.774   0.593  16.371 -0.4290 -0.5469 -0.9221
11305TIP3    H255407   2.761   0.688  16.488  2.1221 -1.2254 -0.0368
11306TIP3   OH255408   0.544   2.216   2.754 -0.0986 -0.2156  0.1943
11306TIP3    H155409   0.500   2.165   2.686 -0.9387 -1.9599  1.9527
11306TIP3    H255410   0.613   2.159   2.787  1.8137  1.4739 -0.6623
11307TIP3   OH255411   6.454   4.289   3.618 -0.1668 -0.1861 -0.0683
11307TIP3    H155412   6.471   4.237   3.696  1.4081  2.6575  1.6789
11307TIP3    H255413   6.390   4.354   3.646  1.0243  1.3989 -0.8476
11308TIP3   OH255414   5.083   0.893   2.255 -0.1765  0.2120 -0.0860
11308TIP3    H155415   5.027   0.892   2.333  0.5749 -0.5576  0.4587
11308TIP3    H255416   5.172   0.881   2.288  0.2631  0.7842 -0.9924
11309TIP3   OH255417   0.485   4.070  14.563 -0.1607 -0.2253 -0.3657
11309TIP3    H155418   0.415   4.007  14.546 -0.4491 -0.8937  2.7205
11309TIP3    H255419   0.440   4.152  14.579 -0.5651 -1.0037  3.2957
11310TIP3   OH255420   2.217   3.439  11.733  0.2911 -0.3113 -0.5291
11310TIP3    H155421   2.175   3.433  11.648  1.0794 -2.2043 -0.8340
11310TIP3    H255422   2.169   3.377  11.788  1.4291 -1.0835 -0.3646
11311TIP3   OH255423   3.295   1.773   0.342 -0.3844  0.1948  0.1218
11311TIP3    H155424   3.360   1.712   0.306  0.3416  0.1784  1.3975
11311TIP3    H255425   3.257   1.726   0.416  0.9939  1.6648  1.8431
11312TIP3   OH255426   5.363   4.832  11.102  0.3929 -0.4372 -0.3106
11312TIP3    H155427   5.358   4.748  11.056  0.6147 -0.5024 -0.2156
11312TIP3    H255428   5.353   4.810  11.194  2.5734 -0.6215 -0.0535
11313TIP3   OH255429   1.324   1.715   1.982  0.0276  0.3792  0.6036
11313TIP3    H155430   1.370   1.767   2.048  2.2722 -2.4950  1.5419
11313TIP3    H255431   1.365   1.740   1.899  1.1867  0.0542  1.0596
11314TIP3   OH255432   3.444   6.321  16.106 -0.4697 -0.3537 -0.2947
11314TIP3    H155433   3.380   6.299  16.038  1.7639 -2.0981 -2.0080
11314TIP3    H255434   3.485   6.401  16.076 -0.6265 -0.1966 -0.0975
11315TIP3   OH255435   6.195   6.830   0.358  0.3141  0.1019  0.5405
11315TIP3    H155436   6.248   6.779   0.298 -1.0242 -0.2680 -0.3781
11315TIP3    H255437   6.160   6.766   0.420  0.9395  0.3495  1.1703
11316TIP3   OH255438   5.372   1.775   5.469  0.1728  0.4118  0.5431
11316TIP3    H155439   5.349   1.683   5.454  2.3106 -0.1592  0.5117
11316TIP3    H255440   5.355   1.789   5.562 -1.6434  0.4858  0.2465
11317TIP3   OH255441   2.230   6.637  13.065 -0.4688 -0.4056  0.6591
11317TIP3    H155442   2.253   6.573  12.998  0.2710 -0.4619  0.9529
11317TIP3    H255443   2.147   6.675  13.035  1.3665  1.9067 -2.0021
11318TIP3   OH255444   6.071   3.166  13.909  0.4936 -0.0276  0.0474
11318TIP3    H155445   6.019   3.200  13.981 -0.6331 -1.0455 -0.2640
11318TIP3    H255446   6.013   3.107  13.862  1.0120  1.0277 -2.0545
11319TIP3   OH255447   1.732   4.510   1.631 -0.1703 -0.2770  0.3184
11319TIP3    H155448   1.781   4.443   1.583 -1.0391  0.1370 -1.2167
11319TIP3    H255449   1.750   4.492   1.723  1.5201 -1.1490 -0.1439
11320TIP3   OH255450   3.237   3.030  13.244  0.0477  0.1516  0.2444
11320TIP3    H155451   3.181   3.066  13.313  0.5165  0.7814  0.3078
11320TIP3    H255452   3.325   3.055  13.269  0.3046 -0.3368 -0.1529
11321TIP3   OH255453   5.274   0.747   2.881  0.4827 -0.5503  0.3486
11321TIP3    H155454   5.207   0.708   2.937 -0.8165 -0.9548 -1.4096
11321TIP3    H255455   5.321   0.808   2.938 -0.6793 -1.0490  1.8938
11322TIP3   OH255456   2.322   3.510   3.146 -0.5167  0.0607 -0.0583
11322TIP3    H155457   2.347   3.586   3.198 -1.3819  0.2313  0.1319
11322TIP3    H255458   2.373   3.438   3.182  1.3487  0.7897 -1.1436
11323TIP3   OH255459   0.641   4.052   2.618  0.0255 -0.3526 -0.6674
11323TIP3    H155460   0.555   4.075   2.582 -0.4249 -0.6125  0.2238
11323TIP3    H255461   0.648   3.958   2.604 -1.0828 -0.8851  1.7457
11324TIP3   OH255462   3.564   3.366   2.284 -0.1451 -0.0875 -0.2667
11324TIP3    H155463   3.603   3.280   2.302 -0.8617 -0.5022 -0.6246
11324TIP3    H255464   3.638   3.423   2.266  0.3768 -0.5053  0.4874
11325TIP3   OH255465   0.236   0.574  13.220 -0.1852 -0.2250  0.3645
11325TIP3    H155466   0.268   0.664  13.213 -0.3506 -0.2566 -1.0611
11325TIP3    H255467   0.195   0.570  13.306 -0.6591  1.2212  0.2283
11326TIP3   OH255468   4.032   4.413   0.371 -0.4168 -0.2548  0.0411
11326TIP3    H155469   3.958   4.373   0.417  0.7624  0.4566  2.7689
11326TIP3    H255470   4.014   4.506   0.373 -0.0668 -0.1749 -0.4279
11327TIP3   OH255471   4.491   4.297  15.794  0.2260 -0.4125  0.7470
11327TIP3    H155472   4.464   4.277  15.705 -0.7488  1.0527  0.6677
11327TIP3    H255473   4.518   4.389  15.790  0.4763 -0.4221  1.9012
11328TIP3   OH255474   2.983   1.223  13.546 -0.5876 -0.7432 -0.0061
11328TIP3    H155475   3.028   1.227  13.630  2.3621  0.5740 -1.4918
11328TIP3    H255476   3.038   1.166  13.492 -2.3438 -1.4591 -1.1164
11329TIP3   OH255477   6.577   6.740   0.800  0.5210 -0.4991 -0.0704
11329TIP3    H155478   6.543   6.702   0.718 -0.1156  0.0701 -0.0785
11329TIP3    H255479   6.599   6.664   0.853 -2.4451 -0.9854  0.6233
11330TIP3   OH255480   0.858   3.546   4.800  0.5253  0.4072 -0.0920
11330TIP3    H155481   0.819   3.582   4.879 -1.8008 -1.0898 -0.4683
11330TIP3    H255482   0.945   3.518   4.827 -0.1258  0.1493  1.8667
11331TIP3   OH255483   0.751   4.058  14.166 -0.3584  1.0073  0.1949
11331TIP3    H155484   0.677   3.999  14.180 -0.1610  0.9472  1.0492
11331TIP3    H255485   0.727   4.137  14.215 -0.5769  1.6129 -0.8497
11332TIP3   OH255486   5.543   0.547  13.763 -0.5068  0.6042 -0.4870
11332TIP3    H155487   5.534   0.504  13.678 -0.6201 -0.3649 -0.0054
11332TIP3    H255488   5.455   0.545  13.800  0.0513 -1.7810  0.9224
11333TIP3   OH255489   0.230   4.702  16.993  0.3286 -0.3798 -0.1580
11333TIP3    H155490   0.302   4.645  17.021  0.4901  0.4594  1.2424
11333TIP3    H255491   0.240   4.709  16.898 -0.0233 -3.0948 -0.4783
11334TIP3   OH255492   5.442   4.394  12.416 -0.0356 -0.4725 -0.1599
11334TIP3    H155493   5.525   4.410  12.372  0.2711 -1.2696  0.1014
11334TIP3    H255494   5.387   4.468  12.391 -0.2717 -1.4101 -2.8397
11335TIP3   OH255495   4.795   0.594  14.672  0.7585 -0.1924  0.3190
11335TIP3    H155496   4.814   0.687  14.662  0.4599 -0.2067 -0.4788
11335TIP3    H255497   4.770   0.584  14.764 -1.2633  0.9121 -0.0630
11336TIP3   OH255498   6.793   3.464   1.435  0.5442 -0.0457 -0.2835
11336TIP3    H155499   6.774   3.556   1.457  0.1685  0.0030 -0.8047
11336TIP3    H255500   6.713   3.432   1.395 -0.0607 -1.2170  1.7338
11337TIP3   OH255501   6.435   6.281  14.578 -0.0844 -0.1470 -0.3775
11337TIP3    H155502   6.442   6.188  14.598 -1.0466 -0.3899 -1.1008
11337TIP3    H255503   6.521   6.317  14.601 -0.0142 -1.0274  0.8255
11338TIP3   OH255504   1.630   3.862  13.955  0.0526 -0.0051 -0.6208
11338TIP3    H155505   1.700   3.798  13.974  0.2819  0.6103  0.7569
11338TIP3    H255506   1.550   3.818  13.982  0.3976  0.9529  2.3544
11339TIP3   OH255507   3.166   1.004   1.364  0.5127  0.1166  0.1423
11339TIP3    H155508   3.247   0.961   1.336  0.8356  0.3994  0.6282
11339TIP3    H255509   3.097   0.942   1.340  0.9113 -0.3439  0.1522
11340TIP3   OH255510   3.539   4.729   3.974  0.1334  0.3425  0.1095
11340TIP3    H155511   3.632   4.706   3.967  1.0312  3.3376  0.5833
11340TIP3    H255512   3.514   4.699   4.061  1.0362  0.6117  0.4764
11341TIP3   OH255513   0.072   4.045  11.887  0.1138 -0.3431 -0.2587
11341TIP3    H155514   0.025   3.987  11.947 -0.1993 -0.3109 -0.4674
11341TIP3    H255515   0.156   4.061  11.929 -0.6211  0.7921  0.8425
11342TIP3   OH255516   3.324   2.071   5.069 -0.3823  0.1479 -0.1864
11342TIP3    H155517   3.228   2.071   5.072 -0.4262 -2.7285  0.8590
11342TIP3    H255518   3.351   2.066   5.160  0.7610  0.1248 -0.5169
11343TIP3   OH255519   1.521   4.780   5.573  0.0896 -0.4380 -0.2663
11343TIP3    H155520   1.524   4.766   5.668 -0.3749  1.8594  0.1382
11343TIP3    H255521   1.565   4.864   5.559  1.5082 -1.4178 -2.3055
11344TIP3   OH255522   3.649   3.081   1.145 -0.1997 -0.0806 -0.5993
11344TIP3    H155523   3.738   3.084   1.110  0.1319 -2.1221 -0.0710
11344TIP3    H255524   3.597   3.132   1.083  1.1679  0.3574 -1.4276
11345TIP3   OH255525   1.795   2.370  11.978 -0.2186  0.0468 -0.2284
11345TIP3    H155526   1.715   2.377  12.030  1.5284 -1.0672  2.8796
11345TIP3    H255527   1.839   2.454  11.990  0.4829 -0.4343  0.6785
11346TIP3   OH255528   5.243   1.181  15.645  0.1384  0.1487 -0.0294
11346TIP3    H155529   5.166   1.235  15.665  0.3920  0.3643  0.3884
11346TIP3    H255530   5.318   1.238  15.666  0.4223 -0.8218  1.7630
11347TIP3   OH255531   4.720   1.981   4.997  0.1674 -0.2749 -0.6685
11347TIP3    H155532   4.757   1.902   4.956  0.5550 -0.8504  0.7252
11347TIP3    H255533   4.757   1.981   5.085 -0.9251  0.7250 -0.1927
11348TIP3   OH255534   5.950   5.993   0.154 -0.1630  0.2222  0.1212
11348TIP3    H155535   5.887   6.063   0.137  0.3014  0.7503  0.5389
11348TIP3    H255536   5.912   5.945   0.227 -0.7660 -0.3261 -0.5351
11349TIP3   OH255537   5.483   3.168  14.251 -0.4140 -0.0499  0.1107
11349TIP3    H155538   5.545   3.126  14.311  0.9310  0.8154 -0.6138
11349TIP3    H255539   5.436   3.096  14.211  0.3471 -0.7611  0.4588
11350TIP3   OH255540   0.154   0.536   1.830 -0.1465  0.2291  0.4516
11350TIP3    H155541   0.118   0.481   1.761  1.1157  1.6781 -1.4915
11350TIP3    H255542   0.079   0.584   1.865 -1.2038 -2.3583  1.9458
11351TIP3   OH255543   2.895   6.702   4.796 -0.2970  0.1721 -0.0057
11351TIP3    H155544   2.862   6.613   4.782 -1.4424  0.4097  1.0360
11351TIP3    H255545   2.907   6.709   4.891 -0.1392  1.1041 -0.0847
11352TIP3   OH255546   1.110   4.205  11.952  0.1082  0.1745  0.4781
11352TIP3    H155547   1.122   4.119  11.911  0.3613  0.2447  0.4007
11352TIP3    H255548   1.062   4.187  12.032 -0.6760  0.0674 -0.0070
11353TIP3   OH255549   3.126   5.006   5.505 -0.1895  0.4785 -0.1990
11353TIP3    H155550   3.101   5.012   5.413  0.8209  0.7302 -0.4761
11353TIP3    H255551   3.222   5.011   5.504 -0.2120  3.4575  1.0578
11354TIP3   OH255552   1.071   6.050  15.636  0.0222 -0.6993  0.6920
11354TIP3    H155553   1.016   6.006  15.700 -1.6759 -1.1382 -0.9823
11354TIP3    H255554   1.156   6.005  15.641 -1.0220 -2.7876  0.4815
11355TIP3   OH255555   3.136   3.686  12.815 -0.5039  0.3525 -0.5371
11355TIP3    H155556   3.093   3.752  12.760 -1.0386 -0.0404 -0.6038
11355TIP3    H255557   3.176   3.737  12.885  1.7336  1.0605 -2.2069
11356TIP3   OH255558   5.586   0.078  13.324  0.4932 -0.3561 -0.6786
11356TIP3    H155559   5.672   0.119  13.339  0.3763 -0.9833  2.6167
11356TIP3    H255560   5.564   0.099  13.234  3.0692  1.8031 -0.9217
11357TIP3   OH255561   6.243   2.254  15.379  0.0826  0.4481  0.1206
11357TIP3    H155562   6.216   2.180  15.324  1.8376 -0.2183  0.0804
11357TIP3    H255563   6.292   2.311  15.320 -1.3358  1.7435  0.1278
11358TIP3   OH255564   0.061   5.215   3.354  0.1966  0.4281 -0.0722
11358TIP3    H155565   0.007   5.136   3.342  0.2932  0.5861 -1.7047
11358TIP3    H255566   0.039   5.270   3.279  3.2739  0.1207 -1.3159
11359TIP3   OH255567   4.769   0.957   5.757 -0.1656  0.8683  0.1553
11359TIP3    H155568   4.810   0.877   5.790  0.9494  1.4545  0.2501
11359TIP3    H255569   4.782   1.021   5.827  0.6570  1.6387 -0.6762
11360TIP3   OH255570   2.685   3.332  12.489  0.5048 -0.3150  0.1129
11360TIP3    H155571   2.637   3.278  12.426  0.7486 -1.5616  0.9733
11360TIP3    H255572   2.617   3.381  12.536  0.3462  1.0070 -1.4118
11361TIP3   OH255573   4.226   4.521  10.826 -0.2703  0.2355 -0.2185
11361TIP3    H155574   4.319   4.535  10.847 -0.3082  1.1213 -0.6213
11361TIP3    H255575   4.203   4.594  10.769 -1.3680  0.3381  0.3381
11362TIP3   OH255576   3.941   0.172   4.086  0.7299 -0.0329  0.1518
11362TIP3    H155577   4.030   0.155   4.118  1.4109  0.1703 -1.5390
11362TIP3    H255578   3.953   0.236   4.016 -0.7563 -0.0483 -0.1382
11363TIP3   OH255579   6.802   5.921  13.945 -0.2489  0.3473  0.1414
11363TIP3    H155580   6.760   5.975  14.012  0.6037 -0.7559  1.6204
11363TIP3    H255581   6.831   5.984  13.879 -1.0536  1.4808  0.8190
11364TIP3   OH255582   5.213   2.628  11.610  0.2920 -0.6270 -0.5090
11364TIP3    H155583   5.121   2.641  11.589  0.2251 -1.3764 -0.7005
11364TIP3    H255584   5.229   2.689  11.683 -0.7073 -1.4307  0.4265
11365TIP3   OH255585   1.847   0.066   2.411  0.7997  0.0708 -0.1136
11365TIP3    H155586   1.807   0.149   2.387  1.1987  0.3141  0.0525
11365TIP3    H255587   1.842   0.013   2.332 -1.2029 -0.4510  0.3109
11366TIP3   OH255588   1.825   3.090  12.404 -0.1995 -0.4971  0.2458
11366TIP3    H155589   1.869   3.147  12.467 -1.0446  0.0157  0.3858
11366TIP3    H255590   1.830   3.003  12.444 -0.3259 -0.2538  0.8110
11367TIP3   OH255591   1.901   1.884  15.105  0.4844  0.1243  0.3073
11367TIP3    H155592   1.959   1.927  15.042 -0.9664  1.3270 -0.2448
11367TIP3    H255593   1.860   1.813  15.055  0.6405 -0.0220  0.3870
11368TIP3   OH255594   3.800   3.284  14.430 -0.5552  0.2582  0.1948
11368TIP3    H155595   3.798   3.267  14.335 -1.9788 -0.1547  0.2895
11368TIP3    H255596   3.708   3.287  14.456 -0.1664 -0.1538  1.6674
11369TIP3   OH255597   4.769   0.580   0.573 -0.0751 -0.6292 -0.0126
11369TIP3    H155598   4.776   0.631   0.492 -1.0326 -1.1568 -0.4460
11369TIP3    H255599   4.676   0.559   0.580 -0.0670 -0.2910  1.4290
11370TIP3   OH255600   1.626   4.256   3.402  0.1230 -0.3155  0.1627
11370TIP3    H155601   1.557   4.309   3.441 -0.3698 -1.1121  0.3970
11370TIP3    H255602   1.626   4.175   3.453  1.2171 -0.3407  0.1488
11371TIP3   OH255603   2.548   5.609  16.375 -0.1092  0.1862 -0.2926
11371TIP3    H155604   2.560   5.516  16.396  1.2421  0.8636  2.4144
11371TIP3    H255605   2.467   5.633  16.420  1.5931  1.1318  2.4601
11372TIP3   OH255606   4.883   2.838  13.441  0.3543 -0.3583 -0.2819
11372TIP3    H155607   4.962   2.862  13.490  0.6892  0.2808 -1.1104
11372TIP3    H255608   4.864   2.749  13.469 -0.8582  0.7246  2.8379
11373TIP3   OH255609   5.561   3.292  13.601 -0.0578 -0.0242  0.4099
11373TIP3    H155610   5.485   3.318  13.547 -1.0884 -0.7299  1.4707
11373TIP3    H255611   5.565   3.197  13.591  1.8815  0.1591 -1.1154
11374TIP3   OH255612   3.396   1.197  13.425 -0.7547 -0.4535 -0.2466
11374TIP3    H155613   3.426   1.157  13.506  0.8446 -0.8959 -0.9973
11374TIP3    H255614   3.447   1.153  13.356 -2.4509 -0.4813 -1.5424
11375TIP3   OH255615   3.994   6.797   2.338  0.4890  0.3198 -0.0745
11375TIP3    H155616   3.968   6.767   2.251 -1.0988  1.4126 -0.0102
11375TIP3    H255617   3.941   6.744   2.398 -1.9355  2.6737  0.0523
11376TIP3   OH255618   1.430   0.891   5.516  0.3510 -0.2207  0.0128
11376TIP3    H155619   1.415   0.935   5.433 -0.1582 -0.4710 -0.0277
11376TIP3    H255620   1.343   0.874   5.551  0.5403 -1.0695  0.0958
11377TIP3   OH255621   6.418   5.086   6.181  0.0266  0.0450 -0.0812
11377TIP3    H155622   6.499   5.104   6.229  0.9798 -2.0448 -0.7950
11377TIP3    H255623   6.384   5.005   6.220 -1.1646  0.3049 -0.5167
11378TIP3   OH255624   3.911   6.455   2.790  0.4973  0.4730  0.1214
11378TIP3    H155625   4.003   6.465   2.815  1.2548  0.8748 -2.5556
11378TIP3    H255626   3.907   6.370   2.746 -0.5639  0.2399  0.6172
11379TIP3   OH255627   1.142   5.017  13.096 -0.4224 -0.7962 -0.5675
11379TIP3    H155628   1.164   4.943  13.153 -1.5918 -0.3546  0.5102
11379TIP3    H255629   1.103   5.082  13.155  0.4622  0.6480 -1.5075
11380TIP3   OH255630   5.707   3.441   5.858  0.3730  0.0374 -0.3961
11380TIP3    H155631   5.689   3.517   5.914 -0.9467  0.7686 -1.7655
11380TIP3    H255632   5.632   3.436   5.799  1.7687 -0.6423 -2.1857
11381TIP3   OH255633   4.801   3.543   0.616  0.1622  0.2126 -0.4225
11381TIP3    H155634   4.890   3.546   0.650  0.2048  0.1617 -0.5297
11381TIP3    H255635   4.763   3.464   0.655  0.3255 -0.0430 -0.7726
11382TIP3   OH255636   4.217   3.754   4.442 -0.1732 -0.5812 -0.9452
11382TIP3    H155637   4.298   3.771   4.394  0.8959  1.1760  1.2807
11382TIP3    H255638   4.196   3.838   4.483 -0.6780 -2.0390  2.0407
11383TIP3   OH255639   5.337   5.811   5.492  0.4915  0.0155 -0.0429
11383TIP3    H155640   5.374   5.870   5.427  0.4747  0.2908  0.1933
11383TIP3    H255641   5.243   5.807   5.471  0.0565  1.8831  1.2948
11384TIP3   OH255642   5.273   3.749  12.248  0.0224  0.5358 -0.2186
11384TIP3    H155643   5.327   3.693  12.304 -1.1652 -0.2764  0.1706
11384TIP3    H255644   5.219   3.799  12.310  0.3581  1.3848 -0.5927
11385TIP3   OH255645   1.155   4.118   3.678  0.2958  0.4139 -0.2172
11385TIP3    H155646   1.212   4.189   3.708  3.3333 -1.8951  0.0525
11385TIP3    H255647   1.119   4.081   3.758  1.1011 -0.1131 -0.0801
11386TIP3   OH255648   6.727   5.496   0.488 -0.1672  0.4104  0.0812
11386TIP3    H155649   6.760   5.585   0.470 -0.7979  0.5330 -0.5062
11386TIP3    H255650   6.676   5.506   0.569 -1.2664  0.8537 -0.6438
11387TIP3   OH255651   6.073   6.013   0.761 -0.8030 -0.1580  0.1488
11387TIP3    H155652   6.134   5.941   0.776 -2.2138 -1.1655  1.3889
11387TIP3    H255653   6.001   5.974   0.711 -2.3986 -0.1357  2.2602
11388TIP3   OH255654   1.269   6.503   5.719 -0.2074 -0.4613  0.2921
11388TIP3    H155655   1.232   6.419   5.746  1.0546 -0.7354  1.2546
11388TIP3    H255656   1.332   6.525   5.787  0.1144  0.8499 -0.3926
11389TIP3   OH255657   6.317   3.557   3.117  0.1959  0.2517 -0.1141
11389TIP3    H155658   6.309   3.533   3.209  0.1094 -0.4160 -0.2950
11389TIP3    H255659   6.226   3.562   3.086  0.2527 -1.9654 -0.7816
11390TIP3   OH255660   0.517   5.881  12.183  0.0284 -0.0562  0.1934
11390TIP3    H155661   0.550   5.799  12.146  2.4411  0.0176  1.9631
11390TIP3    H255662   0.477   5.856  12.266  0.9789  0.5296  0.8542
11391TIP3   OH255663   6.501   3.692  16.494  0.3802 -0.4365  0.6477
11391TIP3    H155664   6.570   3.626  16.487 -0.2828 -1.0877  0.1008
11391TIP3    H255665   6.485   3.720  16.403  0.6471  0.4834  0.8690
11392TIP3   OH255666   0.193   2.038   1.716 -0.4215 -0.3998  0.3580
11392TIP3    H155667   0.128   2.107   1.708 -1.5496 -1.3120  1.1831
11392TIP3    H255668   0.246   2.044   1.637 -2.1611 -0.2636 -0.8448
11393TIP3   OH255669   3.384   2.777   4.151  0.5085  0.2759  0.8381
11393TIP3    H155670   3.292   2.803   4.160  0.1701  0.0252 -1.2742
11393TIP3    H255671   3.388   2.733   4.066  2.6372  0.4572  0.7882
11394TIP3   OH255672   6.575   6.330  12.875 -0.2749  0.1089  0.8713
11394TIP3    H155673   6.505   6.395  12.872  0.3683  1.0633  3.4692
11394TIP3    H255674   6.655   6.381  12.861  0.1044 -0.4721  0.8760
11395TIP3   OH255675   6.335   5.739  12.644  0.2340  0.0419  0.0697
11395TIP3    H155676   6.318   5.684  12.568  1.2133  1.2920 -1.1048
11395TIP3    H255677   6.287   5.820  12.626 -0.0044  0.1320  1.0703
11396TIP3   OH255678   0.794   3.159   0.006 -0.7498 -0.6734  0.2531
11396TIP3    H155679   0.836   3.161  -0.080 -1.9255  1.0434 -0.3238
11396TIP3    H255680   0.803   3.248   0.039  0.3591 -1.4579  2.3044
11397TIP3   OH255681   0.490   2.731  14.820 -0.0135  0.0427  0.0894
11397TIP3    H155682   0.490   2.826  14.807  1.0380  0.0975  0.3934
11397TIP3    H255683   0.398   2.706  14.814 -0.0936  0.6206 -3.1588
11398TIP3   OH255684   0.064   2.876   4.782 -0.3913  0.3562 -0.1180
11398TIP3    H155685   0.028   2.964   4.800  1.6703  1.0393  0.9466
11398TIP3    H255686   0.105   2.850   4.865 -1.3223 -1.8363 -0.2858
11399TIP3   OH255687   6.334   4.011  16.440 -0.4520 -0.0817  0.2053
11399TIP3    H155688   6.357   4.053  16.357  0.8676  0.1426  0.6655
11399TIP3    H255689   6.271   4.071  16.480 -1.4744 -0.4262 -0.8307
11400TIP3   OH255690   4.323   3.492  12.351 -0.3336 -0.0021  0.0543
11400TIP3    H155691   4.337   3.583  12.325  0.6403  0.0755  0.7793
11400TIP3    H255692   4.237   3.493  12.394 -0.4760  0.5046 -0.2302
11401TIP3   OH255693   2.782   2.745   1.460 -0.6525  0.3424  0.0499
11401TIP3    H155694   2.743   2.810   1.402 -0.5354  0.5666  0.2201
11401TIP3    H255695   2.866   2.782   1.486  0.3841 -0.8130 -1.5085
11402TIP3   OH255696   3.919   6.243   1.525 -0.3505  0.5008  0.2158
11402TIP3    H155697   3.869   6.234   1.606  0.7384  1.5597  1.0478
11402TIP3    H255698   3.933   6.153   1.495 -1.6735  0.1414  0.6134
11403TIP3   OH255699   2.477   6.023  14.006 -0.4566 -0.2185  0.6603
11403TIP3    H155700   2.424   6.068  14.071 -1.4577 -1.5447  0.7915
11403TIP3    H255701   2.421   6.016  13.929  0.3127  0.2965  0.0252
11404TIP3   OH255702   2.520   6.814  13.619  0.4054  0.3357 -0.2097
11404TIP3    H155703   2.446   6.752  13.613 -0.0811  0.9683 -0.9041
11404TIP3    H255704   2.582   6.782  13.553  2.5804 -2.4895  2.8850
11405TIP3   OH255705   6.698   5.877  11.279  0.0174  0.7505 -0.4154
11405TIP3    H155706   6.731   5.917  11.198  1.3738 -0.6887 -0.6176
11405TIP3    H255707   6.652   5.798  11.250 -0.5913  0.8786  0.1521
11406TIP3   OH255708   5.435   5.923   2.916 -1.2295  0.4442  0.6828
11406TIP3    H155709   5.378   5.962   2.850 -1.0325 -1.8980 -1.0268
11406TIP3    H255710   5.518   5.908   2.870 -0.4527  0.4285  2.0395
11407TIP3   OH255711   1.892   0.299  15.639 -0.4810  0.4327 -0.0151
11407TIP3    H155712   1.882   0.229  15.704 -0.2502  0.8791  0.5052
11407TIP3    H255713   1.837   0.370  15.671 -1.0472  0.3456 -0.7625
11408TIP3   OH255714   2.604   5.854   5.899  0.1652  0.3901 -0.6087
11408TIP3    H155715   2.607   5.772   5.948  0.0510  0.6704 -0.1207
11408TIP3    H255716   2.594   5.922   5.967  1.5478  0.9159 -0.9073
11409TIP3   OH255717   6.405   3.901   1.442 -0.4499 -0.1233  0.2028
11409TIP3    H155718   6.418   3.873   1.351  0.0896 -0.0136  0.2437
11409TIP3    H255719   6.473   3.967   1.457 -0.5576 -0.1168  0.6769
11410TIP3   OH255720   1.879   4.383  16.255  0.0632  0.0069 -0.1325
11410TIP3    H155721   1.848   4.470  16.228 -0.2574  1.2810  3.7107
11410TIP3    H255722   1.807   4.324  16.233 -2.2657  1.7514  2.2230
11411TIP3   OH255723   0.008   0.032   0.728  0.5004 -0.4106 -0.1690
11411TIP3    H155724   0.076   0.032   0.661  0.6096 -1.1861 -0.0637
11411TIP3    H255725  -0.072   0.010   0.680  0.8260 -2.5478  0.1704
11412TIP3   OH255726   2.338   1.481  11.269 -0.3471 -0.6745  0.0317
11412TIP3    H155727   2.318   1.392  11.300  0.7354 -0.2100  2.2798
11412TIP3    H255728   2.266   1.534  11.303 -0.1981 -0.4621  0.0124
11413TIP3   OH255729   6.363   4.726  14.263  0.2948 -0.4609 -0.3482
11413TIP3    H155730   6.454   4.699  14.250 -0.0835 -1.3206 -1.3957
11413TIP3    H255731   6.344   4.703  14.354  1.0403 -0.5526 -0.2102
11414TIP3   OH255732   3.256   5.532   1.779  0.1572 -0.1423  0.3011
11414TIP3    H155733   3.283   5.576   1.860  0.5363 -0.6029  0.4352
11414TIP3    H255734   3.160   5.538   1.779  0.2410  1.6167 -0.2404
11415TIP3   OH255735   0.053   2.167  11.007 -0.5728 -0.0592  0.3724
11415TIP3    H155736   0.081   2.085  10.967  1.0849 -0.0695  1.4387
11415TIP3    H255737  -0.037   2.180  10.978  0.5332  0.0345 -3.4689
11416TIP3   OH255738   3.561   4.678   0.863  0.3345  0.2563 -0.0468
11416TIP3    H155739   3.640   4.623   0.868 -0.7705 -1.2847  1.5169
11416TIP3    H255740   3.530   4.668   0.773  2.5004  1.8487 -1.0868
11417TIP3   OH255741   5.235   5.407  14.409 -0.0213  0.6661  0.5561
11417TIP3    H155742   5.270   5.366  14.330  0.7750  1.3514  0.5439
11417TIP3    H255743   5.300   5.387  14.477 -0.7487 -0.0066  1.0731
11418TIP3   OH255744   0.246   1.482  13.258 -0.3720  0.1628  0.0987
11418TIP3    H155745   0.155   1.510  13.253 -0.1509  1.0109  0.5282
11418TIP3    H255746   0.245   1.391  13.230 -1.2866  0.2873 -0.3257
11419TIP3   OH255747   3.154   2.301   3.491 -0.2333  0.4077 -0.4816
11419TIP3    H155748   3.219   2.255   3.438  0.2990 -1.3588  1.5507
11419TIP3    H255749   3.071   2.258   3.469  0.1629 -1.1676  0.9080
11420TIP3   OH255750   3.728   2.053   0.285 -0.4079 -0.1205  0.2853
11420TIP3    H155751   3.633   2.048   0.271 -0.3547 -0.8874  0.1582
11420TIP3    H255752   3.762   2.098   0.208 -0.7031  0.4844  0.4998
11421TIP3   OH255753   1.633   3.152  15.439 -0.1700 -0.5400  0.7351
11421TIP3    H155754   1.664   3.198  15.517 -0.4088 -1.1178  1.1781
11421TIP3    H255755   1.547   3.119  15.463  0.1971 -1.6269  0.5938
11422TIP3   OH255756   6.734   3.443   5.069 -0.1742 -1.0100 -0.1697
11422TIP3    H155757   6.724   3.535   5.045  1.3188 -1.0899 -1.2291
11422TIP3    H255758   6.826   3.423   5.054 -0.6272 -2.9032 -0.7917
11423TIP3   OH255759   6.784   2.728   5.717 -0.5382 -0.0912 -0.5471
11423TIP3    H155760   6.843   2.662   5.753  0.7495  1.6174  0.6500
11423TIP3    H255761   6.709   2.728   5.776  0.4805  1.0232  0.8075
11424TIP3   OH255762   2.172   2.481  16.122  0.4129 -0.6187 -0.5318
11424TIP3    H155763   2.207   2.394  16.103  0.5903 -0.8268  0.6632
11424TIP3    H255764   2.142   2.514  16.038 -0.1352 -2.0484 -0.9281
11425TIP3   OH255765   3.890   6.637   2.538 -0.1526 -0.5071  0.0780
11425TIP3    H155766   3.830   6.669   2.605 -0.8011 -0.9110 -0.2957
11425TIP3    H255767   3.896   6.543   2.553  0.8094 -0.3948  0.4358
11426TIP3   OH255768   4.980   5.409   4.536  0.2510 -0.2093 -0.2083
11426TIP3    H155769   4.949   5.370   4.454  2.1659  0.1962 -1.1787
11426TIP3    H255770   4.968   5.340   4.601  0.2297 -1.1409 -1.1686
11427TIP3   OH255771   6.098   6.417  12.390  1.0892  0.6495  0.7937
11427TIP3    H155772   6.128   6.471  12.317  1.0239 -0.0475  0.2344
11427TIP3    H255773   6.157   6.342  12.390  0.0015 -0.2408  0.3111
11428TIP3   OH255774   5.252   3.660  10.798  0.9698  0.3206 -0.6300
11428TIP3    H155775   5.261   3.586  10.738 -0.6405  0.4633 -1.0928
11428TIP3    H255776   5.205   3.726  10.748 -0.9724  0.2280  0.9366
11429TIP3   OH255777   5.521   1.359   0.308  0.0105 -0.3268 -0.5715
11429TIP3    H155778   5.540   1.306   0.385  1.1260  0.0911 -0.5417
11429TIP3    H255779   5.458   1.307   0.257 -0.8205 -0.5622  0.6545
11430TIP3   OH255780   3.375   5.501   0.987 -0.4549  0.2891 -0.2593
11430TIP3    H155781   3.410   5.413   0.971  0.4043  0.6058 -0.2095
11430TIP3    H255782   3.452   5.552   1.012 -1.0449  0.9090  0.3277
11431TIP3   OH255783   3.880   2.358   1.231  0.5495 -0.1275 -0.0404
11431TIP3    H155784   3.956   2.383   1.284  0.5555 -1.7150  0.7611
11431TIP3    H255785   3.844   2.281   1.276 -1.1782  0.2211 -0.7423
11432TIP3   OH255786   6.095   5.067   5.131  0.1300 -0.0043 -0.3475
11432TIP3    H155787   6.012   5.095   5.171 -0.5675 -1.2483 -0.8690
11432TIP3    H255788   6.097   5.114   5.047 -0.2535 -0.2589 -0.5065
11433TIP3   OH255789   1.126   5.089   5.097 -0.3105  0.4078  0.4495
11433TIP3    H155790   1.201   5.060   5.045 -0.5724  0.2807  0.1367
11433TIP3    H255791   1.130   5.037   5.177 -0.6450 -0.3437 -0.0069
11434TIP3   OH255792   1.954   5.845  12.550 -0.2597  0.0883  0.7302
11434TIP3    H155793   1.965   5.883  12.463  3.3688  2.7917  2.0591
11434TIP3    H255794   1.985   5.755  12.541  1.1659  0.6565 -0.6252
11435TIP3   OH255795   6.494   4.108  15.437  0.3676  0.2766  0.0188
11435TIP3    H155796   6.476   4.076  15.348  0.7210 -0.7288  0.2962
11435TIP3    H255797   6.442   4.188  15.444  0.2089  0.2884 -1.0377
11436TIP3   OH255798   3.830   0.956   5.613  0.5758 -0.2957  0.5414
11436TIP3    H155799   3.813   0.941   5.520 -1.5842  0.6367  0.7400
11436TIP3    H255800   3.774   1.029   5.637  1.8269  0.1320  2.3770
11437TIP3   OH255801   5.637   2.881   0.598 -0.3180  0.4824  0.2853
11437TIP3    H155802   5.701   2.877   0.669 -0.1126 -2.2115  0.0422
11437TIP3    H255803   5.578   2.807   0.613 -2.6813  2.1203 -0.2170
11438TIP3   OH255804   5.945   3.651   2.242 -0.6374 -0.1115  0.6062
11438TIP3    H155805   5.895   3.580   2.282  0.4247 -1.1018  0.2212
11438TIP3    H255806   5.881   3.695   2.185 -1.6542  0.1280  1.8727
11439TIP3   OH255807   2.117   3.695   5.417  0.2926 -0.1371 -0.2634
11439TIP3    H155808   2.032   3.721   5.452  1.5343  2.0522  1.3936
11439TIP3    H255809   2.121   3.736   5.331 -1.4830 -2.8537 -1.7739
11440TIP3   OH255810   0.660   2.999   4.465  0.8080 -0.4368 -0.4226
11440TIP3    H155811   0.701   2.975   4.549 -0.7954 -0.3648  0.4168
11440TIP3    H255812   0.626   3.087   4.480  0.9503 -0.2163 -1.3354
11441TIP3   OH255813   6.606   4.378   5.578  0.6575  0.1048 -0.0077
11441TIP3    H155814   6.582   4.388   5.486  0.3974  0.2792  0.0772
11441TIP3    H255815   6.697   4.349   5.576  1.1018  1.4333 -0.3062
11442TIP3   OH255816   1.776   5.440   0.428 -0.2107  0.0359  0.3288
11442TIP3    H155817   1.783   5.369   0.493  0.4260 -0.0724  0.1445
11442TIP3    H255818   1.700   5.415   0.375 -0.2924 -0.2541  0.5755
11443TIP3   OH255819   2.615   1.511   0.268 -0.5721 -0.4262 -0.0336
11443TIP3    H155820   2.552   1.541   0.333 -1.7892  2.0802 -2.1596
11443TIP3    H255821   2.700   1.526   0.308 -1.2649  1.7532  0.7973
11444TIP3   OH255822   5.553   4.605   0.704  0.2002  0.1577  0.0869
11444TIP3    H155823   5.626   4.659   0.734 -0.3973  1.0050  0.0606
11444TIP3    H255824   5.497   4.666   0.655  0.6383 -0.9654 -1.9144
11445TIP3   OH255825   3.058   4.716  15.463  0.2867  0.4365 -0.2060
11445TIP3    H155826   3.081   4.762  15.543  1.8179  0.7225 -0.7698
11445TIP3    H255827   3.106   4.633  15.468 -0.6403 -0.1108 -0.2371
11446TIP3   OH255828   0.658   4.086   0.449 -0.1649 -0.1473 -0.1031
11446TIP3    H155829   0.697   4.044   0.373 -1.0715 -0.9955 -0.1179
11446TIP3    H255830   0.573   4.043   0.460 -1.2482  1.8113 -0.2429
11447TIP3   OH255831   5.534   5.407   0.468 -0.0367 -0.4644 -0.1325
11447TIP3    H155832   5.552   5.372   0.555 -0.8468 -0.4536  0.0499
11447TIP3    H255833   5.480   5.339   0.426  0.6615 -0.6428 -0.7695
11448TIP3   OH255834   5.880   0.210   4.673  0.0907 -0.1715  0.0293
11448TIP3    H155835   5.931   0.260   4.737 -0.7310 -0.2097  0.7231
11448TIP3    H255836   5.886   0.261   4.592  1.0946 -0.0968  0.1322
11449TIP3   OH255837   4.678   1.806  15.515 -0.0512  0.2037 -0.1827
11449TIP3    H155838   4.623   1.780  15.589 -0.3049 -0.5819 -0.6317
11449TIP3    H255839   4.615   1.842  15.451 -0.2031 -1.5069 -1.0629
11450TIP3   OH255840   2.610   2.734   3.671  0.1894  0.1507  0.0816
11450TIP3    H155841   2.583   2.708   3.759  1.1087  1.9637  0.9524
11450TIP3    H255842   2.535   2.710   3.615 -0.3909 -1.0686  1.3233
11451TIP3   OH255843   3.559   0.645   1.930 -0.0107 -0.1828  0.5797
11451TIP3    H155844   3.608   0.574   1.888  1.1748  0.6645  0.4774
11451TIP3    H255845   3.559   0.623   2.023 -0.9712 -1.0719  0.3928
11452TIP3   OH255846   3.007   2.483   2.809  0.4108 -0.4024 -0.4122
11452TIP3    H155847   3.069   2.423   2.850  1.4581 -0.5915 -2.1546
11452TIP3    H255848   3.039   2.492   2.719  0.1836  2.6370 -0.2689
11453TIP3   OH255849   3.414   3.877  14.222  0.1746 -0.0131  0.0717
11453TIP3    H155850   3.339   3.818  14.216 -0.0100  0.2980 -0.9260
11453TIP3    H255851   3.401   3.925  14.304  0.0202 -0.9389  0.5994
11454TIP3   OH255852   4.369   0.126  13.237  0.5922  0.0538  0.2764
11454TIP3    H155853   4.373   0.031  13.249  1.5870 -0.3861 -2.5588
11454TIP3    H255854   4.276   0.148  13.244  0.4711 -0.9121  2.0829
11455TIP3   OH255855   6.272   4.280  16.757 -0.7608  0.3818  0.0295
11455TIP3    H155856   6.356   4.304  16.719 -0.9061  1.1506  0.1765
11455TIP3    H255857   6.239   4.362  16.795 -1.4790  0.0396  0.1478
11456TIP3   OH255858   5.749   4.333   4.956 -0.0981  0.3958 -0.1148
11456TIP3    H155859   5.801   4.297   4.885  0.4551 -0.6063  0.7819
11456TIP3    H255860   5.672   4.277   4.960  0.3016 -0.1111  0.6523
11457TIP3   OH255861   3.290   0.354  10.928 -0.3131 -0.8847  0.6658
11457TIP3    H155862   3.202   0.359  10.890 -0.0458 -0.3202  0.0839
11457TIP3    H255863   3.344   0.318  10.858  0.1892  0.1607  0.4985
11458TIP3   OH255864   1.900   0.665   1.871 -0.5964 -0.7324  0.0976
11458TIP3    H155865   1.881   0.723   1.797 -2.3593 -0.5200  0.6761
11458TIP3    H255866   1.935   0.586   1.831  1.4469  0.5195 -0.7428
11459TIP3   OH255867   3.886   1.861   3.702 -0.4632 -0.6423  0.3721
11459TIP3    H155868   3.925   1.926   3.761  0.2414 -1.5091  0.8787
11459TIP3    H255869   3.838   1.803   3.760 -0.8158 -0.7701 -0.0479
11460TIP3   OH255870   1.458   5.082   1.155 -0.2832  0.1457 -0.0589
11460TIP3    H155871   1.396   5.100   1.226 -1.8258  1.8080 -1.7088
11460TIP3    H255872   1.403   5.071   1.078  1.4615  1.4130 -1.5663
11461TIP3   OH255873   6.469   1.388  11.076  0.2469  0.4673  0.2007
11461TIP3    H155874   6.488   1.448  11.149  1.2392  0.0072  0.3355
11461TIP3    H255875   6.552   1.343  11.060 -0.8873 -2.2000  1.2988
11462TIP3   OH255876   1.118   4.708  12.262  0.4752  0.6332  0.4522
11462TIP3    H155877   1.158   4.677  12.181  0.2063 -3.5139  1.7203
11462TIP3    H255878   1.027   4.725  12.239 -0.8097 -4.6700  0.4635
11463TIP3   OH255879   4.636   6.141   0.940  0.5600 -0.4006  0.0143
11463TIP3    H155880   4.610   6.053   0.913  0.5910  0.3448 -2.7845
11463TIP3    H255881   4.583   6.159   1.018  0.1308 -2.6506  0.2963
11464TIP3   OH255882   4.394   0.854  14.172  0.1790  0.0582 -0.0358
11464TIP3    H155883   4.408   0.831  14.080  2.3984 -1.6319  0.6298
11464TIP3    H255884   4.457   0.924  14.190  1.2296 -1.0065  0.6327
11465TIP3   OH255885   5.756   4.092   2.159  0.9055  0.4860 -0.2040
11465TIP3    H155886   5.714   4.011   2.190  3.2520 -0.3495  0.9718
11465TIP3    H255887   5.721   4.103   2.070 -0.0835 -1.3903 -0.1104
11466TIP3   OH255888   0.312   0.736  15.149 -0.8180 -0.4063 -0.8397
11466TIP3    H155889   0.365   0.707  15.224 -0.5513 -0.9915 -1.2457
11466TIP3    H255890   0.316   0.663  15.088 -0.7442  0.2085 -1.5795
11467TIP3   OH255891   4.985   5.798   1.640  0.5782 -0.2905  0.1836
11467TIP3    H155892   4.900   5.810   1.681  0.5552  2.4997 -0.4423
11467TIP3    H255893   4.980   5.851   1.560  2.2481 -1.6448 -0.8733
11468TIP3   OH255894   2.841   1.790   4.143  0.1556  0.0470  0.1558
11468TIP3    H155895   2.798   1.839   4.213 -0.3825 -0.7522  0.4073
11468TIP3    H255896   2.789   1.807   4.065 -0.5297 -0.7691  0.4197
11469TIP3   OH255897   2.108   4.976   3.286 -0.0610 -0.6733  0.0578
11469TIP3    H155898   2.029   5.021   3.317 -0.1049 -0.4373 -0.3851
11469TIP3    H255899   2.146   4.938   3.365  0.1553  0.4224  0.5067
11470TIP3   OH255900   4.068   2.804   3.996 -0.1912  0.4609 -0.1658
11470TIP3    H155901   4.035   2.838   4.080 -1.0103  2.4031 -1.2097
11470TIP3    H255902   4.163   2.812   4.003 -0.3170  3.7902 -0.5715
11471TIP3   OH255903   3.580   1.215   1.445  0.1165 -0.3159 -0.3960
11471TIP3    H155904   3.635   1.158   1.499 -0.5450 -1.5245 -0.9522
11471TIP3    H255905   3.560   1.289   1.502  0.0085 -1.2207  0.8054
11472TIP3   OH255906   6.187   2.436  16.955 -0.1349 -0.2214  0.5697
11472TIP3    H155907   6.262   2.485  16.988 -0.2473  0.7557 -0.5747
11472TIP3    H255908   6.217   2.346  16.950  1.5340  0.3705 -1.3980
11473TIP3   OH255909   6.342   5.703  16.501 -0.2686 -0.4108  0.4277
11473TIP3    H155910   6.344   5.763  16.576 -0.5958 -0.4498  0.4686
11473TIP3    H255911   6.304   5.754  16.430  1.0170 -0.0355 -0.0175
11474TIP3   OH255912   3.961   1.001  12.737  0.1928  0.4538  0.3852
11474TIP3    H155913   3.971   1.065  12.667 -1.0734  1.0682  0.7418
11474TIP3    H255914   4.033   1.021  12.798  1.3554 -0.1482 -0.7459
11475TIP3   OH255915   1.217   5.323   0.198  0.6831 -0.5201  0.1824
11475TIP3    H155916   1.136   5.277   0.177  0.7298 -0.3181 -0.4589
11475TIP3    H255917   1.261   5.335   0.114  1.8581 -1.4986  0.6223
11476TIP3   OH255918   6.083   1.771   6.202 -0.1829  0.3142 -0.0966
11476TIP3    H155919   6.040   1.815   6.275  0.5825 -0.6861  0.9871
11476TIP3    H255920   6.159   1.728   6.241 -1.5577 -3.0264 -0.7700
11477TIP3   OH255921   2.756   4.301  15.615 -0.1627 -0.5264  0.4753
11477TIP3    H155922   2.671   4.343  15.623 -0.4902 -0.8329 -1.1683
11477TIP3    H255923   2.786   4.322  15.526  0.7528 -1.7410  0.4704
11478TIP3   OH255924   2.564   1.118  13.892 -0.2029 -0.0773  0.5140
11478TIP3    H155925   2.613   1.070  13.825 -1.6679  0.1275 -0.7720
11478TIP3    H255926   2.594   1.081  13.975  3.0973  0.9808 -0.0807
11479TIP3   OH255927   4.368   1.301  16.701  0.0827  0.1074  0.1182
11479TIP3    H155928   4.450   1.263  16.733  0.2517  1.3916  1.2869
11479TIP3    H255929   4.391   1.388  16.671 -0.7125  0.1712 -0.3420
11480TIP3   OH255930   6.564   3.482  14.884 -0.5533  0.0865 -0.0612
11480TIP3    H155931   6.539   3.557  14.831 -0.7664 -0.9055 -1.4094
11480TIP3    H255932   6.640   3.512  14.934 -1.0820  1.4179 -0.0230
11481TIP3   OH255933   2.045   6.773   0.789  0.4249  0.1562 -0.4833
11481TIP3    H155934   2.069   6.716   0.716  0.1458 -0.7132  0.0787
11481TIP3    H255935   1.994   6.716   0.848 -0.1885  1.0908 -0.0824
11482TIP3   OH255936   6.405   0.152  13.047  0.2603 -0.2287 -0.0192
11482TIP3    H155937   6.467   0.199  12.992 -1.7314  0.5608 -1.7070
11482TIP3    H255938   6.374   0.217  13.110  1.0654 -0.6145  0.8028
11483TIP3   OH255939   3.325   2.921  15.779 -0.2026 -0.2846  0.1370
11483TIP3    H155940   3.316   2.851  15.843 -1.1586  0.1147  0.4583
11483TIP3    H255941   3.289   2.885  15.698 -0.9686 -0.0751  0.3779
11484TIP3   OH255942   0.450   6.183   2.461 -0.3805  0.0544  0.1830
11484TIP3    H155943   0.483   6.239   2.391 -1.4756  0.1892 -0.2423
11484TIP3    H255944   0.446   6.096   2.422 -0.3779  0.0092  0.2839
11485TIP3   OH255945   2.785   3.190   1.265  0.0978  0.4344 -0.5083
11485TIP3    H155946   2.700   3.224   1.290  0.0419 -0.9002  1.3536
11485TIP3    H255947   2.845   3.264   1.276 -0.3925  0.6458  1.0060
11486TIP3   OH255948   2.507   3.673  12.163  0.0014 -0.3653 -0.1268
11486TIP3    H155949   2.446   3.679  12.089 -0.0072  1.4266 -0.0192
11486TIP3    H255950   2.556   3.755  12.159 -0.8723  0.3823  2.5869
11487TIP3   OH255951   3.984   6.370  13.103 -0.2160 -0.2459  0.7779
11487TIP3    H155952   4.059   6.311  13.101 -0.9840 -1.2530  0.5213
11487TIP3    H255953   3.994   6.425  13.026  0.9652  0.5532  1.4872
11488TIP3   OH255954   0.300   6.558  15.652  0.0106 -0.1341 -0.1908
11488TIP3    H155955   0.328   6.469  15.632 -0.2339 -0.0966 -0.7049
11488TIP3    H255956   0.235   6.579  15.586  1.0507  0.9121 -0.9245
11489TIP3   OH255957   3.729   3.074   1.408  0.1776  0.8526 -0.2766
11489TIP3    H155958   3.695   3.088   1.320  0.3700  0.7808 -0.3626
11489TIP3    H255959   3.706   2.983   1.429 -0.3729  1.0447 -0.0278
11490TIP3   OH255960   4.999   5.938  15.293  0.1536  0.5226  0.3443
11490TIP3    H155961   4.991   5.944  15.389 -0.4571 -2.4945  0.5745
11490TIP3    H255962   4.926   5.882  15.266  0.4950  1.0556 -1.8724
11491TIP3   OH255963   4.523   0.079  11.537 -0.0793  0.8723 -0.1167
11491TIP3    H155964   4.527   0.029  11.619 -1.5688  1.3791  0.3148
11491TIP3    H255965   4.439   0.053  11.498 -0.1930  1.9161 -0.6043
11492TIP3   OH255966   2.739   3.169  14.665  0.5211 -0.5442  0.3753
11492TIP3    H155967   2.815   3.158  14.608 -1.0302 -1.6144 -1.6168
11492TIP3    H255968   2.675   3.216  14.611 -1.2386 -2.1234  0.9730
11493TIP3   OH255969   6.797   5.927   1.177  0.1697  0.0210 -0.0883
11493TIP3    H155970   6.871   5.867   1.180  0.7820  0.7641 -0.2316
11493TIP3    H255971   6.793   5.955   1.086  1.2546  1.8748  0.3905
11494TIP3   OH255972   3.991   3.105  13.042  0.0632  0.1409 -0.3553
11494TIP3    H155973   3.978   3.116  13.136  0.8692  1.0094 -0.3268
11494TIP3    H255974   4.063   3.164  13.021  1.0913 -1.3572 -1.2108
11495TIP3   OH255975   1.575   0.842   3.803 -0.7898 -0.4052  0.3122
11495TIP3    H155976   1.506   0.788   3.842 -0.2133 -1.2458  0.1861
11495TIP3    H255977   1.530   0.894   3.737 -1.5824  0.2139  1.3044
11496TIP3   OH255978   2.280   4.447  12.570 -0.1916 -0.5460  0.0042
11496TIP3    H155979   2.253   4.369  12.617  0.5218 -0.1326  1.1493
11496TIP3    H255980   2.250   4.520  12.624 -0.3733 -0.0337 -0.7684
11497TIP3   OH255981   0.826   2.354   0.069  0.3513 -0.4475  0.4309
11497TIP3    H155982   0.847   2.384  -0.019  0.0527  0.1421  0.5546
11497TIP3    H255983   0.897   2.388   0.124 -0.9286  1.7306  0.8838
11498TIP3   OH255984   1.359   6.594  13.708 -0.1999 -0.5379 -0.1101
11498TIP3    H155985   1.419   6.531  13.747  0.5424  0.8948  1.2009
11498TIP3    H255986   1.373   6.674  13.759 -1.3455  0.5836 -1.4772
11499TIP3   OH255987   4.178   2.671  10.594 -0.2737  0.3628  0.2140
11499TIP3    H155988   4.258   2.632  10.628  0.3311 -0.2281 -1.7176
11499TIP3    H255989   4.111   2.653  10.660  0.9852  0.1027  1.4515
11500TIP3   OH255990   0.710   1.846  14.566 -0.4332 -0.0381 -0.4213
11500TIP3    H155991   0.749   1.800  14.641 -2.3518 -2.1701 -0.6288
11500TIP3    H255992   0.646   1.905  14.605 -0.0818  0.2784 -0.3117
11501TIP3   OH255993   6.056   1.652  12.843 -0.0407  0.0743 -0.3258
11501TIP3    H155994   6.003   1.611  12.775 -1.9018  1.7611  0.0008
11501TIP3    H255995   6.115   1.710  12.796  3.0977 -3.1842 -0.8486
11502TIP3   OH255996   0.183   2.851  13.648 -0.2471  0.0016 -0.2800
11502TIP3    H155997   0.156   2.854  13.557 -0.4563  0.5109 -0.2044
11502TIP3    H255998   0.152   2.766  13.680 -1.5265  0.4541 -0.2707
11503TIP3   OH255999   2.248   1.085   4.006  0.1030 -0.2131  0.4614
11503TIP3    H156000   2.261   0.997   3.971 -0.4746  0.5316 -1.7672
11503TIP3    H256001   2.170   1.118   3.962 -0.3422  1.0306  2.0835
11504TIP3   OH256002   1.236   2.540   2.899  0.8703  0.5445  0.3939
11504TIP3    H156003   1.205   2.629   2.916  0.2806  0.7752 -1.6251
11504TIP3    H256004   1.330   2.544   2.911  0.7643  1.2665  1.0059
11505TIP3   OH256005   1.193   4.464  13.409  0.3451  0.3028  0.2124
11505TIP3    H156006   1.216   4.540  13.357 -0.1547  0.6979  0.5519
11505TIP3    H256007   1.204   4.390  13.350  1.8898  0.5184  0.1942
11506TIP3   OH256008   3.250   4.565   4.431 -0.0622 -0.3726 -0.4610
11506TIP3    H156009   3.254   4.647   4.383 -3.6814  0.4247  0.3581
11506TIP3    H256010   3.212   4.503   4.370  1.5821 -1.2182 -0.6948
11507TIP3   OH256011   4.312   0.095   4.536 -0.3502  0.6356 -0.7176
11507TIP3    H156012   4.403   0.119   4.518 -0.7411  1.3700 -1.8384
11507TIP3    H256013   4.305   0.004   4.508 -0.1050  0.7583 -1.1842
11508TIP3   OH256014   1.062   5.451   2.637 -0.2466 -0.0758  0.0907
11508TIP3    H156015   1.102   5.418   2.557 -0.4184 -0.0786  0.0069
11508TIP3    H256016   0.981   5.494   2.609  0.1245  0.6896  0.1615
11509TIP3   OH256017   2.516   0.898  10.787 -0.5628  0.2272  0.0546
11509TIP3    H156018   2.521   0.948  10.868 -1.3917  1.8697 -0.8560
11509TIP3    H256019   2.597   0.919  10.741 -0.4279 -0.1235  0.1281
11510TIP3   OH256020   3.082   6.157  14.639 -0.1550 -0.7650 -0.0133
11510TIP3    H156021   3.129   6.116  14.712  0.5828 -0.3206 -0.2222
11510TIP3    H256022   3.018   6.215  14.681 -0.9210 -1.7957  0.2798
11511TIP3   OH256023   3.530   0.881   5.562  0.1953 -0.1793 -0.1792
11511TIP3    H156024   3.466   0.866   5.493 -1.1945  0.6921  0.8586
11511TIP3    H256025   3.584   0.952   5.529  2.2502 -2.4684 -2.0800
11512TIP3   OH256026   2.559   4.763  15.560 -0.7491  0.2995  0.2077
11512TIP3    H156027   2.544   4.816  15.638 -2.8648 -1.1345  0.8549
11512TIP3    H256028   2.637   4.712  15.580 -1.4337 -0.2699  1.5442
11513TIP3   OH256029   0.528   0.945   2.994 -0.3588  0.5429  0.3151
11513TIP3    H156030   0.534   1.025   3.045 -2.6604  0.2510  1.1959
11513TIP3    H256031   0.561   0.877   3.052 -2.0896  0.3483  1.1429
11514TIP3   OH256032   4.153   2.300  12.014  0.1095 -0.0041 -0.5487
11514TIP3    H156033   4.130   2.393  12.021 -0.0374 -0.0236 -0.7629
11514TIP3    H256034   4.142   2.280  11.921 -1.5679 -0.6888 -0.2292
11515TIP3   OH256035   0.816   6.551   3.977  0.0180  0.3983  0.1032
11515TIP3    H156036   0.728   6.550   4.014 -0.1739 -1.6209 -0.2821
11515TIP3    H256037   0.819   6.474   3.919  2.0954  0.2726  0.2772
11516TIP3   OH256038   2.847   1.217   2.054 -0.6492  0.0072 -0.3908
11516TIP3    H156039   2.877   1.186   1.969 -1.0550 -1.1066 -0.1438
11516TIP3    H256040   2.771   1.162   2.074 -3.4217  3.1163 -1.3172
11517TIP3   OH256041   1.118   3.339  16.410 -0.2836  0.4884 -0.7604
11517TIP3    H156042   1.211   3.332  16.429 -0.0148  0.4177 -2.0108
11517TIP3    H256043   1.082   3.254  16.434 -0.0546  0.5633 -0.1436
11518TIP3   OH256044   5.405   3.972  15.853  0.0605  0.0528 -0.2791
11518TIP3    H156045   5.321   3.997  15.891 -0.1542  0.6711 -1.1476
11518TIP3    H256046   5.469   4.027  15.898  0.1987 -1.3543  1.3540
11519TIP3   OH256047   2.262   5.195   3.248 -0.1310  0.0893 -0.5199
11519TIP3    H156048   2.354   5.181   3.271  0.1842  0.7375 -1.3449
11519TIP3    H256049   2.227   5.107   3.235  0.3588 -0.1650 -0.1589
11520TIP3   OH256050   6.157   3.696   2.686  0.0829  0.2667  0.3949
11520TIP3    H156051   6.115   3.746   2.756 -2.3366  0.6220 -1.2106
11520TIP3    H256052   6.086   3.649   2.643  1.6197 -0.7471 -1.1991
11521TIP3   OH256053   6.797   2.407  14.111  0.6165 -0.1030  0.5939
11521TIP3    H156054   6.822   2.315  14.107  2.0511  0.2827  0.0911
11521TIP3    H256055   6.877   2.453  14.136 -0.2244  0.9557  1.4363
11522TIP3   OH256056   5.376   2.616   4.011  0.0525 -0.5311 -0.1411
11522TIP3    H156057   5.336   2.698   3.983  2.2897  0.4379 -0.6494
11522TIP3    H256058   5.302   2.564   4.044 -1.5814  1.1983 -0.8867
11523TIP3   OH256059   6.674   0.834   2.192 -0.2632  0.1465 -0.2171
11523TIP3    H156060   6.620   0.885   2.252 -0.2173  1.3370 -1.1529
11523TIP3    H256061   6.635   0.746   2.193 -1.1628  0.5419  0.4058
11524TIP3   OH256062   4.262   5.760  13.780  0.4426 -0.3571 -0.1792
11524TIP3    H156063   4.184   5.808  13.755 -0.6834 -1.3822  1.2251
11524TIP3    H256064   4.283   5.706  13.703 -0.5019 -0.4143 -0.4042
11525TIP3   OH256065   3.048   6.521  16.751 -0.9007  0.2051 -0.0803
11525TIP3    H156066   2.973   6.483  16.706 -1.8864  1.3313  0.5392
11525TIP3    H256067   3.121   6.509  16.691 -1.6246 -0.6877 -0.8167
11526TIP3   OH256068   4.759   0.539   5.675 -0.7827 -0.2273 -0.2949
11526TIP3    H156069   4.814   0.585   5.739 -0.2926 -2.3257  0.8854
11526TIP3    H256070   4.814   0.531   5.597  0.1105 -1.1379  0.4164
11527TIP3   OH256071   4.278   1.210  12.142  0.1944 -0.1558  0.3874
11527TIP3    H156072   4.196   1.239  12.183  0.4010 -1.5754  1.8664
11527TIP3    H256073   4.250   1.167  12.061 -0.2921  1.7132 -0.5022
11528TIP3   OH256074   4.958   0.558  11.544  0.7684 -0.1745 -0.6776
11528TIP3    H156075   4.914   0.600  11.618 -0.1367  0.6335 -1.6347
11528TIP3    H256076   5.048   0.547  11.572  1.6764  4.3848 -1.0674
11529TIP3   OH256077   6.756   3.826   2.604 -0.1109  0.8185 -0.2331
11529TIP3    H156078   6.740   3.751   2.661  2.5213 -0.2616 -0.8016
11529TIP3    H256079   6.671   3.842   2.563 -0.6644 -2.2866 -0.5875
11530TIP3   OH256080   1.612   4.214   4.953  0.9670  0.0903 -0.1793
11530TIP3    H156081   1.707   4.198   4.957  1.3118  1.6255 -1.2335
11530TIP3    H256082   1.581   4.156   4.885  1.5322  1.0278 -1.2742
11531TIP3   OH256083   5.384   4.203   1.518  0.3675  0.0512 -0.6682
11531TIP3    H156084   5.375   4.238   1.429 -0.6790 -0.8262 -0.9280
11531TIP3    H256085   5.321   4.132   1.523  2.3782 -1.8296 -0.1591
11532TIP3   OH256086   5.773   1.656   6.237  0.5921  0.1762  0.0319
11532TIP3    H156087   5.844   1.604   6.199 -0.4583 -1.4538  0.1813
11532TIP3    H256088   5.804   1.677   6.326  0.3123 -1.8451  0.6569
11533TIP3   OH256089   0.330   6.141   0.199  0.0940 -0.0256  0.3495
11533TIP3    H156090   0.263   6.094   0.248 -0.9601  0.1668 -0.8337
11533TIP3    H256091   0.343   6.222   0.248 -1.2123  0.3372  0.1601
11534TIP3   OH256092   5.483   3.017  12.821 -0.5969  0.6869 -0.0711
11534TIP3    H156093   5.460   3.033  12.912  1.4830  1.1158  0.4267
11534TIP3    H256094   5.549   2.947  12.824 -0.7836  0.4293 -1.2738
11535TIP3   OH256095   3.129   1.742   0.865  0.0459  0.0531  0.3124
11535TIP3    H156096   3.150   1.790   0.945 -1.3712 -1.9152  1.9866
11535TIP3    H256097   3.094   1.658   0.896 -2.7665  0.0791 -2.3041
11536TIP3   OH256098   0.878   4.921  11.585  0.4038 -0.1173  0.4214
11536TIP3    H156099   0.824   4.934  11.507 -0.1193  0.4165  0.8617
11536TIP3    H256100   0.958   4.882  11.552 -0.1986 -0.8178 -0.2620
11537TIP3   OH256101   2.728   0.489  12.643 -0.1997  0.1771  0.2609
11537TIP3    H156102   2.668   0.469  12.715  2.3604 -0.5530  2.3267
11537TIP3    H256103   2.790   0.552  12.680 -0.1194  1.5879 -2.0608
11538TIP3   OH256104   5.980   4.867   0.057 -0.1384 -0.3532  0.3836
11538TIP3    H156105   5.890   4.898   0.072  0.1962  0.1716  1.3741
11538TIP3    H256106   6.035   4.938   0.090  0.6504 -1.0230  0.5167
11539TIP3   OH256107   2.192   5.123  13.701 -0.1833  0.6206 -0.7569
11539TIP3    H156108   2.281   5.154  13.717 -0.4923  1.7841 -1.1996
11539TIP3    H256109   2.159   5.101  13.788 -0.2183  2.3368 -0.2842
11540TIP3   OH256110   1.603   6.770  10.705  0.2078 -0.0965  0.4576
11540TIP3    H156111   1.618   6.865  10.707 -1.1328  0.1289  0.8078
11540TIP3    H256112   1.620   6.742  10.795  2.0715 -0.4700  0.0377
11541TIP3   OH256113   0.986   5.167   4.638 -0.2126 -0.0659  0.2334
11541TIP3    H156114   0.984   5.263   4.646  0.1495 -0.0607  0.2963
11541TIP3    H256115   1.079   5.147   4.624  0.0232 -0.5802  2.2949
11542TIP3   OH256116   4.807   4.553  11.167 -0.0343  0.0028  0.2904
11542TIP3    H156117   4.805   4.572  11.074 -0.1569 -0.4864  0.1905
11542TIP3    H256118   4.765   4.629  11.208  1.3515  0.9172  0.0741
11543TIP3   OH256119   0.479   5.773   1.213 -0.2174  0.0507 -0.2828
11543TIP3    H156120   0.433   5.689   1.207 -0.7669  0.3121  0.1274
11543TIP3    H256121   0.547   5.759   1.278  1.5127 -0.8743 -2.1653
11544TIP3   OH256122   3.496   4.995  15.079 -0.8035 -0.3030  0.6980
11544TIP3    H156123   3.440   5.072  15.076 -1.3465 -0.7083  0.1087
11544TIP3    H256124   3.499   4.971  15.171  1.5605  1.9659  1.3320
11545TIP3   OH256125   0.275   1.307  12.657  0.0935  0.5232  0.0266
11545TIP3    H156126   0.220   1.246  12.707 -0.7447  1.0538 -0.2345
11545TIP3    H256127   0.230   1.391  12.664  1.8270  1.3977  1.3397
11546TIP3   OH256128   3.046   5.956  13.259  0.2768  0.0223 -0.0027
11546TIP3    H156129   3.078   6.006  13.335 -1.6099  0.0002  0.8701
11546TIP3    H256130   2.995   5.884  13.297 -1.1093  0.2819 -1.2604
11547TIP3   OH256131   4.209   5.039   2.668  0.2108 -0.1977 -0.2891
11547TIP3    H156132   4.231   5.130   2.689  0.7894 -0.0405 -1.5184
11547TIP3    H256133   4.143   5.015   2.733  0.2341  1.0141  0.2116
11548TIP3   OH256134   5.891   3.232  11.387  0.7828 -0.7731 -0.4639
11548TIP3    H156135   5.819   3.237  11.450  0.7002  0.5676 -0.6325
11548TIP3    H256136   5.863   3.167  11.323 -0.9722  0.7392 -1.3283
11549TIP3   OH256137   0.314   4.790   1.165 -0.4531  0.5994  0.0949
11549TIP3    H156138   0.348   4.793   1.076  0.5093 -1.7027  0.3352
11549TIP3    H256139   0.219   4.789   1.153 -0.3478 -1.0760 -1.0332
11550TIP3   OH256140   0.957   4.759  16.139 -0.1964 -0.4430  0.2573
11550TIP3    H156141   1.011   4.779  16.063 -0.9166 -1.0580 -0.4373
11550TIP3    H256142   0.966   4.836  16.196  0.7711 -0.2043 -0.1951
11551TIP3   OH256143   0.745   1.080   3.810 -0.2990  0.0044 -0.1855
11551TIP3    H156144   0.723   1.020   3.738  2.1373  0.4101 -1.3851
11551TIP3    H256145   0.703   1.162   3.787 -1.8461 -0.5981  0.3501
11552TIP3   OH256146   5.911   4.361  16.717 -0.0865  0.1845 -0.3935
11552TIP3    H156147   5.931   4.358  16.624  2.1322 -0.4011  0.0483
11552TIP3    H256148   5.941   4.277  16.751 -0.6910  0.4610  0.8862
11553TIP3   OH256149   4.716   1.331   4.337  0.3887 -0.8685 -0.4686
11553TIP3    H156150   4.659   1.323   4.413  1.3805  1.2792  0.5901
11553TIP3    H256151   4.788   1.270   4.355 -0.7411 -2.4446 -1.0805
11554TIP3   OH256152   0.250   5.688   0.307 -0.3040 -0.6006  0.4819
11554TIP3    H156153   0.167   5.646   0.282 -1.4706  2.1514 -0.6179
11554TIP3    H256154   0.317   5.634   0.265 -1.3196 -3.6319  2.3896
11555TIP3   OH256155   5.551   4.535   3.501 -0.3484 -0.2116 -0.2475
11555TIP3    H156156   5.456   4.540   3.498 -0.4924 -1.8128  0.7344
11555TIP3    H256157   5.573   4.455   3.454  0.4145 -0.5643  0.6798
11556TIP3   OH256158   3.841   0.055   3.260 -0.2255 -0.4177 -0.3403
11556TIP3    H156159   3.786   0.128   3.289 -0.1713 -0.2983 -0.5307
11556TIP3    H256160   3.915   0.056   3.320 -1.1257 -1.4910  0.8302
11557TIP3   OH256161   1.022   4.133  15.936 -0.9145  0.2210  0.0756
11557TIP3    H156162   1.075   4.192  15.883 -0.1902 -0.6453 -0.1973
11557TIP3    H256163   1.059   4.141  16.024  0.7466 -1.5159 -0.3974
11558TIP3   OH256164   3.572   0.549   6.119 -0.1370 -0.0364  0.1148
11558TIP3    H156165   3.585   0.456   6.136 -0.0946 -0.1241 -0.3886
11558TIP3    H256166   3.477   0.562   6.130 -0.1089 -0.0891  0.4219
11559TIP3   OH256167   6.548   4.750   2.592  0.1620 -0.1493  0.2811
11559TIP3    H156168   6.584   4.829   2.632 -1.0120 -0.4149  1.9644
11559TIP3    H256169   6.535   4.690   2.665 -0.3085 -1.3819 -0.7769
11560TIP3   OH256170   4.077   1.013   0.770  0.9495  0.0853  0.6328
11560TIP3    H156171   4.102   1.098   0.806  1.2815 -0.2368  1.1823
11560TIP3    H256172   4.007   0.983   0.828  0.9947 -0.1194  0.5793
11561TIP3   OH256173   2.000   0.380   1.033 -0.0065 -0.4653 -0.2262
11561TIP3    H156174   1.995   0.446   1.102  0.2158 -0.1093 -0.5460
11561TIP3    H256175   2.088   0.392   0.995  0.1905 -1.2065 -0.0242
11562TIP3   OH256176   6.559   4.687   5.619  0.6028 -0.0191 -0.4546
11562TIP3    H156177   6.535   4.718   5.706  0.0928  0.0753 -0.6241
11562TIP3    H256178   6.655   4.683   5.620  0.5647 -1.6012  0.6520
11563TIP3   OH256179   3.610   4.104  14.337  0.8831 -0.4176  0.0556
11563TIP3    H156180   3.662   4.160  14.279 -1.0362  1.8199  0.3343
11563TIP3    H256181   3.589   4.027  14.284  0.3740  0.9078 -1.7479
11564TIP3   OH256182   5.100   3.625   4.011 -0.4038  0.4635  0.0217
11564TIP3    H156183   5.131   3.583   4.092  2.5052  2.0470 -0.1119
11564TIP3    H256184   5.027   3.679   4.039  1.0830  1.6674  1.8990
11565TIP3   OH256185   0.287   3.144   3.671  0.2145 -0.1018 -0.3104
11565TIP3    H156186   0.311   3.196   3.594  0.0649 -0.8429 -0.8693
11565TIP3    H256187   0.192   3.134   3.665  0.1076  0.4072  0.3498
11566TIP3   OH256188   2.026   4.781   4.507  0.3167 -0.3367  0.5111
11566TIP3    H156189   2.001   4.700   4.464 -0.8733  0.5011 -0.4577
11566TIP3    H256190   2.093   4.819   4.451 -0.9573  0.5651 -0.4650
11567TIP3   OH256191   0.677   3.044   2.727  0.2393 -0.8277  0.0131
11567TIP3    H156192   0.698   2.952   2.713  2.8799 -0.1275 -1.1672
11567TIP3    H256193   0.628   3.070   2.649  3.1388 -0.3072 -1.7893
11568TIP3   OH256194   0.901   0.662  14.062 -0.7491  0.0959 -0.1719
11568TIP3    H156195   0.905   0.601  13.988 -0.5720  0.1172 -0.1806
11568TIP3    H256196   0.944   0.616  14.134 -1.4843 -0.1716  0.0948
11569TIP3   OH256197   6.121   4.588   5.318 -0.4408  0.4356 -0.2127
11569TIP3    H156198   6.081   4.675   5.323  0.5419  0.9013 -0.1893
11569TIP3    H256199   6.211   4.604   5.290 -0.2509 -0.5822 -0.2461
11570TIP3   OH256200   4.906   2.852   3.201 -0.3328  0.2557 -0.1695
11570TIP3    H156201   4.932   2.828   3.290 -1.8793 -1.3429 -0.0787
11570TIP3    H256202   4.954   2.932   3.182  1.7474 -0.5766  1.2586
11571TIP3   OH256203   0.301   3.175   2.253  0.3446 -0.0073  0.1640
11571TIP3    H156204   0.297   3.141   2.164  0.9407  0.5135 -0.0689
11571TIP3    H256205   0.215   3.216   2.267 -1.2200 -3.2463  1.1672
11572TIP3   OH256206   4.424   6.354  11.838  0.1682 -0.4775 -0.9189
11572TIP3    H156207   4.388   6.429  11.791  0.2085 -0.3489 -0.7487
11572TIP3    H256208   4.348   6.297  11.854 -0.1819  0.3274  0.4340
11573TIP3   OH256209   4.099   6.214   1.224 -0.1917  0.0455 -0.1935
11573TIP3    H156210   4.179   6.166   1.205 -0.5714 -0.7861  0.2788
11573TIP3    H256211   4.086   6.206   1.318 -2.2533 -2.1807 -0.5666
11574TIP3   OH256212   4.499   4.164  12.763 -0.2427 -0.3947  0.6925
11574TIP3    H156213   4.414   4.207  12.768 -0.8579 -1.3794 -0.7685
11574TIP3    H256214   4.501   4.106  12.839  0.5021  1.8888  2.5696
11575TIP3   OH256215   5.895   6.071   4.155 -1.0623  0.1196  0.7565
11575TIP3    H156216   5.809   6.028   4.154 -0.6720 -0.6765  0.0634
11575TIP3    H256217   5.939   6.035   4.232  0.2186 -2.7581 -1.1619
11576TIP3   OH256218   0.080   3.473   5.582 -0.3969  0.2071 -0.1676
11576TIP3    H156219   0.039   3.553   5.549  0.4877  0.8091  0.1592
11576TIP3    H256220   0.107   3.426   5.503 -1.3433 -0.0097 -0.3732
11577TIP3   OH256221   2.143   3.120  14.165 -0.4367  0.0451  0.0903
11577TIP3    H156222   2.155   3.135  14.259 -0.9156 -0.4594  0.2430
11577TIP3    H256223   2.196   3.043  14.146 -1.9197 -1.1032  0.3944
11578TIP3   OH256224   3.981   1.359   3.307 -0.2879 -1.0227  0.1570
11578TIP3    H156225   4.040   1.432   3.324 -0.3867 -0.8237 -0.3205
11578TIP3    H256226   4.006   1.292   3.370 -0.2885 -0.5255  0.6876
11579TIP3   OH256227   5.072   3.288   4.754 -0.0989  0.7018 -0.3888
11579TIP3    H156228   4.988   3.318   4.718 -1.3179 -1.8413  0.1237
11579TIP3    H256229   5.069   3.313   4.846 -0.8329 -0.3715 -0.1063
11580TIP3   OH256230   3.367   3.744  14.570  0.3427 -0.1065 -0.2022
11580TIP3    H156231   3.451   3.732  14.525 -0.0933 -0.6917 -0.8584
11580TIP3    H256232   3.301   3.733  14.502 -0.3339 -1.2110  0.6095
11581TIP3   OH256233   2.559   2.423   5.829 -0.2052  0.0878 -0.0839
11581TIP3    H156234   2.510   2.463   5.901 -0.3989  0.9819 -0.6851
11581TIP3    H256235   2.498   2.360   5.790  0.3731 -1.4393  1.3651
11582TIP3   OH256236   5.158   4.107   0.945 -0.1579 -0.2577  0.2227
11582TIP3    H156237   5.243   4.100   0.902  0.2502 -1.6240  1.1922
11582TIP3    H256238   5.159   4.194   0.987  0.5181 -0.0384 -0.2364
11583TIP3   OH256239   0.013   5.530  15.282 -0.2090  0.0206  0.7263
11583TIP3    H156240   0.009   5.469  15.355 -3.2427 -0.1327  0.5225
11583TIP3    H256241  -0.077   5.561  15.270  0.6426  2.0705 -1.2632
11584TIP3   OH256242   2.258   4.169  15.666  0.5152 -0.1861 -0.0125
11584TIP3    H156243   2.165   4.168  15.642  0.2104 -0.8491  1.1416
11584TIP3    H256244   2.304   4.153  15.583 -0.4160 -0.4340 -0.5011
11585TIP3   OH256245   6.557   1.184   0.150  0.2540 -0.6216  0.7125
11585TIP3    H156246   6.587   1.144   0.068  1.6937  0.1932  0.8096
11585TIP3    H256247   6.494   1.251   0.122  1.4624  0.3234  0.1579
11586TIP3   OH256248   5.679   2.373  15.569 -0.0584  0.0813 -0.0101
11586TIP3    H156249   5.695   2.318  15.492  0.4075 -1.0561  0.8563
11586TIP3    H256250   5.752   2.435  15.570 -0.6569  0.8334 -1.0724
11587TIP3   OH256251   4.522   1.007   2.049  0.0586  0.0043  0.8860
11587TIP3    H156252   4.604   0.984   2.094  0.1555  0.5621  1.0037
11587TIP3    H256253   4.517   0.946   1.975  0.6873  0.0983  0.7606
11588TIP3   OH256254   6.270   4.664  15.836  0.2311 -0.1059 -0.6110
11588TIP3    H156255   6.206   4.601  15.871 -0.8708  0.5025 -1.4623
11588TIP3    H256256   6.217   4.730  15.792  1.3965  1.1260 -0.2416
11589TIP3   OH256257   6.054   4.396   0.354  0.3187  0.0028  0.7681
11589TIP3    H156258   6.029   4.373   0.265 -0.0923 -0.2363  0.9448
11589TIP3    H256259   6.120   4.464   0.343  0.9627 -0.6836  0.2612
11590TIP3   OH256260   2.713   1.888   5.695  0.6327 -0.0421  0.5766
11590TIP3    H156261   2.755   1.971   5.719 -1.9384  1.5446 -0.0374
11590TIP3    H256262   2.688   1.849   5.779  1.0500  0.2361  0.8331
11591TIP3   OH256263   4.143   5.413   4.240 -0.2646  0.1281 -0.4141
11591TIP3    H156264   4.139   5.338   4.299  1.0794  0.4907  0.1747
11591TIP3    H256265   4.190   5.381   4.163 -0.0273  0.2536 -0.3235
11592TIP3   OH256266   5.364   6.300  11.698 -0.0141 -0.1594  0.0241
11592TIP3    H156267   5.327   6.212  11.688  0.5083 -0.2279 -1.6147
11592TIP3    H256268   5.420   6.311  11.621 -0.2200  1.6868  0.1035
11593TIP3   OH256269   6.737   2.279   5.524 -0.1296  0.0741  0.0402
11593TIP3    H156270   6.741   2.205   5.585 -1.8271  0.9532  1.2684
11593TIP3    H256271   6.777   2.352   5.572 -0.5898  0.5297 -0.2652
11594TIP3   OH256272   5.037   2.984   2.646  0.0620 -0.3302  0.5085
11594TIP3    H156273   5.079   2.940   2.572 -0.8985 -1.8143  0.8093
11594TIP3    H256274   4.983   2.916   2.687  1.7191  0.0098  3.5106
11595TIP3   OH256275   4.517   2.791   5.323 -0.1880 -0.1271  0.3599
11595TIP3    H156276   4.572   2.713   5.317 -0.6570 -0.5839  1.7025
11595TIP3    H256277   4.467   2.791   5.241  1.3687 -0.0078 -0.6343
11596TIP3   OH256278   2.270   2.841  13.424  0.1337  0.1974 -0.3844
11596TIP3    H156279   2.183   2.817  13.455 -1.0071  1.2675 -2.5389
11596TIP3    H256280   2.300   2.909  13.484  0.2289 -1.2911  1.3324
11597TIP3   OH256281   4.289   5.491   1.160  0.5047  0.2215  0.0425
11597TIP3    H156282   4.196   5.515   1.164 -0.3462 -2.4069 -1.4596
11597TIP3    H256283   4.304   5.440   1.239 -0.0581 -1.4254 -0.8706
11598TIP3   OH256284   0.824   4.569   5.489  0.6877 -0.3939  0.3309
11598TIP3    H156285   0.838   4.663   5.476 -0.8859 -0.4251 -2.1344
11598TIP3    H256286   0.882   4.547   5.561  0.7119  2.5689  1.3756
11599TIP3   OH256287   4.244   5.926   1.150  0.2366  0.6893 -0.1248
11599TIP3    H156288   4.327   5.880   1.137 -0.5741 -0.2738 -2.5565
11599TIP3    H256289   4.185   5.859   1.185 -0.1800  0.6505 -0.8883
11600TIP3   OH256290   3.367   2.496   4.239  0.2435  0.0288 -0.0428
11600TIP3    H156291   3.364   2.413   4.190  0.4468 -0.0544  0.0809
11600TIP3    H256292   3.455   2.529   4.223  1.1883 -1.1827  2.1601
11601TIP3   OH256293   2.468   2.237  12.083 -0.4326 -0.5612 -0.1444
11601TIP3    H156294   2.464   2.146  12.053  1.5677 -1.0465  0.8751
11601TIP3    H256295   2.449   2.289  12.005 -0.0477 -1.8333 -1.1284
11602TIP3   OH256296   1.064   0.983   0.137 -0.0794  0.1700 -0.3651
11602TIP3    H156297   1.093   0.892   0.125 -1.0691 -0.6435  2.5653
11602TIP3    H256298   0.997   0.996   0.070  0.5746 -1.0066 -1.2880
11603TIP3   OH256299   0.840   4.374   1.369  0.2358 -0.3075  0.1457
11603TIP3    H156300   0.909   4.434   1.396  0.2220 -0.3557  0.2911
11603TIP3    H256301   0.836   4.382   1.274 -1.3948  1.7074  0.3207
11604TIP3   OH256302   2.135   6.549   4.219  0.0774  0.4742 -0.2694
11604TIP3    H156303   2.084   6.547   4.138 -0.6440 -1.7020  0.2007
11604TIP3    H256304   2.070   6.552   4.289  0.5724 -1.4679  0.3152
11605TIP3   OH256305   4.883   3.949   0.184  0.5983  0.1543  0.7218
11605TIP3    H156306   4.873   4.008   0.259  0.9438  0.8463  0.2349
11605TIP3    H256307   4.880   3.861   0.222 -0.3294  0.4699  1.4108
11606TIP3   OH256308   2.351   4.242   2.341  0.0740  0.7681 -0.2372
11606TIP3    H156309   2.325   4.246   2.434  2.0103 -0.1085  0.3897
11606TIP3    H256310   2.317   4.158   2.311  0.5620  0.4637  0.0526
11607TIP3   OH256311   2.020   5.920   3.312 -0.2486  0.2512  0.5479
11607TIP3    H156312   1.945   5.897   3.258  0.1133 -1.2998  0.6586
11607TIP3    H256313   2.025   5.850   3.377  2.1975 -0.5846 -0.4057
11608TIP3   OH256314   0.654   3.240  13.055  0.0411 -0.2429  0.0089
11608TIP3    H156315   0.686   3.311  13.111 -2.6664  1.7624 -0.7432
11608TIP3    H256316   0.567   3.219  13.090  0.2394 -2.3124 -0.6108
11609TIP3   OH256317   3.082   4.941   6.463 -0.2762  0.5211  0.3629
11609TIP3    H156318   3.101   4.983   6.547 -0.1490 -0.0063  0.5977
11609TIP3    H256319   2.987   4.925   6.466 -0.6208  2.2221 -0.3869
11610TIP3   OH256320   4.679   0.793   4.717  0.0825 -0.0050 -0.0976
11610TIP3    H156321   4.747   0.833   4.663 -0.2063 -0.4592 -0.8162
11610TIP3    H256322   4.604   0.853   4.707  0.9236  1.5668  2.2554
11611TIP3   OH256323   3.235   6.844   1.157 -0.1163 -0.3214 -0.1379
11611TIP3    H156324   3.287   6.919   1.185 -1.4707  0.2939  0.8550
11611TIP3    H256325   3.157   6.882   1.117 -0.5821 -1.1984 -0.0876
11612TIP3   OH256326   4.316   5.760  11.535 -0.0639  0.2800 -0.1048
11612TIP3    H156327   4.275   5.846  11.539 -0.7201  0.0738 -1.5721
11612TIP3    H256328   4.260   5.703  11.589 -0.3708  0.4973 -0.1951
11613TIP3   OH256329   5.093   0.424  14.433  0.2425  0.4533 -0.3395
11613TIP3    H156330   5.095   0.336  14.397 -0.8787  1.2825 -2.6609
11613TIP3    H256331   5.054   0.414  14.520  1.6731 -1.4901  0.1313
11614TIP3   OH256332   3.623   1.821   4.909  0.1867  0.3366  0.7355
11614TIP3    H156333   3.563   1.831   4.835 -1.8337 -1.5553  1.9698
11614TIP3    H256334   3.687   1.757   4.879  0.5990  1.0671 -0.0042
11615TIP3   OH256335   2.516   2.815  15.811  0.4051 -0.4206  0.1138
11615TIP3    H156336   2.556   2.752  15.870  1.5907  0.2775  0.0941
11615TIP3    H256337   2.539   2.784  15.724  1.0541  0.0516  0.1059
11616TIP3   OH256338   4.811   6.256   2.389 -0.3074 -0.1254  0.1049
11616TIP3    H156339   4.761   6.317   2.443  0.5147 -0.6212  1.4886
11616TIP3    H256340   4.807   6.173   2.437 -0.4736 -0.8800 -1.1750
11617TIP3   OH256341   6.292   2.360   0.825 -0.5750 -0.3382 -0.0132
11617TIP3    H156342   6.313   2.270   0.801  0.2310 -0.4330  0.9806
11617TIP3    H256343   6.377   2.401   0.840 -0.8401  1.0060 -1.8211
11618TIP3   OH256344   3.307   3.317  13.855  0.3769 -0.0908  0.3096
11618TIP3    H156345   3.230   3.262  13.870  0.7669 -0.7796 -0.1395
11618TIP3    H256346   3.273   3.397  13.817 -0.2498  0.1718  1.3778
11619TIP3   OH256347   5.639   0.230   3.118 -0.1401 -0.3015  0.3604
11619TIP3    H156348   5.573   0.232   3.187 -0.8935  0.3462 -0.3607
11619TIP3    H256349   5.592   0.199   3.040  1.0577 -2.6801  0.4809
11620TIP3   OH256350   4.649   0.932  15.132  0.1754 -0.2786  0.1369
11620TIP3    H156351   4.559   0.954  15.108  0.3693  1.9424  1.2300
11620TIP3    H256352   4.676   0.867  15.067 -2.6312 -2.0476  0.5631
11621TIP3   OH256353   4.004   2.176  13.793 -0.0440  0.3956  0.1522
11621TIP3    H156354   4.017   2.091  13.834 -0.4927  0.4359  0.3890
11621TIP3    H256355   4.087   2.221  13.805  0.7317 -0.5757 -1.3783
11622TIP3   OH256356   5.462   0.848   2.338  0.1497  0.1239 -0.1832
11622TIP3    H156357   5.466   0.780   2.405  1.0428  0.5325  0.1991
11622TIP3    H256358   5.529   0.824   2.275  1.5250  1.3959  0.7185
11623TIP3   OH256359   1.500   4.119   5.696 -0.1137  0.1495 -0.0767
11623TIP3    H156360   1.500   4.034   5.742 -1.8396  0.2901  0.2322
11623TIP3    H256361   1.466   4.181   5.760  1.0725  1.0897 -0.3265
11624TIP3   OH256362   2.111   3.414  13.501  0.3695  0.3145 -0.0866
11624TIP3    H156363   2.108   3.374  13.588  1.7408 -0.2515 -0.2861
11624TIP3    H256364   2.137   3.504  13.517  4.0707 -0.6140 -0.0868
11625TIP3   OH256365   6.626   5.054  15.909  0.2015  0.0998  0.0223
11625TIP3    H156366   6.559   5.107  15.953 -1.7322 -1.5950 -0.7027
11625TIP3    H256367   6.611   5.068  15.816  0.2443 -0.9820 -0.1650
11626TIP3   OH256368   4.576   3.807  16.642 -0.1992  0.0852 -0.1897
11626TIP3    H156369   4.546   3.732  16.591  3.4503 -0.7014 -1.4520
11626TIP3    H256370   4.575   3.776  16.732 -0.8309 -0.6659 -0.4396
11627TIP3   OH256371   2.910   5.089  16.243  0.3067 -0.6018  0.9849
11627TIP3    H156372   2.954   5.171  16.222 -0.6137 -0.5101 -0.8118
11627TIP3    H256373   2.824   5.115  16.275 -0.7552 -0.8133 -1.4709
11628TIP3   OH256374   4.003   6.648   4.053 -0.0581 -0.5387  0.5062
11628TIP3    H156375   4.003   6.560   4.015  0.2889 -0.0062 -0.7760
11628TIP3    H256376   3.914   6.680   4.038 -0.0510 -0.5016  0.5452
11629TIP3   OH256377   5.584   1.940  15.651 -0.5863 -0.1527  0.0910
11629TIP3    H156378   5.668   1.921  15.694 -0.6131 -0.9924 -0.2112
11629TIP3    H256379   5.518   1.926  15.720 -0.4834  0.5420  0.3384
11630TIP3   OH256380   0.371   6.758  17.108  0.2048 -0.1596  0.3569
11630TIP3    H156381   0.346   6.811  17.183 -0.3951  0.4878 -0.2888
11630TIP3    H256382   0.291   6.750  17.057  0.5682 -0.7333 -0.1332
11631TIP3   OH256383   0.585   3.263   6.491 -0.1210 -0.2906  0.2509
11631TIP3    H156384   0.508   3.230   6.445 -0.9019 -1.1651  2.0946
11631TIP3    H256385   0.556   3.345   6.531  0.1234 -0.2678  0.3839
11632TIP3   OH256386   4.156   1.506   1.331 -0.5583 -0.6507  0.4262
11632TIP3    H156387   4.230   1.508   1.269 -0.8533 -1.2327  0.0424
11632TIP3    H256388   4.081   1.533   1.279 -0.2220  2.6835  1.4626
11633TIP3   OH256389   6.545   5.701  13.627  0.0407  0.2804  0.3513
11633TIP3    H156390   6.475   5.686  13.565 -0.2677  1.5118  0.3713
11633TIP3    H256391   6.598   5.771  13.588  1.8729 -1.2882 -0.1514
11634TIP3   OH256392   5.619   6.295  11.124  0.2252 -0.2904 -0.2029
11634TIP3    H156393   5.660   6.209  11.115  1.2915  0.2171 -0.4379
11634TIP3    H256394   5.591   6.317  11.035 -0.5728 -0.6312 -0.0445
11635TIP3   OH256395   0.896   4.264   5.774 -0.4818 -0.0371  0.2504
11635TIP3    H156396   0.977   4.238   5.819  0.5747  0.5445 -1.2111
11635TIP3    H256397   0.895   4.360   5.781 -2.3616 -0.1243  2.3281
11636TIP3   OH256398   5.376   6.551  14.504 -0.1196 -0.3253 -0.9642
11636TIP3    H156399   5.336   6.491  14.567  1.5773 -0.3580  0.1713
11636TIP3    H256400   5.359   6.638  14.540  1.6348 -0.3799  0.1000
11637TIP3   OH256401   1.215   4.821   6.461 -0.1699  0.7974 -0.7275
11637TIP3    H156402   1.236   4.830   6.554 -0.6822  3.0526 -0.7795
11637TIP3    H256403   1.291   4.855   6.415  0.1631 -0.4880 -1.1745
11638TIP3   OH256404   5.525   0.370   0.179 -0.2242 -0.4494  0.2797
11638TIP3    H156405   5.562   0.302   0.236 -0.3287 -0.1855  0.6608
11638TIP3    H256406   5.587   0.374   0.106 -0.0708 -0.7667  0.3843
11639TIP3   OH256407   5.321   0.020   3.705  0.4707  0.6133 -0.0900
11639TIP3    H156408   5.228   0.017   3.684  0.2768  0.4086  0.7499
11639TIP3    H256409   5.352  -0.069   3.690  0.5381  0.6858 -0.3862
11640TIP3   OH256410   6.436   4.354  11.459  0.5866  0.0384 -0.2036
11640TIP3    H156411   6.381   4.425  11.425 -0.6293 -1.3635 -1.2621
11640TIP3    H256412   6.511   4.351  11.400 -0.4212 -0.9231 -1.4875
11641TIP3   OH256413   6.746   2.131   0.815 -0.2200 -0.1529  0.2984
11641TIP3    H156414   6.809   2.178   0.760  0.8717  1.2630  2.5890
11641TIP3    H256415   6.797   2.106   0.892 -1.9853 -0.8991  1.2624
11642TIP3   OH256416   4.921   3.950  12.199  0.2636 -0.7078  0.2813
11642TIP3    H156417   4.976   3.890  12.149 -0.4127 -0.9730 -0.1558
11642TIP3    H256418   4.967   4.034  12.193  0.0668 -0.6656 -1.0289
11643TIP3   OH256419   5.146   2.701  15.315 -0.0432  0.4363 -0.1853
11643TIP3    H156420   5.088   2.753  15.370  0.5082  0.2174  0.6249
11643TIP3    H256421   5.210   2.764  15.281 -0.6310  0.6445 -0.9303
11644TIP3   OH256422   0.473   5.896   4.997 -0.0091  0.2558  0.1939
11644TIP3    H156423   0.397   5.953   5.013  2.1626  3.2953  0.3752
11644TIP3    H256424   0.473   5.882   4.903 -0.7852  0.1890  0.1955
11645TIP3   OH256425   1.602   4.997   0.127 -0.7222 -0.5535 -0.4220
11645TIP3    H156426   1.631   4.919   0.079  0.2889 -1.6027  1.7315
11645TIP3    H256427   1.510   4.981   0.145 -0.4091 -1.5188  0.4194
11646TIP3   OH256428   6.704   2.696   1.283 -0.6936 -0.0542 -0.2336
11646TIP3    H156429   6.735   2.785   1.298  1.0018 -1.0376  2.8589
11646TIP3    H256430   6.611   2.706   1.261  0.1237  2.5761 -3.2586
11647TIP3   OH256431   2.028   1.530  14.532  0.3044  0.2079  0.4820
11647TIP3    H156432   2.048   1.611  14.484 -0.1589  0.2628  0.3792
11647TIP3    H256433   1.944   1.501  14.497  0.6570 -0.5357  0.2410
11648TIP3   OH256434   1.183   1.848   6.441 -0.3426  0.7535  0.3961
11648TIP3    H156435   1.119   1.916   6.461 -0.6324  1.5157 -2.5919
11648TIP3    H256436   1.266   1.896   6.430 -0.3524  0.5451 -0.7644
11649TIP3   OH256437   6.509   1.046  16.221 -0.0745  0.4781  0.1136
11649TIP3    H156438   6.550   1.109  16.281  2.7929 -1.1959  0.1027
11649TIP3    H256439   6.438   1.007  16.273 -0.2992  1.9337  0.9638
11650TIP3   OH256440   1.939   6.141  10.658  0.5304  0.0148  0.5221
11650TIP3    H156441   1.881   6.197  10.605 -0.5140 -0.6690  0.9196
11650TIP3    H256442   2.003   6.106  10.595 -0.2494 -0.2091 -0.1620
11651TIP3   OH256443   1.570   4.887   3.450  0.7201  0.5172  0.6943
11651TIP3    H156444   1.653   4.861   3.490  1.2335 -0.6139 -1.0139
11651TIP3    H256445   1.517   4.808   3.450  0.1687  0.8801  0.4711
11652TIP3   OH256446   6.610   5.408  12.123  0.0746  0.3714 -0.2128
11652TIP3    H156447   6.700   5.381  12.141  0.1035 -0.3420 -1.3754
11652TIP3    H256448   6.605   5.414  12.028 -1.7981 -2.0554 -0.3413
11653TIP3   OH256449   2.873   0.453  16.316 -0.3154  0.0079 -0.2746
11653TIP3    H156450   2.943   0.490  16.263 -1.8504  2.3710 -0.8369
11653TIP3    H256451   2.916   0.389  16.372  1.9360 -0.0222 -1.9019
11654TIP3   OH256452   6.386   3.148   3.691 -1.0474 -0.6967 -1.1216
11654TIP3    H156453   6.457   3.171   3.632  0.0169 -0.1299  0.3138
11654TIP3    H256454   6.402   3.056   3.713 -0.4856 -0.4479 -0.4608
11655TIP3   OH256455   1.842   3.572  16.791 -0.0369  0.5612  0.0483
11655TIP3    H156456   1.838   3.606  16.702  0.4420 -0.4705 -0.3882
11655TIP3    H256457   1.865   3.480  16.780  2.0648  0.8645  1.3050
11656TIP3   OH256458   5.476   3.810  11.176  0.1293  0.3966  0.8005
11656TIP3    H156459   5.507   3.739  11.120 -1.3432  0.5452 -0.2688
11656TIP3    H256460   5.396   3.841  11.133  0.4821  2.3980  1.4831
11657TIP3   OH256461   1.123   3.527  11.780  0.2216  0.5977  0.1346
11657TIP3    H156462   1.217   3.542  11.794 -0.2870  2.0196  2.4811
11657TIP3    H256463   1.102   3.453  11.837 -0.6465  2.3135  2.1324
11658TIP3   OH256464   2.241   6.219  10.338 -0.1085  0.8720 -0.6456
11658TIP3    H156465   2.227   6.171  10.419 -0.0015  1.2268 -0.4143
11658TIP3    H256466   2.168   6.280  10.333 -1.0810 -0.3128 -1.6901
11659TIP3   OH256467   3.068   1.873   0.185 -0.0096 -0.0553  0.1918
11659TIP3    H156468   3.097   1.963   0.168 -0.7569  0.5072  1.7266
11659TIP3    H256469   3.147   1.828   0.216  0.0923  0.3969  0.5916
11660TIP3   OH256470   1.780   2.394  13.926  0.1115 -0.1462 -0.2958
11660TIP3    H156471   1.766   2.394  14.021  0.0421 -1.2349 -0.2957
11660TIP3    H256472   1.692   2.396  13.889  0.1498  0.9128 -0.3504
11661TIP3   OH256473   0.485   6.486  11.179  0.2626  0.4096  0.4343
11661TIP3    H156474   0.405   6.480  11.126 -0.2063 -0.7792  1.2435
11661TIP3    H256475   0.549   6.432  11.131 -0.3653 -1.2555  1.3711
11662TIP3   OH256476   1.241   3.309   1.097  0.0583 -0.0758  0.4128
11662TIP3    H156477   1.315   3.255   1.125 -0.0433 -0.8343 -0.7466
11662TIP3    H256478   1.279   3.396   1.086  0.9966 -0.6043 -0.9123
11663TIP3   OH256479   5.198   4.888  14.205  0.4304  0.4279 -0.1030
11663TIP3    H156480   5.195   4.904  14.110  1.1595  0.5825 -0.1054
11663TIP3    H256481   5.107   4.894  14.233  0.1960  0.2858 -0.8138
11664TIP3   OH256482   2.001   5.966   0.916  0.2414 -0.7251 -0.0778
11664TIP3    H156483   2.060   5.891   0.922 -1.5878 -2.2032  0.3628
11664TIP3    H256484   1.920   5.930   0.881 -0.6268  1.1118 -0.0729
11665TIP3   OH256485   5.068   1.581  11.630  0.2546 -0.0237 -0.2892
11665TIP3    H156486   5.100   1.592  11.720  0.7021 -0.9872 -0.3056
11665TIP3    H256487   4.987   1.631  11.626  1.0840  1.4019  0.1590
11666TIP3   OH256488   2.110   4.734   2.754  0.0599 -0.0620  0.1273
11666TIP3    H156489   2.198   4.724   2.719  0.9150  1.5572  1.6848
11666TIP3    H256490   2.086   4.825   2.736 -1.5648 -0.6150 -0.7733
11667TIP3   OH256491   6.062   4.887  15.873 -0.1688  0.5677 -0.4405
11667TIP3    H156492   5.988   4.947  15.877 -0.9249 -0.3555 -0.4915
11667TIP3    H256493   6.026   4.806  15.839  0.1691 -0.9347  2.5030
11668TIP3   OH256494   3.848   2.174  11.227  0.1400  0.1851  0.6572
11668TIP3    H156495   3.802   2.140  11.150  0.2573 -1.1231  1.1364
11668TIP3    H256496   3.846   2.269  11.216 -2.3091  0.1731  0.4536
11669TIP3   OH256497   5.169   0.890   3.123 -0.3107 -0.6221 -0.4416
11669TIP3    H156498   5.081   0.897   3.086 -0.3474  1.8928 -0.0809
11669TIP3    H256499   5.195   0.981   3.140  1.2763 -1.4231  1.9953
11670TIP3   OH256500   0.719   5.146  14.970 -0.1134 -0.0273  0.1980
11670TIP3    H156501   0.805   5.172  14.938 -0.4571  0.1283 -0.6313
11670TIP3    H256502   0.670   5.228  14.978  0.3109  0.0738  2.2652
11671TIP3   OH256503   3.516   2.395  14.516  0.2031 -0.0351 -0.2196
11671TIP3    H156504   3.587   2.331  14.526 -0.1162 -0.4221 -0.3827
11671TIP3    H256505   3.557   2.470  14.474  1.0607  0.7101  1.8342
11672TIP3   OH256506   3.733   5.720  12.718  0.1130  0.3294 -0.0974
11672TIP3    H156507   3.793   5.762  12.779  0.6588  0.7753 -0.9144
11672TIP3    H256508   3.703   5.792  12.662  0.8011 -0.2892 -1.3010
11673TIP3   OH256509   4.539   0.604  11.848 -0.7350  0.1126  0.4757
11673TIP3    H156510   4.475   0.611  11.777 -0.5506 -2.0842  0.0168
11673TIP3    H256511   4.500   0.545  11.911  0.1807  0.0164  0.9759
11674TIP3   OH256512   0.715   4.616   6.392 -0.2590 -0.1394 -0.0256
11674TIP3    H156513   0.795   4.668   6.385  0.6473 -1.3070  1.1169
11674TIP3    H256514   0.741   4.538   6.441 -1.7313 -1.3321 -1.0313
11675TIP3   OH256515   5.829   3.549  15.099  0.4943  0.0789 -0.4562
11675TIP3    H156516   5.751   3.583  15.055  0.3108  1.0193  0.5438
11675TIP3    H256517   5.834   3.457  15.072 -1.3609 -0.1901 -0.0204
11676TIP3   OH256518   2.901   4.617   5.700 -0.7462  0.5042 -0.4092
11676TIP3    H156519   2.930   4.571   5.621  1.9665  1.3849 -0.0390
11676TIP3    H256520   2.873   4.548   5.760 -0.3453 -0.3764 -1.2170
11677TIP3   OH256521   0.092   3.676  13.944  0.4619  0.4791  0.7733
11677TIP3    H156522   0.100   3.605  13.880  0.1238 -1.0880  2.3918
11677TIP3    H256523   0.007   3.715  13.927 -0.3015 -0.9296  1.2066
11678TIP3   OH256524   2.595   6.257  14.963 -0.1064  0.2158  0.5012
11678TIP3    H156525   2.609   6.162  14.974 -1.4871  0.0228  0.7579
11678TIP3    H256526   2.615   6.273  14.871  0.9906 -0.1540  0.6561
11679TIP3   OH256527   0.829   1.510  16.068 -0.1050 -0.4340 -0.6481
11679TIP3    H156528   0.873   1.541  15.989  1.4157 -0.1597  0.2590
11679TIP3    H256529   0.752   1.567  16.076  1.0512  1.1998 -0.6222
11680TIP3   OH256530   0.628   1.727   5.345 -0.4052  0.4371  0.0445
11680TIP3    H156531   0.645   1.756   5.256 -0.4953 -2.7911 -1.1395
11680TIP3    H256532   0.711   1.743   5.391  0.0025  1.1340 -0.9057
11681TIP3   OH256533   0.052   5.710   4.491 -0.0219 -0.2511  0.2053
11681TIP3    H156534  -0.020   5.647   4.495  1.4793 -2.0124  1.2894
11681TIP3    H256535   0.049   5.756   4.575 -0.1196 -0.0472  0.0908
11682TIP3   OH256536   1.880   6.852   1.508  0.6093  0.3353 -0.0839
11682TIP3    H156537   1.907   6.895   1.427 -1.6635  0.7597 -0.6842
11682TIP3    H256538   1.910   6.761   1.499  0.2451  0.3369 -1.4867
11683TIP3   OH256539   5.531   4.594  16.208  0.0652  0.4254  0.2632
11683TIP3    H156540   5.463   4.545  16.253  0.4140  0.9752  1.4333
11683TIP3    H256541   5.531   4.559  16.119 -0.1458 -1.2121  0.8757
11684TIP3   OH256542   0.179   1.331  16.352 -0.3070  0.1354 -0.6404
11684TIP3    H156543   0.148   1.400  16.410 -1.0522  0.1645 -1.0579
11684TIP3    H256544   0.156   1.361  16.264  0.7680  0.0731 -0.9606
11685TIP3   OH256545   1.039   3.536   0.796  0.1290  0.3708 -0.0362
11685TIP3    H156546   0.987   3.464   0.833  1.5052 -0.0460  1.1463
11685TIP3    H256547   1.127   3.501   0.788  0.6743  1.7009 -0.1331
11686TIP3   OH256548   3.723   5.007   1.487 -0.1632  0.4097 -0.8350
11686TIP3    H156549   3.779   4.978   1.558  0.4196 -0.3290 -1.5661
11686TIP3    H256550   3.709   4.928   1.434  0.4643  1.1926 -2.2253
11687TIP3   OH256551   6.450   5.486  16.661  0.4459 -0.6947  0.1814
11687TIP3    H156552   6.515   5.419  16.682  0.6260 -1.2606 -1.9392
11687TIP3    H256553   6.475   5.517  16.574 -0.7507  0.7760  0.3301
11688TIP3   OH256554   1.973   5.116  13.234 -0.6079  0.0280  0.1643
11688TIP3    H156555   1.890   5.162  13.234 -2.2352 -2.6209  2.2394
11688TIP3    H256556   1.980   5.078  13.322  1.8735 -1.4404 -0.5508
11689TIP3   OH256557   6.339   0.220  12.467 -0.9493 -0.6141  0.5710
11689TIP3    H156558   6.367   0.258  12.384 -0.3431 -0.1155  0.9926
11689TIP3    H256559   6.414   0.232  12.525 -1.8675  0.3934  1.6036
11690TIP3   OH256560   3.967   5.560  11.384 -0.9476 -0.2213  0.2222
11690TIP3    H156561   3.959   5.595  11.296  2.3162 -0.0202 -0.1117
11690TIP3    H256562   3.955   5.465  11.374  2.1676 -0.5780 -1.0188
11691TIP3   OH256563   2.190   0.175  14.438 -0.2074  0.1640  0.7487
11691TIP3    H156564   2.144   0.257  14.422  0.6078  0.5900  0.5565
11691TIP3    H256565   2.173   0.122  14.360 -0.3341  0.3408  0.6572
11692TIP3   OH256566   5.733   6.273   3.617  0.1153  0.3394 -0.4017
11692TIP3    H156567   5.658   6.259   3.675  0.7990  0.6156  0.5710
11692TIP3    H256568   5.778   6.189   3.615  0.2795  0.4233 -0.2590
11693TIP3   OH256569   2.007   0.170   0.686  0.0820 -0.4060 -0.4988
11693TIP3    H156570   1.939   0.229   0.718 -0.3040  0.3758 -2.5781
11693TIP3    H256571   2.006   0.096   0.746 -2.6226 -0.4253 -0.4495
11694TIP3   OH256572   2.952   4.911   5.033  0.5485  0.0639  0.1910
11694TIP3    H156573   2.910   4.925   4.948  0.4572 -0.3639  0.1638
11694TIP3    H256574   3.026   4.854   5.013  1.5681  1.3820  0.1271
11695TIP3   OH256575   3.417   2.116  13.160  0.1062  0.1119  0.5454
11695TIP3    H156576   3.390   2.027  13.181 -0.1910 -0.0204 -0.3764
11695TIP3    H256577   3.506   2.122  13.195 -0.1121 -0.3218  1.1997
11696TIP3   OH256578   4.741   0.451  15.376 -0.9266 -0.3070  0.6605
11696TIP3    H156579   4.791   0.383  15.421 -0.8126 -1.3801 -1.0033
11696TIP3    H256580   4.776   0.452  15.287 -0.1276  2.7421  0.8764
11697TIP3   OH256581   3.922   5.966   0.321  0.7007  0.6263 -0.3020
11697TIP3    H156582   3.835   5.928   0.332  1.2375 -0.5281  0.0878
11697TIP3    H256583   3.908   6.060   0.326  0.0236  0.4841  4.3016
11698TIP3   OH256584   0.935   4.929   1.798  0.3499 -0.4394 -0.0517
11698TIP3    H156585   0.987   4.923   1.878  0.5162 -0.3250 -0.1502
11698TIP3    H256586   0.932   4.840   1.764 -0.5455 -0.6681  0.5970
11699TIP3   OH256587   0.591   3.779   2.632 -0.0321  0.2469  0.0237
11699TIP3    H156588   0.500   3.748   2.628  0.2395 -0.5587 -0.0398
11699TIP3    H256589   0.642   3.708   2.593  0.6671  0.5569  0.3656
11700TIP3   OH256590   4.330   6.201  14.523  0.3218 -0.0204 -0.1766
11700TIP3    H156591   4.261   6.202  14.457  1.0043  1.1079 -0.9079
11700TIP3    H256592   4.358   6.109  14.526 -0.6324 -0.3436 -0.4567
11701TIP3   OH256593   3.965   2.564   6.072 -0.0134 -0.3842  0.2577
11701TIP3    H156594   3.916   2.559   5.990  0.2323 -2.2146  0.1967
11701TIP3    H256595   3.987   2.474   6.093  3.1236  0.3063  0.4346
11702TIP3   OH256596   3.966   0.278   6.369  0.8285  0.3371  0.1218
11702TIP3    H156597   4.062   0.286   6.369  0.8491  0.0861 -0.1526
11702TIP3    H256598   3.949   0.185   6.353  0.5388  0.3632  0.2680
11703TIP3   OH256599   4.800   0.022   2.454 -0.0963 -0.1508 -0.4034
11703TIP3    H156600   4.813   0.112   2.483  0.8394 -0.5360  0.4055
11703TIP3    H256601   4.730  -0.012   2.509 -1.3085  0.4316 -1.5249
11704TIP3   OH256602   1.137   4.841   4.577 -0.0866 -0.4771 -0.4228
11704TIP3    H156603   1.166   4.917   4.526 -0.1535 -0.5188 -0.5230
11704TIP3    H256604   1.095   4.784   4.513 -1.2223 -0.0028 -0.1217
11705TIP3   OH256605   2.217   1.161  14.054 -0.2277 -0.2826 -0.0092
11705TIP3    H156606   2.149   1.208  14.007 -0.7080 -0.9151  0.0336
11705TIP3    H256607   2.241   1.089  13.996 -0.3953 -0.7153  0.4503
11706TIP3   OH256608   3.138   2.329  16.436  0.4405  0.1877  0.4851
11706TIP3    H156609   3.214   2.293  16.482  1.9707  1.1066 -1.2011
11706TIP3    H256610   3.096   2.252  16.397 -0.3642 -0.4959  2.5291
11707TIP3   OH256611   2.418   1.990   6.174 -0.1209  0.4584 -1.0182
11707TIP3    H156612   2.445   1.973   6.264  0.5248  3.2166 -0.5988
11707TIP3    H256613   2.408   1.903   6.135  0.5893 -0.7922  1.4013
11708TIP3   OH256614   1.951   1.764  11.386 -0.3696  0.0739  0.3130
11708TIP3    H156615   2.033   1.808  11.407 -0.7111  0.1596  1.5458
11708TIP3    H256616   1.884   1.819  11.426 -0.8860 -0.9717  0.9359
11709TIP3   OH256617   3.950   6.801  10.286 -0.1653  0.1398  0.5663
11709TIP3    H156618   3.985   6.850  10.361 -0.5920  0.6141  0.4597
11709TIP3    H256619   3.909   6.724  10.325 -2.6698  1.6466  1.0939
11710TIP3   OH256620   3.739   1.153   0.662 -0.2045  0.1521  0.1049
11710TIP3    H156621   3.695   1.094   0.601 -1.1955  1.7875 -0.8219
11710TIP3    H256622   3.815   1.186   0.613  0.3671 -0.3488  0.6311
11711TIP3   OH256623   3.557   5.312  11.305 -0.0025 -0.4475  0.6715
11711TIP3    H156624   3.546   5.236  11.248 -1.9097  0.8866 -0.8966
11711TIP3    H256625   3.471   5.324  11.345  0.3961  0.6058  1.2481
11712TIP3   OH256626   3.639   4.339  16.417 -0.2439  0.7147  0.0905
11712TIP3    H156627   3.628   4.434  16.408 -0.0515  0.8839  1.4289
11712TIP3    H256628   3.593   4.317  16.498  1.4467  0.0020  0.9130
11713TIP3   OH256629   1.578   4.505   0.207  0.0935  0.4992  0.0970
11713TIP3    H156630   1.611   4.417   0.222 -0.4145  0.3012  0.0724
11713TIP3    H256631   1.531   4.528   0.287 -1.8594 -0.2169 -0.7699
11714TIP3   OH256632   1.117   0.767  15.088  0.0636 -0.0936 -0.8996
11714TIP3    H156633   1.088   0.850  15.050 -0.0456  0.2672 -0.0543
11714TIP3    H256634   1.173   0.793  15.162 -1.8414 -0.7231  0.8457
11715TIP3   OH256635   5.105   0.738  14.551 -0.1385 -0.2295  0.2735
11715TIP3    H156636   5.121   0.718  14.643 -0.0120  0.6518  0.4563
11715TIP3    H256637   5.021   0.784  14.551 -1.6153 -2.7097 -0.4007
11716TIP3   OH256638   3.855   6.761  14.469 -0.0125  0.0469  0.4094
11716TIP3    H156639   3.879   6.708  14.393  4.3043 -0.5949  1.9057
11716TIP3    H256640   3.849   6.850  14.435  0.0794 -0.4416 -0.9596
11717TIP3   OH256641   6.027   4.250   0.747  0.1131  0.0275 -0.1357
11717TIP3    H156642   5.940   4.250   0.787  0.6676 -0.1141  1.1339
11717TIP3    H256643   6.011   4.235   0.654 -1.1195 -1.5476  0.2819
11718TIP3   OH256644   1.498   5.077  16.493 -0.3297  0.2884 -0.4308
11718TIP3    H156645   1.458   4.993  16.516 -1.2021  1.1575  1.4108
11718TIP3    H256646   1.585   5.075  16.533 -0.4974  0.3952 -0.0516
11719TIP3   OH256647   6.753   6.139   4.721  0.0015 -1.0893  0.9145
11719TIP3    H156648   6.737   6.100   4.635  0.7787 -1.4629  0.9259
11719TIP3    H256649   6.671   6.128   4.769 -0.2651 -1.3595  0.3992
11720TIP3   OH256650   3.707   1.472   5.132  0.1009 -0.2265 -0.4828
11720TIP3    H156651   3.732   1.563   5.147 -1.5158  0.0507  0.8877
11720TIP3    H256652   3.755   1.423   5.198 -1.8656  0.1599  1.3482
11721TIP3   OH256653   5.416   6.064   5.045  0.0615 -0.2133 -0.5221
11721TIP3    H156654   5.329   6.097   5.021  0.0970  0.5860  0.3689
11721TIP3    H256655   5.425   6.088   5.138  1.4058  0.1134 -0.7191
11722TIP3   OH256656   0.118   3.818   2.842  0.0430 -0.4073  0.2631
11722TIP3    H156657   0.097   3.910   2.822  0.9650 -0.5482 -1.6485
11722TIP3    H256658   0.047   3.768   2.801  0.8146 -0.6165 -0.8732
11723TIP3   OH256659   0.246   4.510   5.350 -0.1564  0.0666 -0.1090
11723TIP3    H156660   0.155   4.512   5.382 -0.1672 -0.7370 -0.0740
11723TIP3    H256661   0.295   4.470   5.421  0.8101  3.2207  1.2027
11724TIP3   OH256662   1.988   5.047   4.417  0.2023 -0.1710  0.2710
11724TIP3    H156663   1.946   4.975   4.464  1.6437  0.2155  2.3310
11724TIP3    H256664   2.081   5.041   4.442  1.2074 -0.2387 -3.0711
11725TIP3   OH256665   0.830   2.256  11.207  0.2344 -0.2428  0.0597
11725TIP3    H156666   0.877   2.175  11.224 -0.8141 -0.9335 -0.2326
11725TIP3    H256667   0.802   2.249  11.116  0.2884  0.5346 -0.0270
11726TIP3   OH256668   4.127   2.830  16.412  0.1284  0.4339  0.1101
11726TIP3    H156669   4.083   2.908  16.376  0.6374  0.1514 -1.1892
11726TIP3    H256670   4.198   2.864  16.466  0.4712  0.8831 -0.6120
11727TIP3   OH256671   1.532   3.791  16.875 -0.7436  0.3757 -0.2672
11727TIP3    H156672   1.506   3.878  16.846 -2.6946  0.4558  1.5307
11727TIP3    H256673   1.624   3.800  16.899 -1.5134  2.6767  2.3074
11728TIP3   OH256674   1.990   5.482   2.603 -0.0272 -0.0477  0.0633
11728TIP3    H156675   2.017   5.571   2.625  0.1976  0.3065 -1.5279
11728TIP3    H256676   1.895   5.482   2.615 -0.3556  1.0992 -1.9911
11729TIP3   OH256677   3.625   6.120   0.188 -0.2010  0.4164 -0.2121
11729TIP3    H156678   3.598   6.111   0.279 -0.5177  0.7631 -0.2741
11729TIP3    H256679   3.636   6.214   0.174  1.6846  0.2820  0.0020
11730TIP3   OH256680   0.143   1.168  13.597  0.1109  0.0192 -0.0258
11730TIP3    H156681   0.142   1.150  13.503  0.5294 -1.9695  0.3080
11730TIP3    H256682   0.217   1.117  13.630 -0.4355  0.1563  1.4802
11731TIP3   OH256683   2.267   6.749   2.303  0.0168 -0.2130  0.0055
11731TIP3    H156684   2.257   6.781   2.393  0.3187  2.9855 -0.9428
11731TIP3    H256685   2.218   6.812   2.250  0.3838 -1.6260 -2.1408
11732TIP3   OH256686   1.340   2.139   0.115 -0.1969 -0.1111 -0.2264
11732TIP3    H156687   1.392   2.060   0.132  1.0090  0.8354  0.6950
11732TIP3    H256688   1.290   2.153   0.195  0.5240  0.7238  0.0931
11733TIP3   OH256689   5.077   1.134  14.547  0.5594 -0.3089  0.1071
11733TIP3    H156690   5.062   1.177  14.462  0.0776 -3.7264 -1.7356
11733TIP3    H256691   5.162   1.090  14.537  1.6428  1.1411  2.3579
11734TIP3   OH256692   2.122   5.838   5.010  0.6590 -0.1912 -0.2620
11734TIP3    H156693   2.177   5.761   4.999  3.5078  1.9079 -2.1099
11734TIP3    H256694   2.111   5.873   4.921 -0.9621  1.2878  0.4583
11735TIP3   OH256695   2.957   2.294   2.132  0.5032 -0.3365  0.2107
11735TIP3    H156696   3.035   2.312   2.080  0.7856  0.0011  0.7489
11735TIP3    H256697   2.987   2.295   2.223 -0.0501 -0.6033  0.4035
11736TIP3   OH256698   0.496   4.879   2.164 -0.5041 -0.6457  0.1775
11736TIP3    H156699   0.556   4.909   2.233 -0.9623  1.0177 -0.0976
11736TIP3    H256700   0.491   4.953   2.104 -1.7228 -1.3114 -0.5677
11737TIP3   OH256701   3.218   1.408  12.004 -0.1228 -0.2169  0.3070
11737TIP3    H156702   3.225   1.502  11.985  0.0527 -0.1491  0.6861
11737TIP3    H256703   3.126   1.395  12.027 -0.1580 -0.1480  0.2085
11738TIP3   OH256704   5.944   5.939  14.568 -0.7639  0.1549 -0.3205
11738TIP3    H156705   5.901   5.873  14.514 -1.4461  0.5132 -0.2219
11738TIP3    H256706   5.947   5.900  14.656  0.6473 -0.5682 -0.6529
11739TIP3   OH256707   3.205   4.417   5.777  0.5777 -0.1299 -0.3388
11739TIP3    H156708   3.187   4.331   5.817 -3.4709 -0.0507 -1.5433
11739TIP3    H256709   3.167   4.411   5.690 -0.3254  3.0365 -0.2816
11740TIP3   OH256710   1.779   3.162  16.238 -0.3197 -0.3339  0.1306
11740TIP3    H156711   1.772   3.101  16.311 -0.2848 -0.3600  0.1125
11740TIP3    H256712   1.871   3.159  16.212 -0.4908 -0.9326 -0.4380
11741TIP3   OH256713   1.430   3.520   5.466 -0.3888 -0.3709 -0.3146
11741TIP3    H156714   1.496   3.460   5.431 -0.8106 -0.4407 -0.9911
11741TIP3    H256715   1.376   3.465   5.523 -0.3843 -0.4885 -0.4247
11742TIP3   OH256716   5.160   4.502  16.826 -0.1351 -0.1570 -0.1754
11742TIP3    H156717   5.210   4.582  16.810 -2.3617  1.4659  0.4958
11742TIP3    H256718   5.171   4.485  16.919 -0.2278 -0.2197 -0.1752
11743TIP3   OH256719   0.652   3.313   0.855 -0.1956  0.1443  0.0188
11743TIP3    H156720   0.642   3.407   0.837 -2.0570 -0.2391 -1.1597
11743TIP3    H256721   0.564   3.277   0.846  0.6897 -1.9556 -0.9130
11744TIP3   OH256722   0.345   2.937  16.474  0.1887 -0.5935  0.7857
11744TIP3    H156723   0.365   2.893  16.557 -0.8236 -1.9833  0.3390
11744TIP3    H256724   0.427   2.938  16.426  1.0194  1.0775  2.1518
11745TIP3   OH256725   4.529   3.185   4.801  0.2800 -0.2331  0.4966
11745TIP3    H156726   4.613   3.177   4.846  1.2993 -0.3934 -1.3252
11745TIP3    H256727   4.502   3.094   4.785 -0.9423 -0.2134  2.2427
11746TIP3   OH256728   5.841   4.856   4.224  0.2167 -0.0502 -0.1745
11746TIP3    H156729   5.852   4.858   4.319  0.4309  3.3977 -0.1603
11746TIP3    H256730   5.763   4.804   4.210  0.0422 -0.4388  1.9016
11747TIP3   OH256731   0.098   2.202  11.694  0.1888 -0.0321  0.6448
11747TIP3    H156732   0.152   2.231  11.620 -2.2113 -1.1060 -1.6997
11747TIP3    H256733   0.161   2.175  11.760  2.5038  0.2451 -1.2774
11748TIP3   OH256734   1.396   4.370  14.627 -0.9888 -0.0811  0.1692
11748TIP3    H156735   1.301   4.375  14.618 -0.8562  0.9758 -0.9866
11748TIP3    H256736   1.429   4.383  14.538  0.2326 -0.9700  0.4692
11749TIP3   OH256737   4.089   0.969   5.040 -0.4803 -0.7383  0.1429
11749TIP3    H156738   4.104   1.002   5.129 -0.5851 -2.5905  0.9164
11749TIP3    H256739   4.151   0.897   5.032 -0.4323 -0.5438 -1.3317
11750TIP3   OH256740   3.517   0.454   1.338 -0.2954  0.6507  0.2660
11750TIP3    H156741   3.562   0.527   1.381 -0.4762  1.0733 -0.2492
11750TIP3    H256742   3.424   0.473   1.352 -0.3861  1.2625 -1.0506
11751TIP3   OH256743   5.173   0.648  10.947  0.2713  0.0007 -0.8663
11751TIP3    H156744   5.218   0.566  10.929 -0.5265 -0.6661  0.0806
11751TIP3    H256745   5.094   0.622  10.995 -0.7827  1.1878 -1.8875
11752TIP3   OH256746   3.973   6.332   3.251 -0.1726 -0.3802  0.3453
11752TIP3    H156747   3.911   6.375   3.192 -0.2182 -0.2234  0.5068
11752TIP3    H256748   4.037   6.291   3.193 -0.4534 -0.5800  0.1767
11753TIP3   OH256749   1.403   0.872  16.072 -0.2595  0.2648  0.1825
11753TIP3    H156750   1.451   0.942  16.026 -1.2355  1.7837  1.3518
11753TIP3    H256751   1.448   0.792  16.046  2.2093  1.4810  0.3123
11754TIP3   OH256752   2.387   2.584  13.447  0.1449 -0.2838 -0.9543
11754TIP3    H156753   2.388   2.671  13.487  1.0886 -0.8665  0.3852
11754TIP3    H256754   2.442   2.531  13.505 -0.7304 -1.8719 -1.5056
11755TIP3   OH256755   4.401   4.736   3.697 -0.2352  0.2262  0.0248
11755TIP3    H156756   4.487   4.745   3.656  1.5246 -0.3942  3.2010
11755TIP3    H256757   4.376   4.645   3.679  2.1070 -1.1567  2.7722
11756TIP3   OH256758   3.149   4.581   0.578  0.0711 -0.4957  0.0321
11756TIP3    H156759   3.171   4.501   0.531 -0.9280 -2.1466  2.2156
11756TIP3    H256760   3.195   4.651   0.530  1.3086 -2.3845 -1.6803
11757TIP3   OH256761   0.392   0.769  11.383  0.3256  0.1724 -0.2692
11757TIP3    H156762   0.373   0.686  11.338 -1.5291 -0.9971  2.3880
11757TIP3    H256763   0.487   0.769  11.394  0.3413 -1.8525  0.0354
11758TIP3   OH256764   4.544   1.907   1.396 -0.0200  0.1377  0.5195
11758TIP3    H156765   4.543   1.929   1.303 -0.3736  1.4870  0.8268
11758TIP3    H256766   4.551   1.811   1.398  2.1143  0.1949 -0.8748
11759TIP3   OH256767   2.535   2.396  16.886 -0.4614  0.8408  0.7196
11759TIP3    H156768   2.622   2.430  16.907  0.4057 -2.4041  3.2451
11759TIP3    H256769   2.548   2.345  16.806 -0.4253  1.6649  0.1954
11760TIP3   OH256770   6.693   4.358  12.144  0.1810 -1.3378  0.0846
11760TIP3    H156771   6.754   4.413  12.192  0.5593 -1.9217  0.2837
11760TIP3    H256772   6.636   4.320  12.212 -0.6042 -0.5736 -0.1212
11761TIP3   OH256773   2.354   4.100  12.334 -0.6193  0.3669  0.1051
11761TIP3    H156774   2.345   4.193  12.312  1.7175  0.7024  0.3048
11761TIP3    H256775   2.316   4.054  12.260 -0.7735  1.4790 -0.5365
11762TIP3   OH256776   1.266   3.867  13.263  0.0225 -0.0147  0.8040
11762TIP3    H156777   1.185   3.911  13.289 -0.1390 -0.1731  0.5730
11762TIP3    H256778   1.332   3.903  13.321 -0.2950 -0.2105  1.2981
11763TIP3   OH256779   4.706   3.763  11.145 -0.4119  0.6091 -0.8329
11763TIP3    H156780   4.672   3.766  11.055 -1.1070  3.0182 -0.5811
11763TIP3    H256781   4.638   3.807  11.197  1.7322  3.0198  0.1737
11764TIP3   OH256782   6.320   5.447  14.030 -0.1088 -0.2190  0.2140
11764TIP3    H156783   6.376   5.374  14.005 -0.1077 -0.0957 -0.1577
11764TIP3    H256784   6.361   5.523  13.988  0.3838  0.1410  1.2969
11765TIP3   OH256785   0.298   6.434   6.415 -0.3603  0.1495  0.7110
11765TIP3    H156786   0.356   6.445   6.490  0.6858 -0.8648  0.0963
11765TIP3    H256787   0.265   6.344   6.424  0.0996 -0.1264 -0.2390
11766TIP3   OH256788   4.898   6.198   0.237 -0.3527  0.6650  0.6396
11766TIP3    H156789   4.832   6.128   0.238  0.5249 -0.2279 -0.5028
11766TIP3    H256790   4.870   6.257   0.167  0.3598 -0.0620 -0.2911
11767TIP3   OH256791   4.662   4.715   3.547 -0.3380  0.2237 -0.9064
11767TIP3    H156792   4.606   4.672   3.483 -1.0927  0.1692 -0.2345
11767TIP3    H256793   4.690   4.796   3.504 -0.7283  0.1268 -1.3472
11768TIP3   OH256794   5.122   2.129  14.588 -0.0576  0.5561 -0.2465
11768TIP3    H156795   5.166   2.209  14.615 -0.8676  1.0241 -0.2673
11768TIP3    H256796   5.133   2.125  14.493 -0.2344  0.7855 -0.2779
11769TIP3   OH256797   2.095   3.847   4.885 -0.1334  0.4294  0.3432
11769TIP3    H156798   2.091   3.787   4.812 -1.4123  1.6545 -0.6457
11769TIP3    H256799   2.188   3.860   4.901  0.1657 -1.5096  0.3788
11770TIP3   OH256800   6.804   1.333  13.710  0.7357 -0.1814  0.1504
11770TIP3    H156801   6.855   1.266  13.666 -1.0109 -0.7046 -1.1735
11770TIP3    H256802   6.718   1.330  13.668  0.6449  3.0589 -0.1306
11771TIP3   OH256803   2.613   3.763  15.932 -0.0858 -0.0239  0.3487
11771TIP3    H156804   2.706   3.778  15.947  0.3743 -0.9168 -1.2792
11771TIP3    H256805   2.576   3.850  15.923  0.1435  0.4353  3.0735
11772TIP3   OH256806   3.382   1.979   0.950  0.3748  0.2140 -0.2411
11772TIP3    H156807   3.303   1.954   0.998 -0.2614  1.5827 -0.5169
11772TIP3    H256808   3.393   1.911   0.883  0.6109 -1.0823  1.0607
11773TIP3   OH256809   4.648   5.358  10.816  0.0431 -0.0786  0.2609
11773TIP3    H156810   4.712   5.313  10.761 -0.0993  2.2351 -1.9366
11773TIP3    H256811   4.573   5.373  10.759 -0.8743  0.7683  1.6288
11774TIP3   OH256812   3.768   0.572  16.854 -0.1062  0.0125 -0.6611
11774TIP3    H156813   3.680   0.609  16.864 -0.1998 -0.1724 -0.8036
11774TIP3    H256814   3.788   0.582  16.761  0.7359  1.6668 -0.3451
11775TIP3   OH256815   2.095   6.665  14.438 -0.2181 -0.2027 -0.5228
11775TIP3    H156816   2.051   6.673  14.523  0.1846  1.7988 -0.4658
11775TIP3    H256817   2.188   6.655  14.460 -0.3842 -2.8125 -0.6932
11776TIP3   OH256818   1.901   5.864  14.281 -0.6338  0.0148  0.2352
11776TIP3    H156819   1.985   5.907  14.297 -0.8641  1.3291 -1.7317
11776TIP3    H256820   1.838   5.916  14.330 -0.5938  0.5294 -0.2432
11777TIP3   OH256821   6.664   4.555  11.319  0.0487 -0.1318  0.0851
11777TIP3    H156822   6.582   4.602  11.331  1.1134  1.5634  1.0332
11777TIP3    H256823   6.638   4.474  11.275 -1.9639  0.9062 -0.7980
11778TIP3   OH256824   5.025   1.482  16.747  0.3132 -0.0259  0.2518
11778TIP3    H156825   4.933   1.488  16.775  0.3471 -0.3900  0.4489
11778TIP3    H256826   5.072   1.535  16.811  0.0711  1.4540 -0.7432
11779TIP3   OH256827   4.979   1.080   5.495  0.4674 -0.3095  0.4403
11779TIP3    H156828   4.972   1.172   5.470 -0.3258 -0.6213 -0.5367
11779TIP3    H256829   4.907   1.066   5.557  2.0966  0.3216  2.6189
11780TIP3   OH256830   3.468   5.004  14.779 -0.1076 -0.3509  0.8899
11780TIP3    H156831   3.466   4.943  14.853 -1.7685 -2.3877 -0.7146
11780TIP3    H256832   3.380   5.042  14.777 -0.9456 -2.1784 -1.3949
11781TIP3   OH256833   3.263   2.692  11.942  0.0337 -0.3997  0.9017
11781TIP3    H156834   3.305   2.730  11.865 -0.4924 -1.0430  0.2886
11781TIP3    H256835   3.279   2.756  12.012  2.5964 -0.8987  0.8779
11782TIP3   OH256836   6.027   4.889   1.499 -0.4112  0.2255  0.5266
11782TIP3    H156837   5.962   4.875   1.430 -1.9438  1.2941  1.6675
11782TIP3    H256838   6.000   4.829   1.569 -0.0606  0.5511  0.9451
11783TIP3   OH256839   2.508   2.345   6.768  0.0975  0.1075 -0.1954
11783TIP3    H156840   2.421   2.382   6.775  0.1027 -0.1621  1.8767
11783TIP3    H256841   2.513   2.311   6.678 -1.3651  1.4289 -0.8087
11784TIP3   OH256842   3.983   3.179  14.627  0.2348  0.2437  0.0089
11784TIP3    H156843   3.920   3.221  14.568  0.1352  0.6745  0.4154
11784TIP3    H256844   3.929   3.132  14.690  0.3470 -0.5062 -0.4465
11785TIP3   OH256845   0.974   1.098   1.215 -0.3501  0.4876 -0.2312
11785TIP3    H156846   0.965   1.140   1.130 -0.7044  2.0932  0.5615
11785TIP3    H256847   1.028   1.158   1.266  0.0163 -0.5399  0.6323
11786TIP3   OH256848   1.962   1.817  14.101 -0.2502  0.1702  0.6552
11786TIP3    H156849   1.955   1.907  14.133 -2.0890  0.9484 -1.6307
11786TIP3    H256850   2.046   1.815  14.056  0.7137  0.0962  2.3555
11787TIP3   OH256851   1.842   5.012   6.513  0.0745  0.2237 -0.1297
11787TIP3    H156852   1.932   4.987   6.532  0.0445 -0.2597 -0.6004
11787TIP3    H256853   1.849   5.090   6.458  0.2454 -0.5598 -1.2532
11788TIP3   OH256854   0.020   3.078  11.235  0.0791  0.2157 -0.3176
11788TIP3    H156855   0.102   3.028  11.247 -0.4438 -0.2587  1.6383
11788TIP3    H256856   0.049   3.167  11.215  1.0376 -0.2731 -1.2663
11789TIP3   OH256857   5.471   3.782   5.322 -0.0674 -0.0693 -0.1676
11789TIP3    H156858   5.394   3.727   5.305  0.2138 -0.1512 -1.2686
11789TIP3    H256859   5.435   3.871   5.331 -0.5710 -0.4541  2.0620
11790TIP3   OH256860   3.369   6.735  14.589 -0.5442  0.9129 -0.6230
11790TIP3    H156861   3.322   6.715  14.670  0.3667 -0.0350 -0.3030
11790TIP3    H256862   3.408   6.821  14.605  2.4204 -0.6103  1.3705
11791TIP3   OH256863   2.372   6.208   3.138 -0.2436 -0.0210 -0.2208
11791TIP3    H156864   2.406   6.257   3.063 -0.2776 -0.4256 -0.5006
11791TIP3    H256865   2.398   6.260   3.214  1.0548 -0.3475 -0.4185
11792TIP3   OH256866   2.669   3.153  14.217 -0.1102  0.0046  0.2277
11792TIP3    H156867   2.680   3.072  14.267  0.8122 -0.3839 -0.5757
11792TIP3    H256868   2.748   3.203  14.235  0.4467 -0.3245 -1.1350
11793TIP3   OH256869   2.902   0.682  12.442  0.0599  0.0112 -0.2075
11793TIP3    H156870   2.887   0.590  12.465 -0.5243  0.1855  0.1342
11793TIP3    H256871   2.891   0.685  12.347  0.2750 -0.3045 -0.2454
11794TIP3   OH256872   0.816   2.621   3.352 -0.1967  0.4579  0.4546
11794TIP3    H156873   0.832   2.545   3.407 -0.3882  2.2279  3.1269
11794TIP3    H256874   0.722   2.638   3.360 -0.8295 -0.7761 -2.7067
11795TIP3   OH256875   6.556   6.302   4.015 -0.1057  0.0129  0.0927
11795TIP3    H156876   6.635   6.279   4.064 -0.1272  3.0493  1.7704
11795TIP3    H256877   6.589   6.331   3.929  0.3554 -0.9199 -0.0582
11796TIP3   OH256878   1.337   2.631  11.786 -0.3216  0.3612  0.0054
11796TIP3    H156879   1.428   2.611  11.806 -0.5475 -1.0818 -0.2699
11796TIP3    H256880   1.333   2.629  11.690 -0.9280 -1.1945  0.0225
11797TIP3   OH256881   6.045   3.520  13.187  0.1863  0.0192  0.0545
11797TIP3    H156882   6.113   3.587  13.185 -1.3588  1.6350 -0.9560
11797TIP3    H256883   6.048   3.485  13.276  2.0369  0.3330  0.1489
11798TIP3   OH256884   0.890   4.915  10.867 -0.0761  0.1350 -0.1699
11798TIP3    H156885   0.912   4.964  10.788 -1.8931  2.1373  0.4689
11798TIP3    H256886   0.974   4.891  10.905  0.8389  0.6043 -1.8114
11799TIP3   OH256887   1.236   4.752  14.545 -0.2134 -0.0955 -0.0503
11799TIP3    H156888   1.144   4.776  14.553 -0.5576 -1.0385 -0.9385
11799TIP3    H256889   1.270   4.809  14.476 -0.1156  0.2783  0.3034
11800TIP3   OH256890   4.610   1.828  11.773  0.1336  0.0819  0.0391
11800TIP3    H156891   4.557   1.776  11.713  0.5554  1.2592 -1.4286
11800TIP3    H256892   4.688   1.775  11.788  0.4860  0.1746 -1.3008
11801TIP3   OH256893   5.153   3.320  12.877 -0.8820  0.5163 -0.2092
11801TIP3    H156894   5.096   3.345  12.804 -0.4040 -1.6692 -1.4154
11801TIP3    H256895   5.239   3.356  12.852 -0.7643 -0.0490 -0.6319
11802TIP3   OH256896   0.734   5.301  12.018  0.2003  0.1615  0.2126
11802TIP3    H156897   0.757   5.256  11.937 -1.9901  0.8459 -0.8492
11802TIP3    H256898   0.714   5.230  12.080  1.3002 -0.3468  0.0159
11803TIP3   OH256899   3.441   0.668  13.317 -0.1371 -0.0508 -0.2291
11803TIP3    H156900   3.446   0.594  13.257 -0.3233 -2.3671  2.4419
11803TIP3    H256901   3.517   0.659  13.374 -1.2081  0.6831  1.3808
11804TIP3   OH256902   0.871   1.167  16.277  0.0650  0.5125  0.2653
11804TIP3    H156903   0.966   1.169  16.290  0.2735  1.1251 -1.1923
11804TIP3    H256904   0.835   1.192  16.362  1.2630  2.5323  0.2468
11805TIP3   OH256905   0.233   5.441   2.029  0.7434 -0.5809  0.3104
11805TIP3    H156906   0.157   5.488   2.064 -0.2944 -1.7921 -0.2101
11805TIP3    H256907   0.256   5.379   2.099  0.4232 -1.0990 -0.0371
11806TIP3   OH256908   3.975   1.930   4.372 -0.1796 -0.4851 -0.4369
11806TIP3    H156909   4.022   1.856   4.413  0.4900 -0.0815 -0.4631
11806TIP3    H256910   4.043   1.979   4.326 -0.5264  0.4412  0.0100
11807TIP3   OH256911   4.792   3.110   0.147  0.0148 -0.3023 -0.1937
11807TIP3    H156912   4.699   3.087   0.146  0.0248 -0.3410 -1.6209
11807TIP3    H256913   4.800   3.183   0.087  0.9699 -0.5431 -0.3830
11808TIP3   OH256914   5.924   2.103  11.946  0.1036 -0.2619  0.9386
11808TIP3    H156915   5.983   2.142  11.881  1.0294 -3.0314  0.0003
11808TIP3    H256916   5.929   2.163  12.021  2.0440  0.9850 -0.0961
11809TIP3   OH256917   5.802   1.894   2.711 -0.1299 -0.3179  0.0012
11809TIP3    H156918   5.732   1.873   2.772  0.6615  0.1251  1.0972
11809TIP3    H256919   5.882   1.890   2.764  0.6499 -0.5198 -1.1469
11810TIP3   OH256920   2.002   6.219   3.052  0.5054 -0.5081  0.0797
11810TIP3    H156921   1.972   6.128   3.050  0.4157 -0.4770  0.0110
11810TIP3    H256922   1.999   6.243   3.144  1.3185 -0.8388  0.1995
11811TIP3   OH256923   4.758   0.738  15.564  0.2478 -0.3717 -0.2451
11811TIP3    H156924   4.841   0.706  15.530 -0.2466 -1.5017 -0.4381
11811TIP3    H256925   4.781   0.813  15.619  1.2766 -0.0246 -1.1315
11812TIP3   OH256926   2.619   6.192  11.447  0.2353 -0.0840  0.1985
11812TIP3    H156927   2.658   6.278  11.430  0.2010 -0.3443 -1.3507
11812TIP3    H256928   2.650   6.137  11.374 -0.0221 -1.2940  0.9764
11813TIP3   OH256929   1.383   1.926  15.766 -0.0221 -0.1021 -0.5511
11813TIP3    H156930   1.459   1.905  15.713  0.6991  1.7446 -0.3432
11813TIP3    H256931   1.310   1.880  15.725  0.8905 -0.4160 -1.8538
11814TIP3   OH256932   2.218   4.784   3.432 -0.3748  0.6333  0.4207
11814TIP3    H156933   2.271   4.714   3.468 -0.4941  0.7666  0.8594
11814TIP3    H256934   2.128   4.757   3.446 -0.4221  0.8890  0.6318
11815TIP3   OH256935   0.334   2.706  16.876  0.8812 -0.1175 -0.2851
11815TIP3    H156936   0.404   2.712  16.941  1.8037 -0.6570 -1.1999
11815TIP3    H256937   0.373   2.659  16.803 -0.7495 -1.3178 -0.4328
11816TIP3   OH256938   0.929   1.979  12.164  0.4464  0.5919 -0.1336
11816TIP3    H156939   0.887   1.899  12.196 -0.6568  1.8000  1.5668
11816TIP3    H256940   0.917   2.042  12.234 -2.3635  3.5608 -2.9667
11817TIP3   OH256941   4.000   1.602   5.781  0.3012 -0.0316 -0.3621
11817TIP3    H156942   4.057   1.674   5.807  0.9145 -0.3148 -0.8990
11817TIP3    H256943   3.920   1.615   5.831  0.0049  1.6156 -1.2012
11818TIP3   OH256944   6.696   0.206  10.901  0.1938  0.3026 -0.0381
11818TIP3    H156945   6.725   0.227  10.990  1.8013  0.3901 -0.5493
11818TIP3    H256946   6.775   0.174  10.857 -1.0883 -2.1899 -0.7261
11819TIP3   OH256947   6.077   0.718   3.341 -0.4019  0.0377 -0.4437
11819TIP3    H156948   6.166   0.754   3.335 -0.4928  0.5796  1.1664
11819TIP3    H256949   6.090   0.623   3.341  0.2147  0.1097  0.1740
11820TIP3   OH256950   5.336   6.044  11.581  0.0481  0.0931 -0.2561
11820TIP3    H156951   5.365   5.977  11.519 -0.0942  0.5447 -0.8212
11820TIP3    H256952   5.241   6.046  11.571 -0.2022 -1.1774  1.3832
11821TIP3   OH256953   4.221   4.363  14.864 -0.0980 -0.1036 -0.6001
11821TIP3    H156954   4.263   4.342  14.947  0.5380 -1.8072 -1.2970
11821TIP3    H256955   4.217   4.458  14.862 -2.8819  0.0256  2.6956
11822TIP3   OH256956   5.387   2.168  14.351 -0.4937 -0.0990 -0.7959
11822TIP3    H156957   5.301   2.206  14.333 -2.0257 -3.6980 -1.9856
11822TIP3    H256958   5.370   2.075  14.364  3.3683 -1.2090 -2.3103
11823TIP3   OH256959   4.893   4.094   1.799  0.2609 -0.3110 -0.2349
11823TIP3    H156960   4.978   4.139   1.795 -0.4627  1.0394 -2.0284
11823TIP3    H256961   4.886   4.064   1.889  2.7776 -0.7711 -0.1056
11824TIP3   OH256962   2.782   1.612  15.286  0.5245 -0.1756 -0.1785
11824TIP3    H156963   2.729   1.627  15.364 -0.5878  2.5203 -1.3442
11824TIP3    H256964   2.759   1.522  15.260 -3.0036  0.5690 -0.1903
11825TIP3   OH256965   4.284   1.399   4.398  0.2864  0.2756  0.2852
11825TIP3    H156966   4.269   1.471   4.458 -0.7075  0.1857  0.1506
11825TIP3    H256967   4.239   1.324   4.437  1.8651 -0.4739  0.7729
11826TIP3   OH256968   0.528   6.259   3.500 -0.3794  0.0158 -0.3184
11826TIP3    H156969   0.540   6.212   3.582  0.8213 -0.3163 -0.6607
11826TIP3    H256970   0.562   6.347   3.517 -1.4164  0.3710 -0.0594
11827TIP3   OH256971   2.774   4.618  15.066  0.0497  0.2661 -0.2706
11827TIP3    H156972   2.848   4.601  15.007  2.3849 -0.8403  2.7328
11827TIP3    H256973   2.742   4.531  15.091 -2.2515  0.7183 -1.3024
11828TIP3   OH256974   2.017   3.969   1.556  0.2096 -0.0086  0.0480
11828TIP3    H156975   2.012   4.043   1.617  0.5513 -0.3288  0.4763
11828TIP3    H256976   2.094   3.920   1.585  1.0609  0.4426 -1.3383
11829TIP3   OH256977   2.522   1.994   4.127  0.2345 -0.2542 -0.2853
11829TIP3    H156978   2.498   1.969   4.216  0.1173 -0.8203 -0.4699
11829TIP3    H256979   2.524   2.089   4.128  0.7479 -0.2637  0.4580
11830TIP3   OH256980   4.187   3.488   5.263  0.4891  0.2290  0.1345
11830TIP3    H156981   4.107   3.501   5.315  0.6439  0.7569  0.2414
11830TIP3    H256982   4.257   3.526   5.316  0.6144  1.0147 -0.5649
11831TIP3   OH256983   1.966   3.311   5.897 -0.1944  0.1124  0.2049
11831TIP3    H156984   2.051   3.346   5.872 -0.1809  0.1993  0.3683
11831TIP3    H256985   1.924   3.289   5.814 -0.4523  1.1114  0.0511
11832TIP3   OH256986   6.695   1.600   1.369  0.5156 -0.3159  0.6246
11832TIP3    H156987   6.663   1.511   1.388 -0.3530 -0.5092 -1.4726
11832TIP3    H256988   6.725   1.633   1.454  2.0835 -3.0696  1.2833
11833TIP3   OH256989   0.971   3.608  13.410  0.1031  0.0585 -0.8172
11833TIP3    H156990   0.983   3.652  13.494  1.3182 -2.2125  0.2734
11833TIP3    H256991   1.060   3.588  13.381 -0.3729 -0.6971 -1.8029
11834TIP3   OH256992   0.293   4.200   3.858  0.5371  0.4318 -0.2822
11834TIP3    H156993   0.258   4.214   3.945  0.5489 -0.0128 -0.2015
11834TIP3    H256994   0.379   4.159   3.873 -0.1013 -1.0451 -0.5143
11835TIP3   OH256995   0.126   0.921  15.749  0.7624  0.2612  0.0551
11835TIP3    H156996   0.114   0.831  15.719 -0.5934  0.7935 -1.1704
11835TIP3    H256997   0.163   0.967  15.674 -0.7649  1.1975 -0.1809
11836TIP3   OH256998   4.587   6.204   3.633  0.0300 -0.7412 -0.0432
11836TIP3    H156999   4.669   6.248   3.611 -1.4097  1.7562 -0.8464
11836TIP3    H257000   4.520   6.253   3.585 -1.9037 -3.0784  0.0602
11837TIP3   OH257001   0.161   0.010  13.419  0.2040  0.0830  0.3113
11837TIP3    H157002   0.095  -0.011  13.485  0.3865 -0.4488  0.3258
11837TIP3    H257003   0.245  -0.003  13.463  0.4137 -2.8283 -0.7193
11838TIP3   OH257004   2.180   2.727  16.399  0.3060  0.1090 -0.0687
11838TIP3    H157005   2.215   2.712  16.486 -2.2936 -0.9244  0.8637
11838TIP3    H257006   2.233   2.670  16.342  0.8316 -0.5981  1.0857
11839TIP3   OH257007   2.162   1.870  11.542  0.4580  0.3797 -0.3289
11839TIP3    H157008   2.113   1.932  11.596  1.0275  0.8025 -0.2939
11839TIP3    H257009   2.225   1.924  11.494  1.0167 -0.1758 -0.2341
11840TIP3   OH257010   6.744   1.260  16.099  0.4209  0.2562  0.0344
11840TIP3    H157011   6.682   1.196  16.064  0.1866  0.9197 -0.7947
11840TIP3    H257012   6.735   1.252  16.194  1.0495 -1.5539 -0.0292
11841TIP3   OH257013   4.110   3.065   1.843 -0.1740 -0.7302 -0.8672
11841TIP3    H157014   4.197   3.091   1.814 -0.4279  1.2907 -0.0204
11841TIP3    H257015   4.125   3.008   1.919  0.4432  0.3942 -0.1108
11842TIP3   OH257016   3.990   4.899  16.603 -0.6069  0.8219 -0.7262
11842TIP3    H157017   3.997   4.931  16.693  0.9658  1.4857 -1.0482
11842TIP3    H257018   4.064   4.940  16.557 -1.4271  0.5812 -2.3448
11843TIP3   OH257019   2.827   6.207   4.117 -0.0057  0.2427  0.2152
11843TIP3    H157020   2.891   6.188   4.049 -2.4890  1.8997 -2.8308
11843TIP3    H257021   2.817   6.302   4.116 -1.9938  0.1099  1.0484
11844TIP3   OH257022   5.842   6.367  12.164 -0.3666 -0.0785 -0.4412
11844TIP3    H157023   5.780   6.388  12.234  0.4930 -1.4180  0.7896
11844TIP3    H257024   5.922   6.414  12.187 -0.2269 -0.1302 -0.8077
11845TIP3   OH257025   6.218   3.532  16.504  0.2963 -0.2077 -0.5253
11845TIP3    H157026   6.289   3.566  16.558 -0.9673  3.1125 -0.7478
11845TIP3    H257027   6.259   3.463  16.452  2.5289 -0.6583  1.6075
11846TIP3   OH257028   2.635   2.810   5.674  0.7733 -0.1715 -0.3015
11846TIP3    H157029   2.685   2.734   5.705  0.8893 -0.6255 -1.5295
11846TIP3    H257030   2.587   2.841   5.751  0.7877 -1.4494  0.2441
11847TIP3   OH257031   1.460   0.827  12.031  0.5443 -0.1167  0.2583
11847TIP3    H157032   1.497   0.852  12.116 -0.8356  1.0382  0.5637
11847TIP3    H257033   1.503   0.885  11.969  0.6227 -0.0806  0.3444
11848TIP3   OH257034   3.787   3.439   1.804  0.3022 -0.1915  0.1609
11848TIP3    H157035   3.855   3.469   1.864  2.9279  0.0874 -2.7026
11848TIP3    H257036   3.824   3.363   1.760 -1.7063 -0.7405 -0.7258
11849TIP3   OH257037   2.862   2.604   6.511 -0.1382  0.1880 -0.2606
11849TIP3    H157038   2.799   2.675   6.496  0.4358  1.7520  3.6097
11849TIP3    H257039   2.944   2.636   6.474  0.7119  2.8519  3.4051
11850TIP3   OH257040   4.901   0.014  16.934 -0.2842 -0.3499  0.0118
11850TIP3    H157041   4.932  -0.074  16.956  1.3797  0.3759  0.7650
11850TIP3    H257042   4.920   0.067  17.011 -2.1723  0.4976 -0.0468
11851TIP3   OH257043   1.761   5.542   3.652  0.1413  0.2410 -0.3715
11851TIP3    H157044   1.785   5.523   3.562 -1.3785 -0.4633 -0.6765
11851TIP3    H257045   1.669   5.515   3.658  0.0434  0.8076  1.2301
11852TIP3   OH257046   6.426   6.064  16.046 -0.9520 -0.3896  0.6548
11852TIP3    H157047   6.340   6.023  16.050 -0.8033 -0.6549  1.3650
11852TIP3    H257048   6.454   6.056  15.955 -1.9761  0.3236  0.2613
11853TIP3   OH257049   6.206   6.299  16.947 -0.1897  0.0391  0.1435
11853TIP3    H157050   6.151   6.370  16.979 -1.5209 -1.2136  0.7377
11853TIP3    H257051   6.178   6.222  16.997  1.6305 -0.8005 -0.0330
11854TIP3   OH257052   3.620   3.345  11.467 -0.6669 -0.5036 -0.4486
11854TIP3    H157053   3.580   3.422  11.508 -0.5418 -1.1377  0.9374
11854TIP3    H257054   3.703   3.335  11.513 -0.1252 -0.7582 -1.4677
11855TIP3   OH257055   1.057   0.228  15.373 -0.2662 -0.0084  0.0366
11855TIP3    H157056   0.979   0.275  15.402  0.2341  0.1808  1.1209
11855TIP3    H257057   1.129   0.269  15.420  0.2802 -1.3457  0.4220
11856TIP3   OH257058   5.713   0.645   5.813  0.5942  0.1386 -0.0172
11856TIP3    H157059   5.730   0.607   5.726  1.5331  0.9643 -0.2081
11856TIP3    H257060   5.653   0.582   5.854 -1.9316  0.9248 -2.1599
11857TIP3   OH257061   5.356   3.936  14.016  0.0514 -0.7375  0.3224
11857TIP3    H157062   5.328   3.928  14.107  0.7761  1.0212  0.7500
11857TIP3    H257063   5.391   3.850  13.994  1.6424 -0.6973  2.3731
11858TIP3   OH257064   1.398   2.886  13.493  0.2940 -0.1672  0.7386
11858TIP3    H157065   1.470   2.883  13.430  0.5767 -2.1686  1.0916
11858TIP3    H257066   1.327   2.837  13.451 -0.2150  0.1864  1.1698
11859TIP3   OH257067   3.248   4.609  10.245  0.3918  0.1265 -0.1995
11859TIP3    H157068   3.199   4.609  10.327  0.4398 -0.7915 -0.1562
11859TIP3    H257069   3.285   4.521  10.240 -1.2044 -0.5072 -2.1649
11860TIP3   OH257070   1.304   5.586   4.742 -0.2504 -0.8095  0.1196
11860TIP3    H157071   1.236   5.594   4.810 -1.6779 -0.5261 -1.2869
11860TIP3    H257072   1.309   5.672   4.702 -0.2106 -1.2468 -0.8474
11861TIP3   OH257073   4.421   5.489   4.066  0.2186  0.0011 -0.2229
11861TIP3    H157074   4.394   5.397   4.070 -0.3557  0.1585 -0.4277
11861TIP3    H257075   4.360   5.529   4.005 -0.9177  0.9980  1.4859
11862TIP3   OH257076   0.842   3.510   4.233  0.5896  0.0414  0.5491
11862TIP3    H157077   0.771   3.446   4.240 -0.7021  1.5261  1.5667
11862TIP3    H257078   0.917   3.467   4.273 -0.3747 -0.6858  1.6210
11863TIP3   OH257079   1.054   6.106  11.497 -0.2123 -0.5616  0.3646
11863TIP3    H157080   1.116   6.179  11.488  0.3133 -1.1136 -0.6302
11863TIP3    H257081   1.037   6.101  11.591 -4.3928  4.2748  0.3414
11864TIP3   OH257082   5.443   0.742  16.288  0.0110 -0.7895 -0.2318
11864TIP3    H157083   5.432   0.775  16.199 -0.2093 -0.0060  0.0723
11864TIP3    H257084   5.500   0.666  16.279 -0.6354 -1.1867 -1.1299
11865TIP3   OH257085   2.711   0.663   2.961 -0.0129  0.1105  0.2308
11865TIP3    H157086   2.715   0.609   2.882 -2.1020  0.3776 -0.1204
11865TIP3    H257087   2.618   0.683   2.972  0.3150  0.8055  2.2861
11866TIP3   OH257088   3.996   2.453  11.180  0.0650  0.5972 -1.0091
11866TIP3    H157089   3.982   2.488  11.267  2.2029 -0.0853 -0.3266
11866TIP3    H257090   3.908   2.434  11.147 -0.7722 -0.1846  1.4482
11867TIP3   OH257091   3.569   6.043  11.380 -0.2227 -0.1124  0.2148
11867TIP3    H157092   3.562   6.078  11.291 -1.4702  0.3560  0.4867
11867TIP3    H257093   3.531   6.111  11.435 -0.3312 -0.8186  1.0128
11868TIP3   OH257094   5.310   1.081   0.995 -1.0909  0.5505  0.0506
11868TIP3    H157095   5.357   1.107   1.074 -0.9486  0.4536  0.0005
11868TIP3    H257096   5.236   1.030   1.027 -0.1004 -0.9445  0.0760
11869TIP3   OH257097   4.514   2.373   4.779  0.0697  0.3812 -0.0048
11869TIP3    H157098   4.535   2.345   4.690 -0.3131  0.2066 -0.0398
11869TIP3    H257099   4.572   2.320   4.834  3.4126  3.3431 -0.2828
11870TIP3   OH257100   4.047   1.947  13.952  0.0567 -0.3688  0.5022
11870TIP3    H157101   3.981   1.943  14.022  2.1232  0.2115  2.6096
11870TIP3    H257102   4.120   1.894  13.985  1.7652  1.2787 -0.4540
11871TIP3   OH257103   0.577   1.679   1.492  0.2181  0.3601  0.7965
11871TIP3    H157104   0.572   1.601   1.438  0.1979  0.8116  0.1275
11871TIP3    H257105   0.661   1.672   1.538  1.5455  1.2631 -1.3662
11872TIP3   OH257106   6.196   2.245   4.393  0.0856  0.6446  0.1450
11872TIP3    H157107   6.117   2.219   4.441  0.0757  0.6228  0.1178
11872TIP3    H257108   6.164   2.270   4.306  0.1650  0.1612 -0.0255
11873TIP3   OH257109   2.302   1.564  13.314  0.2308 -0.1320  0.2108
11873TIP3    H157110   2.274   1.478  13.344 -1.6344  0.6365  0.7831
11873TIP3    H257111   2.385   1.547  13.270 -0.1749 -2.2471  0.1353
11874TIP3   OH257112   0.009   3.299  12.016 -0.1095  0.7099  0.3101
11874TIP3    H157113  -0.040   3.381  12.023  0.0210  0.8237 -0.0995
11874TIP3    H257114  -0.010   3.267  11.928 -0.7042 -0.0519  0.7108
11875TIP3   OH257115   2.254   1.063   3.363  0.5236 -0.3101  0.1742
11875TIP3    H157116   2.231   0.988   3.417 -0.7908  0.1104  0.2445
11875TIP3    H257117   2.282   1.025   3.280  0.5926 -0.8970  0.4622
11876TIP3   OH257118   4.176   3.294  13.933 -0.2789 -0.1923  0.2987
11876TIP3    H157119   4.154   3.383  13.961 -0.4889 -0.4351  0.9232
11876TIP3    H257120   4.152   3.292  13.840 -0.8688  0.2061  0.4345
11877TIP3   OH257121   0.129   0.354  10.691 -0.2559 -0.2584 -0.2244
11877TIP3    H157122   0.091   0.386  10.609  1.0193 -1.3319 -1.2704
11877TIP3    H257123   0.099   0.263  10.697  0.4058 -0.4594  0.0295
11878TIP3   OH257124   0.744   6.106   1.193 -0.4429 -0.3593  0.5154
11878TIP3    H157125   0.759   6.043   1.122  0.1097 -0.1072  0.3950
11878TIP3    H257126   0.727   6.052   1.270  2.2053 -0.7836  0.9279
11879TIP3   OH257127   2.487   0.212  15.998  0.0922  0.0519 -0.2504
11879TIP3    H157128   2.411   0.157  15.978 -0.8679  1.2612 -0.0867
11879TIP3    H257129   2.481   0.227  16.093  1.6507 -1.3899  0.1319
11880TIP3   OH257130   0.207   4.958  15.736 -0.1506 -0.0747 -0.3786
11880TIP3    H157131   0.179   4.923  15.820 -2.0793 -1.5704 -1.5451
11880TIP3    H257132   0.202   5.053  15.746  0.8723 -0.1733  1.5248
11881TIP3   OH257133   3.548   1.754  12.738 -0.0079  0.2409  0.8034
11881TIP3    H157134   3.609   1.764  12.665 -0.3133  0.0433  0.5234
11881TIP3    H257135   3.566   1.667  12.774 -1.2163 -0.4750 -0.2795
11882TIP3   OH257136   5.562   5.966  14.556  0.1629 -0.5719 -0.2584
11882TIP3    H157137   5.540   5.912  14.631 -0.5018  0.4960  0.3465
11882TIP3    H257138   5.479   6.007  14.530  0.5305 -0.3143 -1.0746
11883TIP3   OH257139   2.943   4.628   0.194  0.8230 -0.0595  0.1366
11883TIP3    H157140   3.025   4.676   0.185  0.9246  0.0432  1.3665
11883TIP3    H257141   2.898   4.671   0.267  0.3610 -1.0419  0.4588
11884TIP3   OH257142   4.208   2.931   3.460  0.2673 -0.1337 -0.3155
11884TIP3    H157143   4.184   2.869   3.391  1.1886  0.6783 -1.3908
11884TIP3    H257144   4.238   2.876   3.532 -0.5648 -0.9878 -0.5945
11885TIP3   OH257145   6.361   2.001   4.447  0.5858 -0.4231  0.4327
11885TIP3    H157146   6.295   2.068   4.427 -0.1916 -0.7409  1.7721
11885TIP3    H257147   6.394   2.025   4.534  1.3253 -0.9847  0.3183
11886TIP3   OH257148   0.767   3.795   3.961 -0.2312  0.3199 -0.1074
11886TIP3    H157149   0.843   3.808   4.018 -1.4886 -0.7693  1.9422
11886TIP3    H257150   0.692   3.798   4.021 -1.8502  1.4384 -2.0588
11887TIP3   OH257151   0.196   5.494  13.498 -0.2362  0.4734  0.2134
11887TIP3    H157152   0.244   5.519  13.419 -4.1051 -1.7676 -3.2876
11887TIP3    H257153   0.202   5.399  13.500 -1.5213  0.3864  1.7118
11888TIP3   OH257154   4.152   6.388  12.169  0.2869 -0.6297  0.4198
11888TIP3    H157155   4.205   6.423  12.241 -1.3759 -1.9696  2.3959
11888TIP3    H257156   4.197   6.307  12.144  1.0648  0.0184 -0.3431
11889TIP3   OH257157   1.077   6.806   6.075  0.6004  0.5694  0.2709
11889TIP3    H157158   1.123   6.828   6.155  1.9056  1.3517 -0.6748
11889TIP3    H257159   1.044   6.717   6.091  0.3015  0.9314  1.8790
11890TIP3   OH257160   6.183   3.946   3.035 -0.2132  0.6406  0.1614
11890TIP3    H157161   6.200   4.014   2.971  0.8603  0.8398  0.6421
11890TIP3    H257162   6.116   3.890   2.994  1.2602  0.0934 -1.6235
11891TIP3   OH257163   6.107   0.060  10.685 -0.5434  0.7053  0.2405
11891TIP3    H157164   6.014   0.079  10.675 -0.8923 -0.4314  1.0577
11891TIP3    H257165   6.117  -0.030  10.653  0.3351  0.9243 -0.1406
11892TIP3   OH257166   3.684   3.094   6.378 -0.2990 -0.4443 -0.2542
11892TIP3    H157167   3.723   3.132   6.299  1.2274 -1.5950 -0.0997
11892TIP3    H257168   3.743   3.023   6.401 -1.7717 -1.3507  0.8401
11893TIP3   OH257169   3.747   4.990  17.078 -0.1863  0.0683 -0.7397
11893TIP3    H157170   3.814   4.933  17.116  0.3772  1.0627 -0.2175
11893TIP3    H257171   3.676   4.930  17.054  1.0437 -1.0678 -1.7151
11894TIP3   OH257172   4.419   4.650   1.714 -0.4278  0.3653  0.1704
11894TIP3    H157173   4.324   4.661   1.724 -0.8491 -0.1140 -2.5114
11894TIP3    H257174   4.444   4.715   1.649  1.2906  1.0880  1.4822
11895TIP3   OH257175   5.197   3.211   3.483 -0.1006  0.1769 -0.0923
11895TIP3    H157176   5.232   3.195   3.571 -2.2783  0.8286  0.9635
11895TIP3    H257177   5.209   3.127   3.438  1.0690 -0.1711  0.8007
11896TIP3   OH257178   5.322   3.380  11.061 -0.3607  0.3476  0.6776
11896TIP3    H157179   5.415   3.377  11.037 -0.5113  2.5554 -0.4374
11896TIP3    H257180   5.275   3.362  10.980 -0.9500 -0.5705  1.1956
11897TIP3   OH257181   2.460   1.811  15.618  0.3223 -0.4923 -0.6413
11897TIP3    H157182   2.494   1.730  15.579  1.0386  0.0397 -1.1550
11897TIP3    H257183   2.538   1.866  15.632  0.0079 -0.4009  0.9468
11898TIP3   OH257184   2.899   5.722  12.489 -0.1384  0.1280  0.4155
11898TIP3    H157185   2.851   5.805  12.485  0.9446  0.7869  0.4775
11898TIP3    H257186   2.893   5.696  12.581 -1.5824 -0.5645  0.1527
11899TIP3   OH257187   3.169   1.767   4.570  0.1692 -0.5324 -0.1085
11899TIP3    H157188   3.252   1.800   4.537 -0.1637  1.2659  0.6796
11899TIP3    H257189   3.132   1.716   4.498  0.8938  0.5903 -1.3154
11900TIP3   OH257190   3.007   6.213  13.936 -0.5167  0.2582  0.1178
11900TIP3    H157191   3.024   6.304  13.911 -0.7222  0.6469  1.3213
11900TIP3    H257192   2.913   6.210  13.953 -0.6519 -0.3925 -0.6814
11901TIP3   OH257193   5.780   3.080  15.363  0.3271  0.3385  0.5369
11901TIP3    H157194   5.839   3.006  15.345 -1.6157 -1.2857  0.3916
11901TIP3    H257195   5.743   3.061  15.449 -1.5766  0.0941 -0.2723
11902TIP3   OH257196   3.130   1.355  15.097  0.1746 -0.2176 -0.3118
11902TIP3    H157197   3.150   1.279  15.042 -0.9467 -0.1201 -0.8847
11902TIP3    H257198   3.046   1.333  15.138  0.9884 -0.2828  1.3718
11903TIP3   OH257199   4.065   4.929   4.824 -0.0637  0.1733  0.0099
11903TIP3    H157200   4.156   4.900   4.823 -0.1447 -0.2663  1.7631
11903TIP3    H257201   4.014   4.849   4.834 -0.7106  0.3574 -1.5276
11904TIP3   OH257202   3.611   0.715  13.721  0.3261  0.7036 -0.6523
11904TIP3    H157203   3.644   0.675  13.641  0.6391 -1.4986  0.4695
11904TIP3    H257204   3.690   0.729  13.774 -0.0326  0.1392  0.0589
11905TIP3   OH257205   2.115   0.578   2.049  0.7654  0.3796 -0.3091
11905TIP3    H157206   2.204   0.609   2.034  0.2484  3.0985  1.5824
11905TIP3    H257207   2.061   0.633   1.992  0.2249 -1.1514 -1.3338
11906TIP3   OH257208   5.480   5.646   0.914  0.2930 -0.2896  0.3081
11906TIP3    H157209   5.420   5.720   0.907 -0.5245 -0.8290  1.3872
11906TIP3    H257210   5.542   5.658   0.842 -0.2807  1.0260  0.0167
11907TIP3   OH257211   4.743   6.811   0.758 -0.0788 -0.3572 -0.2688
11907TIP3    H157212   4.723   6.904   0.767  1.6862  0.0592 -0.3032
11907TIP3    H257213   4.719   6.773   0.842  0.3529  0.3784  0.2022
11908TIP3   OH257214   0.510   5.988  15.366 -0.0745 -0.0884 -0.1354
11908TIP3    H157215   0.489   5.900  15.398 -0.7444  0.6386  1.5230
11908TIP3    H257216   0.606   5.992  15.369 -0.0847 -0.0988  1.8045
11909TIP3   OH257217   4.232   4.197   0.455  0.5388 -0.2216 -0.6300
11909TIP3    H157218   4.192   4.277   0.422 -0.6217 -0.2914  0.5111
11909TIP3    H257219   4.241   4.211   0.549 -0.4203 -1.6815 -0.2676
11910TIP3   OH257220   0.127   2.871  15.876 -0.7383  0.1822 -0.2505
11910TIP3    H157221   0.151   2.887  15.785 -1.7292  1.3291 -0.3418
11910TIP3    H257222   0.112   2.777  15.881  1.5407 -0.2719 -0.6903
11911TIP3   OH257223   3.358   2.709  12.237 -0.4962  1.1287  0.1663
11911TIP3    H157224   3.436   2.748  12.198 -2.5849  1.8879 -3.7382
11911TIP3    H257225   3.352   2.622  12.197 -1.3278  0.8194  0.9394
11912TIP3   OH257226   3.004   4.923   1.573 -0.0913 -0.2908 -0.1672
11912TIP3    H157227   3.011   4.977   1.494  1.0787 -0.6273 -0.3156
11912TIP3    H257228   2.954   4.846   1.545  1.3053 -0.9590 -0.9072
11913TIP3   OH257229   4.939   3.189  15.966  0.0493  0.2002 -0.6186
11913TIP3    H157230   5.027   3.158  15.944 -0.5381 -1.2207 -1.1142
11913TIP3    H257231   4.940   3.282  15.945  1.3539  0.1507 -0.8569
11914TIP3   OH257232   5.339   0.808   4.862 -0.0958 -0.4746 -0.0673
11914TIP3    H157233   5.337   0.713   4.876 -0.4502 -0.3503  0.7536
11914TIP3    H257234   5.432   0.830   4.859 -0.0130 -0.6886  0.8694
11915TIP3   OH257235   4.641   6.310  11.994  0.0065  0.0146  0.0120
11915TIP3    H157236   4.577   6.286  11.927  1.5736  0.1759 -1.6313
11915TIP3    H257237   4.603   6.386  12.038 -2.3707 -1.8034  1.3522
11916TIP3   OH257238   6.453   3.376   2.310 -0.1860 -0.1944 -0.0235
11916TIP3    H157239   6.385   3.310   2.295  1.0570 -0.9571 -2.7637
11916TIP3    H257240   6.413   3.459   2.284 -0.0164 -0.6918 -1.9891
11917TIP3   OH257241   2.666   3.981  14.869 -0.1683  0.0076 -0.2437
11917TIP3    H157242   2.675   3.902  14.923 -0.9444  0.2510  0.2605
11917TIP3    H257243   2.605   3.955  14.800 -0.0737  0.0378 -0.3386
11918TIP3   OH257244   5.705   1.527  16.302  0.4425  0.3683  0.0784
11918TIP3    H157245   5.686   1.434  16.293  0.6029  0.3133  0.3056
11918TIP3    H257246   5.744   1.536  16.389 -0.1790  0.7443  0.3290
11919TIP3   OH257247   0.716   3.261  15.847 -0.6774  0.1663  0.0457
11919TIP3    H157248   0.795   3.312  15.864  0.4050 -0.9725 -1.3643
11919TIP3    H257249   0.718   3.243  15.753 -2.1173 -0.7121  0.1457
11920TIP3   OH257250   5.520   2.319  14.180 -0.2266  0.6717  0.5104
11920TIP3    H157251   5.480   2.253  14.236  1.6129 -0.2648  0.8093
11920TIP3    H257252   5.448   2.377  14.155 -1.4820 -0.1595  2.0460
11921TIP3   OH257253   4.796   2.956  12.417 -0.8647  0.7010 -0.4832
11921TIP3    H157254   4.840   2.876  12.444 -0.1102  0.7084 -1.6259
11921TIP3    H257255   4.814   3.018  12.488 -0.1139  0.3280 -0.3362
11922TIP3   OH257256   3.356   5.433   3.384  0.3893  0.2857 -0.4070
11922TIP3    H157257   3.426   5.396   3.439  0.1333  2.1890  1.3269
11922TIP3    H257258   3.318   5.357   3.340  0.6323 -1.3783  2.0486
11923TIP3   OH257259   3.734   1.189   1.846 -0.2839  0.1649 -0.4088
11923TIP3    H157260   3.645   1.154   1.846  0.5850 -2.4309 -2.8620
11923TIP3    H257261   3.733   1.258   1.780 -0.6575  0.8077  0.2537
11924TIP3   OH257262   3.373   3.699   5.547  0.4064  0.4841  0.5841
11924TIP3    H157263   3.451   3.752   5.531 -0.5230  1.5187 -0.7322
11924TIP3    H257264   3.329   3.695   5.463 -0.6381 -0.6360  1.1569
11925TIP3   OH257265   4.382   5.285   3.729 -0.2388 -0.5767 -0.2954
11925TIP3    H157266   4.411   5.194   3.734 -0.7990 -0.7416  0.0843
11925TIP3    H257267   4.342   5.294   3.643  0.6427 -0.4352 -0.6932
11926TIP3   OH257268   6.527   4.280   2.855 -0.2060  0.1682  0.1719
11926TIP3    H157269   6.596   4.214   2.851  0.1518  0.5133  0.6743
11926TIP3    H257270   6.449   4.233   2.825 -0.3342 -0.9758  2.1229
11927TIP3   OH257271   4.461   2.520  14.068  0.3641 -0.0835 -0.1286
11927TIP3    H157272   4.498   2.442  14.027 -0.2452  0.5719 -2.0567
11927TIP3    H257273   4.390   2.486  14.123 -1.2539 -0.8496 -2.5049
11928TIP3   OH257274   0.363   2.073   2.559 -0.1671  0.2755 -0.0408
11928TIP3    H157275   0.291   2.034   2.610 -0.1187 -0.2799 -0.3936
11928TIP3    H257276   0.319   2.130   2.496 -0.3567 -0.7699 -0.8643
11929TIP3   OH257277   4.438   5.028  13.911  0.6379 -0.2924 -0.4296
11929TIP3    H157278   4.413   5.118  13.931  0.0842 -0.6122  0.3620
11929TIP3    H257279   4.459   5.029  13.818 -0.3467  0.4427 -0.6639
11930TIP3   OH257280   5.044   0.047   2.129  0.2022  0.0261  0.1619
11930TIP3    H157281   5.113   0.009   2.183  0.5082 -1.1773 -1.0279
11930TIP3    H257282   5.086   0.119   2.083  0.0715  0.7255  1.1139
11931TIP3   OH257283   0.863   4.031  16.477 -0.3239 -0.1178 -0.0359
11931TIP3    H157284   0.829   3.981  16.403 -2.0998  2.5003 -1.1364
11931TIP3    H257285   0.787   4.047  16.533 -0.3928  3.0329 -0.8267
11932TIP3   OH257286   3.830   3.012   3.222  0.1116  0.8580 -0.1376
11932TIP3    H157287   3.879   3.078   3.272  0.3268  1.5199 -1.1799
11932TIP3    H257288   3.897   2.953   3.187 -0.0845  0.0432  0.8267
11933TIP3   OH257289   3.221   5.326  16.038 -0.4367 -0.0445  0.6016
11933TIP3    H157290   3.232   5.324  15.943  1.9647  2.0721  0.7170
11933TIP3    H257291   3.277   5.254  16.069  1.7503  1.4944  0.4779
11934TIP3   OH257292   3.505   6.187  14.040 -0.3686 -0.0373 -0.0124
11934TIP3    H157293   3.502   6.279  14.013  0.4661  0.2723  0.8981
11934TIP3    H257294   3.416   6.168  14.068 -0.5863  0.4426 -0.3564
11935TIP3   OH257295   4.119   0.519  16.114  0.3412  0.1991  0.1565
11935TIP3    H157296   4.129   0.584  16.045  0.7275 -1.0703 -1.0404
11935TIP3    H257297   4.204   0.518  16.158  0.2768  0.6145  0.2939
11936TIP3   OH257298   0.317   5.939   0.547 -0.7870 -0.0666 -0.0506
11936TIP3    H157299   0.276   5.926   0.461 -0.7431  0.7516 -0.2036
11936TIP3    H257300   0.385   6.005   0.531 -0.5557 -0.1566  0.5491
11937TIP3   OH257301   5.689   5.587   6.471 -0.7897  0.2516 -0.0350
11937TIP3    H157302   5.676   5.679   6.494  0.0842  0.3135  0.2381
11937TIP3    H257303   5.782   5.580   6.451 -0.9425 -0.4769 -0.5255
11938TIP3   OH257304   4.000   0.938   2.601  0.1650 -0.1901 -0.1472
11938TIP3    H157305   4.057   0.986   2.661  1.0420 -0.2450 -0.9225
11938TIP3    H257306   3.940   1.005   2.568  0.0499 -0.0446  0.3456
11939TIP3   OH257307   3.955   4.164  13.407  0.2040 -0.4049 -0.0553
11939TIP3    H157308   3.965   4.243  13.355  1.7856 -1.6814 -1.8116
11939TIP3    H257309   3.952   4.195  13.498 -0.1949  1.7042 -0.7370
11940TIP3   OH257310   2.231   2.669  16.656  0.5327 -0.6748 -0.6118
11940TIP3    H157311   2.162   2.604  16.671 -0.5891  0.4376 -0.7505
11940TIP3    H257312   2.289   2.661  16.731 -1.1536  0.0599  0.8321
11941TIP3   OH257313   0.935   1.540   3.090  0.4855 -0.3490  0.5130
11941TIP3    H157314   0.942   1.615   3.149  1.0865  0.1660 -0.1901
11941TIP3    H257315   0.981   1.469   3.135 -0.2622 -0.3614  1.2708
11942TIP3   OH257316   6.684   6.151   6.677  0.7580 -0.4612 -0.0408
11942TIP3    H157317   6.738   6.221   6.711  0.7263 -1.0137  1.2088
11942TIP3    H257318   6.745   6.081   6.655  0.5281 -1.8692  3.2498
11943TIP3   OH257319   6.147   6.017  11.541 -0.0757  0.4377  0.0065
11943TIP3    H157320   6.063   5.971  11.533 -0.4841  1.1654 -0.0377
11943TIP3    H257321   6.170   6.009  11.634 -1.0814  1.6903  0.4060
11944TIP3   OH257322   5.767   3.621  14.455  0.1554  0.3768  0.2079
11944TIP3    H157323   5.861   3.607  14.447  0.0776  0.5517 -1.6136
11944TIP3    H257324   5.728   3.534  14.441  0.0357  0.3460  0.7190
11945TIP3   OH257325   5.024   1.514  14.942 -0.2801  0.0891 -0.4404
11945TIP3    H157326   5.025   1.456  14.866  0.6522 -1.3136  0.5933
11945TIP3    H257327   5.054   1.598  14.908 -0.3779 -0.3680 -1.7160
11946TIP3   OH257328   3.800   3.097  15.863 -0.6670 -0.2150  0.0922
11946TIP3    H157329   3.863   3.147  15.810 -0.6428  1.1004  1.3266
11946TIP3    H257330   3.749   3.049  15.798 -0.5985  1.2985 -1.1539
11947TIP3   OH257331   1.170   0.543   0.942  0.0138  0.3389  0.1442
11947TIP3    H157332   1.160   0.625   0.893  0.1068  0.0492 -0.3623
11947TIP3    H257333   1.132   0.476   0.886  0.4898 -0.0594  0.2879
11948TIP3   OH257334   6.774   1.036  16.548 -0.4507 -0.5941 -0.0559
11948TIP3    H157335   6.765   1.000  16.637  0.4840 -1.1022 -0.1591
11948TIP3    H257336   6.868   1.049  16.536 -0.6557  0.6371 -0.5332
11949TIP3   OH257337   3.013   5.899   0.746  0.6993  0.3124 -0.3138
11949TIP3    H157338   2.962   5.935   0.673  0.2098  0.3155  0.0266
11949TIP3    H257339   2.999   5.961   0.817  2.3107  1.0842 -0.6084
11950TIP3   OH257340   6.788   3.236  11.512 -1.0847 -0.6079  0.2200
11950TIP3    H157341   6.845   3.188  11.452  2.3491  2.6398  0.5148
11950TIP3    H257342   6.805   3.197  11.598  0.4339  0.0110  0.2288
11951TIP3   OH257343   1.286   4.058   1.302 -0.0186  0.1250  0.6952
11951TIP3    H157344   1.344   3.987   1.273  0.0027 -0.0686  1.1996
11951TIP3    H257345   1.212   4.054   1.241  1.1745  1.3492 -0.9127
11952TIP3   OH257346   3.451   1.136   4.139  0.3959  0.3452  0.8076
11952TIP3    H157347   3.426   1.161   4.228  1.0604 -0.9758  1.3799
11952TIP3    H257348   3.502   1.056   4.149  0.4528  0.1482 -0.7700
11953TIP3   OH257349   4.171   3.321   2.539 -0.0455  0.0298 -0.5212
11953TIP3    H157350   4.130   3.234   2.534 -1.0388  0.4734 -0.4124
11953TIP3    H257351   4.140   3.358   2.622  0.0443  0.6376 -0.7497
11954TIP3   OH257352   5.097   2.543   2.055  0.1544  0.9438  0.2404
11954TIP3    H157353   5.128   2.477   1.993 -1.4759 -1.0848  1.4615
11954TIP3    H257354   5.150   2.621   2.035  1.2861 -0.3074 -2.0998
11955TIP3   OH257355   4.148   6.685  13.519 -0.2868 -0.0472  0.0230
11955TIP3    H157356   4.227   6.715  13.564 -0.8416  0.3276  0.7503
11955TIP3    H257357   4.162   6.711  13.428  0.0005  0.9090  0.3283
11956TIP3   OH257358   6.758   5.234  11.164  0.8833  0.0708 -0.0448
11956TIP3    H157359   6.776   5.156  11.113 -1.4233 -1.6169  1.5134
11956TIP3    H257360   6.785   5.211  11.253  1.0336  1.4023  0.2736
11957TIP3   OH257361   2.475   0.068  12.557  0.4132  0.1986  0.0471
11957TIP3    H157362   2.410   0.070  12.487  1.5033  0.6398 -0.9877
11957TIP3    H257363   2.429   0.028  12.631 -0.8093 -0.1678 -0.8729
11958TIP3   OH257364   0.804   0.686   0.914  0.5194 -0.0869 -0.3977
11958TIP3    H157365   0.717   0.725   0.919 -0.7538 -2.7282 -0.3818
11958TIP3    H257366   0.800   0.627   0.839  2.1976 -0.5198 -0.1949
11959TIP3   OH257367   2.388   2.079  11.166 -0.3496  0.1829  0.6668
11959TIP3    H157368   2.318   2.029  11.124 -0.1812  1.4175 -1.2000
11959TIP3    H257369   2.343   2.132  11.231 -0.7920 -0.8430  1.2283
11960TIP3   OH257370   4.509   1.166  12.320  0.1483 -0.0278 -0.6709
11960TIP3    H157371   4.424   1.138  12.286  0.6488 -1.1448 -1.0606
11960TIP3    H257372   4.569   1.155  12.246  1.4632 -3.4715  0.7182
11961TIP3   OH257373   4.017   2.490  14.124  0.1862 -0.7257 -0.3155
11961TIP3    H157374   3.962   2.417  14.095  0.8365 -1.6194  0.6471
11961TIP3    H257375   4.104   2.451  14.135  0.7906  0.4422 -0.8136
11962TIP3   OH257376   2.138   3.326   2.127 -0.7049 -0.5547  0.5590
11962TIP3    H157377   2.159   3.240   2.166 -3.0940 -1.7529 -0.5743
11962TIP3    H257378   2.050   3.346   2.160  0.2141  2.0667  1.6785
11963TIP3   OH257379   4.750   3.135  13.409  0.7739  0.4316 -0.2254
11963TIP3    H157380   4.718   3.218  13.372 -1.0328  0.0868  0.4809
11963TIP3    H257381   4.757   3.152  13.503  0.9170 -0.0562 -0.1465
11964TIP3   OH257382   3.920   1.979  13.322  0.6400  0.0059 -0.6587
11964TIP3    H157383   3.925   1.941  13.409  0.7900 -0.6408 -0.9486
11964TIP3    H257384   3.983   2.052  13.325  0.3785  0.2149 -0.1185
11965TIP3   OH257385   1.307   3.108   5.372  0.1890  0.6606  0.0053
11965TIP3    H157386   1.371   3.038   5.381  0.1085  0.4859 -0.7156
11965TIP3    H257387   1.331   3.172   5.439  1.8693  1.1797 -1.0443
11966TIP3   OH257388   4.673   4.378  12.633 -0.0289  0.1547 -0.1554
11966TIP3    H157389   4.654   4.470  12.654 -0.3740  0.4931 -1.8208
11966TIP3    H257390   4.594   4.331  12.659  0.3255  0.2390  1.1410
11967TIP3   OH257391   0.290   0.945   4.983 -0.0683  0.1941  0.2107
11967TIP3    H157392   0.229   0.877   4.955  1.3099 -1.4593  0.9985
11967TIP3    H257393   0.253   0.978   5.065 -0.5648  0.1224  0.0192
11968TIP3   OH257394   3.034   5.402   2.831 -0.2550  0.0863  0.1518
11968TIP3    H157395   3.087   5.482   2.830 -0.4024  0.1869 -1.3085
11968TIP3    H257396   2.945   5.433   2.850 -0.7754  0.6297 -2.7442
11969TIP3   OH257397   2.929   4.888   3.021  0.4246  0.0770 -0.2005
11969TIP3    H157398   2.884   4.963   2.983  0.0849 -0.6407 -1.2523
11969TIP3    H257399   2.860   4.837   3.063  0.5674  0.0181 -0.0338
11970TIP3   OH257400   4.211   2.126   1.237 -0.1292 -0.0713  0.4032
11970TIP3    H157401   4.277   2.193   1.216 -0.5484 -0.0855 -1.0789
11970TIP3    H257402   4.253   2.071   1.303  1.5907 -0.4127 -0.8938
11971TIP3   OH257403   4.067   1.914   5.841 -0.3763 -0.4640 -0.1915
11971TIP3    H157404   4.148   1.894   5.793 -0.5293 -0.7342 -0.3338
11971TIP3    H257405   4.000   1.921   5.773 -0.4328 -0.0226 -0.0949
11972TIP3   OH257406   4.314   4.936   5.692 -0.2774  0.9322  0.2833
11972TIP3    H157407   4.315   4.985   5.775  0.0897 -0.9802  1.4771
11972TIP3    H257408   4.222   4.938   5.665 -0.4720  1.2669  0.9367
11973TIP3   OH257409   4.589   2.679   1.176 -0.0945 -0.0236 -0.4450
11973TIP3    H157410   4.502   2.686   1.138 -0.2048 -1.3671 -0.5056
11973TIP3    H257411   4.574   2.651   1.266  0.2743 -0.5767 -0.5473
11974TIP3   OH257412   4.298   4.107   1.605  0.1492 -0.1531  0.1483
11974TIP3    H157413   4.265   4.017   1.602 -1.5251  0.4350 -0.4996
11974TIP3    H257414   4.324   4.120   1.696  0.8400 -1.4146  0.1571
11975TIP3   OH257415   1.631   0.604  15.491  0.1418  0.1319  0.2498
11975TIP3    H157416   1.670   0.560  15.567  0.8881 -0.9469 -0.7221
11975TIP3    H257417   1.555   0.550  15.469  0.5760 -0.2083 -0.4392
11976TIP3   OH257418   0.411   1.425  14.065 -0.0092 -0.6145  0.2917
11976TIP3    H157419   0.504   1.405  14.057 -0.0048 -0.3007 -0.5228
11976TIP3    H257420   0.402   1.515  14.033 -0.9514 -1.5182 -2.2535
11977TIP3   OH257421   5.355   6.178   4.395 -0.0233 -0.3001  0.1730
11977TIP3    H157422   5.402   6.158   4.476 -0.8002  1.9048  1.2395
11977TIP3    H257423   5.402   6.253   4.358 -0.5182 -0.4148 -0.7149
11978TIP3   OH257424   1.736   2.287   0.521 -0.2686 -0.1857 -0.1801
11978TIP3    H157425   1.820   2.319   0.488 -0.4384 -0.0985 -0.5270
11978TIP3    H257426   1.690   2.255   0.443  0.6134 -2.9775  0.3205
11979TIP3   OH257427   3.909   2.304  12.519 -0.2133  0.2145  0.1064
11979TIP3    H157428   3.985   2.245  12.521 -0.8111 -0.6804 -1.4164
11979TIP3    H257429   3.939   2.380  12.469  0.3710  0.9708  1.5470
11980TIP3   OH257430   0.880   2.367   3.534  0.4521 -0.3562  0.2286
11980TIP3    H157431   0.856   2.274   3.533  1.4543 -0.6262  0.6202
11980TIP3    H257432   0.832   2.403   3.609  0.4237 -0.6583  0.3566
11981TIP3   OH257433   6.218   5.169  13.580 -0.7936 -0.2491 -0.2662
11981TIP3    H157434   6.173   5.154  13.663 -1.6488  1.5311 -0.3607
11981TIP3    H257435   6.178   5.248  13.545  1.7024  0.8336 -0.8819
11982TIP3   OH257436   4.897   5.584  12.569  0.0328  0.2871  0.2220
11982TIP3    H157437   4.951   5.589  12.649  1.1127  2.0830 -0.5657
11982TIP3    H257438   4.954   5.617  12.500 -0.8100 -1.4480 -1.3829
11983TIP3   OH257439   4.580   5.125  16.767 -0.4824 -0.1515  0.6588
11983TIP3    H157440   4.608   5.198  16.713 -1.8372 -0.2138 -0.1638
11983TIP3    H257441   4.485   5.120  16.755 -0.7501 -0.5584  2.5691
11984TIP3   OH257442   4.239   0.130  15.271 -0.1903 -0.1675  0.1872
11984TIP3    H157443   4.147   0.113  15.288 -0.6522 -0.1977 -1.9796
11984TIP3    H257444   4.244   0.225  15.260 -0.4617 -0.3311 -1.8544
11985TIP3   OH257445   6.079   1.691   5.899 -0.3273 -0.4857  0.1570
11985TIP3    H157446   6.077   1.699   5.995 -0.3596  2.9270  0.0055
11985TIP3    H257447   5.990   1.714   5.872  0.4985  2.0640 -0.7223
11986TIP3   OH257448   5.301   4.644   1.724 -0.1012  0.1646  0.1075
11986TIP3    H157449   5.208   4.649   1.702 -0.4224 -0.0017  1.3397
11986TIP3    H257450   5.339   4.590   1.654 -1.0199 -0.1931 -0.1377
11987TIP3   OH257451   5.067   5.334   4.263  0.0055 -0.3876 -0.2231
11987TIP3    H157452   4.976   5.363   4.254  0.2566  0.2231 -0.8821
11987TIP3    H257453   5.061   5.242   4.288 -0.8002 -0.9319 -2.2038
11988TIP3   OH257454   0.860   2.809   5.847 -0.3164  0.0443 -0.2598
11988TIP3    H157455   0.869   2.724   5.889  0.0647 -0.1031 -0.6400
11988TIP3    H257456   0.790   2.798   5.783  0.0312 -0.1008 -0.6136
11989TIP3   OH257457   0.667   4.515   5.815 -0.0921 -0.2799 -0.9050
11989TIP3    H157458   0.628   4.436   5.779 -0.6518 -0.7852  0.7215
11989TIP3    H257459   0.748   4.526   5.766 -1.2574 -0.3466 -2.9622
11990TIP3   OH257460   4.068   4.295   3.218  0.0033 -0.2148 -0.1762
11990TIP3    H157461   4.025   4.347   3.150  3.3325  2.2712 -0.6378
11990TIP3    H257462   4.156   4.331   3.223  0.9868 -2.6308  3.0991
11991TIP3   OH257463   1.651   6.188  16.662  0.3466 -0.2041 -0.0944
11991TIP3    H157464   1.728   6.131  16.665  0.9908  0.6773  1.7013
11991TIP3    H257465   1.593   6.154  16.730 -0.5765 -0.4397 -0.9733
11992TIP3   OH257466   2.888   4.117   3.437  0.2376 -0.3945 -0.9810
11992TIP3    H157467   2.898   4.050   3.369 -0.1180  0.0177 -1.4404
11992TIP3    H257468   2.931   4.195   3.400 -2.2572  0.6386 -1.8923
11993TIP3   OH257469   4.059   1.323  12.832 -0.0562 -0.7706 -0.5646
11993TIP3    H157470   4.069   1.377  12.753  1.8532 -0.7197 -0.3314
11993TIP3    H257471   3.999   1.373  12.887  2.4411  1.7733  0.0975
11994TIP3   OH257472   3.930   0.075   1.295  0.0034  0.0934 -0.3126
11994TIP3    H157473   3.952   0.156   1.341  0.9479 -0.3448  0.0268
11994TIP3    H257474   3.844   0.092   1.256 -0.2082  0.9426  0.4968
11995TIP3   OH257475   1.824   1.897  14.378 -0.2250  0.1021 -0.3380
11995TIP3    H157476   1.894   1.839  14.348 -1.2341 -1.3074 -0.0686
11995TIP3    H257477   1.870   1.968  14.422  1.0445 -0.7873 -0.1536
11996TIP3   OH257478   5.000   3.710  11.793 -0.2278  0.1373 -0.1019
11996TIP3    H157479   5.058   3.723  11.718 -1.6889  0.6059 -1.1838
11996TIP3    H257480   4.975   3.618  11.788  0.2149 -0.0073  0.2338
11997TIP3   OH257481   3.798   5.990  12.148 -0.4577  0.0323  0.3571
11997TIP3    H157482   3.754   5.908  12.128  0.3796 -0.1146 -1.0339
11997TIP3    H257483   3.746   6.057  12.104 -1.2505  0.2953  1.6523
11998TIP3   OH257484   4.318   5.596  11.924 -0.9871 -0.3314  0.6320
11998TIP3    H157485   4.307   5.568  12.015 -1.0085 -2.3463  0.0462
11998TIP3    H257486   4.407   5.571  11.902 -0.6230  1.1002  0.3780
11999TIP3   OH257487   3.215   3.354   2.782  0.1263  0.6642  0.0162
11999TIP3    H157488   3.246   3.391   2.700 -1.4572 -1.6892 -1.8146
11999TIP3    H257489   3.132   3.399   2.798  1.1284  2.1505  1.1689
12000TIP3   OH257490   0.299   0.787  16.742  0.3991  0.2586 -0.2167
12000TIP3    H157491   0.307   0.880  16.720  0.2820  0.1568 -0.6811
12000TIP3    H257492   0.378   0.769  16.795  0.7210  0.4768 -0.6186
12001TIP3   OH257493   0.580   5.358  11.636 -0.5311 -0.1784  0.0330
12001TIP3    H157494   0.492   5.323  11.652 -0.0738 -1.8108 -0.8379
12001TIP3    H257495   0.566   5.451  11.620 -2.0274 -0.2970  0.4592
12002TIP3   OH257496   3.364   1.636  13.901 -1.0615  0.7595  0.0348
12002TIP3    H157497   3.350   1.710  13.842 -2.0898  0.6258  0.1001
12002TIP3    H257498   3.342   1.670  13.988  0.7599  1.0508  0.4136
12003TIP3   OH257499   0.457   2.072  15.402  0.2139 -0.0449  0.1584
12003TIP3    H157500   0.510   2.106  15.329  0.8069  0.2111  0.7062
12003TIP3    H257501   0.397   2.010  15.360  2.0231 -1.5885 -0.2741
12004TIP3   OH257502   5.458   6.141   5.649 -0.6720  0.7866  0.2656
12004TIP3    H157503   5.439   6.180   5.734  0.6952  0.7130  0.6215
12004TIP3    H257504   5.478   6.049   5.668  0.4160  0.9547 -0.0292
12005TIP3   OH257505   5.199   0.079   5.124  0.1955 -0.0432 -0.6203
12005TIP3    H157506   5.114   0.064   5.165  0.0265 -1.8200 -1.5296
12005TIP3    H257507   5.263   0.052   5.190  0.1463  2.1641  0.4160
12006TIP3   OH257508   6.839   0.660  14.893  0.0761  0.2330 -0.2672
12006TIP3    H157509   6.805   0.694  14.976  2.0229  0.1109  0.6197
12006TIP3    H257510   6.852   0.737  14.838 -0.0024  0.4455  0.0129
12007TIP3   OH257511   1.530   4.418  11.664 -0.3173  0.5821 -0.1041
12007TIP3    H157512   1.501   4.383  11.749 -0.0572  1.1993  0.2451
12007TIP3    H257513   1.572   4.501  11.686  1.3150 -0.0664 -0.6357
12008TIP3   OH257514   5.703   0.868  14.949  0.0795 -0.1681  0.2377
12008TIP3    H157515   5.657   0.898  15.027  1.3905  1.5626  0.4263
12008TIP3    H257516   5.789   0.841  14.981  0.0188 -1.1467 -0.3888
12009TIP3   OH257517   4.968   3.829  11.097 -0.4455 -0.1719  0.0974
12009TIP3    H157518   4.889   3.809  11.147 -0.4650 -0.6092 -0.1079
12009TIP3    H257519   4.937   3.853  11.010 -0.4859  1.5539  0.5368
12010TIP3   OH257520   6.089   1.942   1.600  0.4704  0.0934 -0.1946
12010TIP3    H157521   6.098   1.911   1.510 -1.6954  0.6591 -0.6530
12010TIP3    H257522   6.103   2.036   1.595  0.3031  0.1324  0.0718
12011TIP3   OH257523   6.163   5.949   2.428  0.1019 -0.1439  0.2373
12011TIP3    H157524   6.253   5.932   2.457  0.2591 -0.7991 -0.6388
12011TIP3    H257525   6.145   6.038   2.460  1.4557  0.4345 -0.5361
12012TIP3   OH257526   4.035   3.883   3.504  0.2507 -0.8411 -0.1508
12012TIP3    H157527   4.048   3.938   3.427  0.8701  1.2387  1.3479
12012TIP3    H257528   4.124   3.866   3.536  0.2535 -4.3556 -1.5451
12013TIP3   OH257529   6.457   2.450   5.346  0.2256 -0.6061  0.2534
12013TIP3    H157530   6.532   2.500   5.379 -0.2705  0.5530 -0.2940
12013TIP3    H257531   6.421   2.407   5.423  2.2785 -2.3625  0.2976
12014TIP3   OH257532   1.834   5.598  11.921 -0.1253  0.2370 -0.3806
12014TIP3    H157533   1.851   5.533  11.853  1.3696  1.6748 -1.4337
12014TIP3    H257534   1.860   5.682  11.883  0.3323  1.1688  1.7964
12015TIP3   OH257535   4.413   1.599  13.367 -0.2808  0.1135 -0.6187
12015TIP3    H157536   4.382   1.677  13.322 -0.5804 -0.8005 -2.0441
12015TIP3    H257537   4.357   1.528  13.335  0.3182 -0.7911  0.2565
12016TIP3   OH257538   2.567   1.121   3.106  0.4828 -0.1610 -0.1399
12016TIP3    H157539   2.561   1.158   3.194 -0.1132 -2.4818  0.8784
12016TIP3    H257540   2.476   1.116   3.076  0.6484  0.2096 -0.7078
12017TIP3   OH257541   3.407   3.005  16.357  0.4883  0.0805  0.0574
12017TIP3    H157542   3.323   3.001  16.401  0.5491  0.3456  0.2018
12017TIP3    H257543   3.472   2.994  16.427  0.5699 -0.3020 -0.0750
12018TIP3   OH257544   5.747   5.108   5.798  0.1341 -0.3115 -0.5151
12018TIP3    H157545   5.755   5.057   5.879  1.6287 -1.1544 -1.1485
12018TIP3    H257546   5.668   5.075   5.756  1.4343 -2.6835 -1.2476
12019TIP3   OH257547   6.848   0.721  10.644 -0.5348 -0.4018 -0.0245
12019TIP3    H157548   6.812   0.798  10.688  0.7474 -0.1598  0.6405
12019TIP3    H257549   6.941   0.740  10.634 -0.5431 -1.0801 -1.5568
12020TIP3   OH257550   3.360   2.948   0.585 -0.5744 -0.1266 -0.5133
12020TIP3    H157551   3.435   2.887   0.581 -0.0224  0.4397  0.8266
12020TIP3    H257552   3.283   2.891   0.583 -0.0700 -0.8603  0.2558
12021TIP3   OH257553   2.217   2.751  12.710  0.2939  0.6043  0.6278
12021TIP3    H157554   2.173   2.689  12.769  0.0191  1.4887  1.3712
12021TIP3    H257555   2.310   2.739  12.728  0.5460 -2.0791 -1.7455
12022TIP3   OH257556   2.203   3.647  13.290 -0.0078  0.1449 -0.2257
12022TIP3    H157557   2.236   3.639  13.380  0.8785 -1.0986 -0.6351
12022TIP3    H257558   2.130   3.709  13.297  0.8563  1.0737  1.1264
12023TIP3   OH257559   2.362   0.698  11.235 -0.3551  0.1384  0.2889
12023TIP3    H157560   2.275   0.678  11.201 -0.5029 -0.8785  1.2199
12023TIP3    H257561   2.380   0.786  11.202 -1.3798  0.0444 -0.6031
12024TIP3   OH257562   6.402   1.931   2.673 -0.2216  0.2398  0.6666
12024TIP3    H157563   6.371   2.003   2.619 -0.3975  1.0401  1.8058
12024TIP3    H257564   6.497   1.943   2.678 -0.0732 -0.4453 -0.3117
12025TIP3   OH257565   0.414   4.678   5.599  0.0957  0.1559  0.7220
12025TIP3    H157566   0.396   4.600   5.652  0.8653 -0.5590 -0.0578
12025TIP3    H257567   0.477   4.650   5.534 -0.7280  1.0579 -0.5194
12026TIP3   OH257568   5.671   6.574   4.288 -0.0669  0.4891  0.0309
12026TIP3    H157569   5.765   6.561   4.280  0.5030  2.4318  2.3143
12026TIP3    H257570   5.650   6.639   4.221  0.9110  2.4360  1.5039
12027TIP3   OH257571   3.793   6.226   0.620 -0.7278  0.6077 -0.0573
12027TIP3    H157572   3.702   6.257   0.618 -0.1126  2.5745  0.1791
12027TIP3    H257573   3.787   6.133   0.600 -2.9783  0.2456  1.8424
12028TIP3   OH257574   4.967   2.327   1.561  0.8081  0.0869  0.2305
12028TIP3    H157575   5.038   2.264   1.576  0.0804 -1.4566 -2.2860
12028TIP3    H257576   4.981   2.358   1.472 -0.7977  0.9294  0.2359
12029TIP3   OH257577   5.490   4.409  17.021 -0.5570 -0.2051  0.7319
12029TIP3    H157578   5.538   4.345  17.072 -0.1800 -1.4070 -1.0519
12029TIP3    H257579   5.521   4.494  17.054  4.0005 -0.8224 -1.2039
12030TIP3   OH257580   6.568   0.581  10.830 -0.6067  0.2443  0.0124
12030TIP3    H157581   6.591   0.610  10.742 -0.2274 -0.5701 -0.1638
12030TIP3    H257582   6.649   0.546  10.866 -1.1006 -0.8035  0.1324
12031TIP3   OH257583   0.621   0.361   0.821  0.1717 -0.1709  0.0932
12031TIP3    H157584   0.545   0.415   0.799 -0.7595 -1.4144  0.1765
12031TIP3    H257585   0.682   0.375   0.748  0.6223  2.1279  0.8169
12032TIP3   OH257586   0.307   2.232  16.353 -0.4725  0.2548 -0.0367
12032TIP3    H157587   0.372   2.291  16.316  0.7737 -1.4160 -0.6228
12032TIP3    H257588   0.312   2.247  16.448 -0.7736  1.6447 -0.2250
12033TIP3   OH257589   4.311   2.203   3.921  0.7921 -0.7312  0.1242
12033TIP3    H157590   4.268   2.243   3.996  0.6748 -2.0770  0.8184
12033TIP3    H257591   4.398   2.241   3.919  0.4321  0.1251  0.2710
12034TIP3   OH257592   5.179   4.753  12.832  0.5043 -0.4848 -0.2185
12034TIP3    H157593   5.114   4.683  12.825  0.4158 -0.5882  1.3344
12034TIP3    H257594   5.187   4.787  12.743  0.4059 -2.3269 -0.9665
12035TIP3   OH257595   5.960   6.515   3.190 -0.0739 -0.1804 -0.0374
12035TIP3    H157596   5.872   6.486   3.216 -0.1491 -1.4045 -1.4834
12035TIP3    H257597   6.017   6.481   3.258 -0.6381 -0.0514  0.5098
12036TIP3   OH257598   4.651   2.179  14.649  0.0990  0.0237  0.0452
12036TIP3    H157599   4.675   2.265  14.616  0.5128  0.1507  0.6668
12036TIP3    H257600   4.711   2.118  14.606 -1.5897 -0.2665 -2.1174
12037TIP3   OH257601   2.684   2.458  14.048  0.1827  0.3674  0.1275
12037TIP3    H157602   2.693   2.363  14.041  0.2076  0.0641  3.0673
12037TIP3    H257603   2.595   2.476  14.015 -0.1787 -0.7991  0.4068
12038TIP3   OH257604   1.882   6.771   6.191 -0.3442 -0.2956 -0.6282
12038TIP3    H157605   1.943   6.707   6.228 -1.6967 -1.5841 -0.5291
12038TIP3    H257606   1.897   6.765   6.096 -0.2202 -0.4966 -0.5983
12039TIP3   OH257607   5.423   3.485   0.479 -0.1326 -0.1736  0.1052
12039TIP3    H157608   5.439   3.568   0.525 -1.2885  0.5409 -0.7205
12039TIP3    H257609   5.507   3.440   0.482  0.2772  0.6143  1.3890
12040TIP3   OH257610   3.680   0.174  11.538 -0.1928 -0.2547 -1.0419
12040TIP3    H157611   3.590   0.141  11.531 -0.6245  0.1702  1.5683
12040TIP3    H257612   3.734   0.095  11.544 -0.4764 -0.5042 -1.6903
12041TIP3   OH257613   6.402   0.661  10.349 -0.4187 -0.1538 -0.1301
12041TIP3    H157614   6.317   0.620  10.365 -0.3405  0.1030  1.0038
12041TIP3    H257615   6.387   0.717  10.273 -0.5576 -2.1274 -1.6286
12042TIP3   OH257616   1.989   0.642  16.514 -0.2718 -0.0245  0.3856
12042TIP3    H157617   1.956   0.583  16.446  1.0018  0.3442 -0.6079
12042TIP3    H257618   1.928   0.716  16.514  0.6175  0.7779 -1.5967
12043TIP3   OH257619   2.832   4.374   2.646 -0.3719  0.1324 -0.4684
12043TIP3    H157620   2.810   4.455   2.600 -2.3666  0.5957  1.1633
12043TIP3    H257621   2.762   4.314   2.623 -1.2166  0.2671  1.6031
12044TIP3   OH257622   1.109   0.995   0.414  0.0902 -0.8942 -0.0095
12044TIP3    H157623   1.110   1.004   0.319  0.0604 -0.7067  0.0061
12044TIP3    H257624   1.104   1.085   0.446  2.4082 -0.7999  0.2174
12045TIP3   OH257625   6.650   0.374   1.797 -0.0631  0.0733 -0.2691
12045TIP3    H157626   6.596   0.348   1.872 -1.1290 -1.6290 -1.5414
12045TIP3    H257627   6.725   0.315   1.801 -0.9909 -1.2730 -1.4570
12046TIP3   OH257628   6.527   1.292  12.917 -0.6096  0.0603  0.1016
12046TIP3    H157629   6.449   1.237  12.917 -1.4091  1.0476 -2.6118
12046TIP3    H257630   6.512   1.356  12.986 -1.1366 -1.0989  1.0986
12047TIP3   OH257631   2.775   2.427  12.894 -0.4667 -0.1688 -0.2076
12047TIP3    H157632   2.752   2.481  12.970  2.6089 -1.2160  1.6270
12047TIP3    H257633   2.833   2.483  12.843 -0.5616 -0.3324 -0.4944
12048TIP3   OH257634   0.826   3.237  12.207  0.0797 -0.0814  0.7607
12048TIP3    H157635   0.861   3.311  12.157  0.5292 -0.7081  0.1367
12048TIP3    H257636   0.857   3.253  12.296 -0.3494  0.8060  0.7658
12049TIP3   OH257637   1.546   3.561   4.219  0.3965  0.0205 -0.2354
12049TIP3    H157638   1.592   3.491   4.173 -1.5357 -1.5764  0.1286
12049TIP3    H257639   1.491   3.602   4.152 -0.9865 -1.0664  0.1723
12050TIP3   OH257640   0.877   2.755  16.197 -0.1694  0.0994 -0.1552
12050TIP3    H157641   0.906   2.665  16.178  0.8238  0.6648 -1.4499
12050TIP3    H257642   0.912   2.773  16.285 -0.0678 -0.6507 -0.0339
12051TIP3   OH257643   1.755   6.760   1.043 -0.1551  0.4858 -0.0256
12051TIP3    H157644   1.717   6.812   1.114  0.9526  1.7135 -0.2876
12051TIP3    H257645   1.819   6.704   1.087  0.6931  1.4063 -0.0516
12052TIP3   OH257646   2.668   6.214   5.014  0.3602 -0.1655  1.1129
12052TIP3    H157647   2.653   6.251   5.101  2.8003  0.9612  1.1364
12052TIP3    H257648   2.733   6.145   5.028  1.2921  0.4804  0.1234
12053TIP3   OH257649   4.829   5.623  10.606  0.0393  0.3051 -0.3481
12053TIP3    H157650   4.807   5.646  10.515 -0.9975  2.3501  0.3509
12053TIP3    H257651   4.839   5.528  10.605 -2.6221 -0.0655 -2.1042
12054TIP3   OH257652   6.552   0.412  14.849  0.0941  0.2304  0.1952
12054TIP3    H157653   6.644   0.395  14.871 -0.4526 -0.6737  1.8966
12054TIP3    H257654   6.503   0.385  14.926 -1.6094  0.8780 -0.6153
12055TIP3   OH257655   4.065   2.587  11.817 -0.3238  0.2782  0.1936
12055TIP3    H157656   4.061   2.598  11.912  0.7783  0.3133  0.2540
12055TIP3    H257657   4.019   2.505  11.800 -0.1321  0.0407  0.8150
12056TIP3   OH257658   6.748   1.882  16.835 -0.1294  0.6525 -0.3943
12056TIP3    H157659   6.774   1.810  16.893  0.7638 -0.3979 -2.0162
12056TIP3    H257660   6.813   1.950  16.851 -0.6711  0.9321  0.7681
12057TIP3   OH257661   2.871   6.078   2.565  0.1400  0.2962 -0.1102
12057TIP3    H157662   2.792   6.131   2.554  0.3552  0.3423 -1.6267
12057TIP3    H257663   2.939   6.141   2.589 -0.4598  0.1220  2.3187
12058TIP3   OH257664   2.552   2.715  11.545 -0.1403 -0.3152  0.0397
12058TIP3    H157665   2.641   2.749  11.556 -0.2330 -0.1176  0.1745
12058TIP3    H257666   2.522   2.754  11.463  0.0647 -0.7462 -0.2461
12059TIP3   OH257667   0.668   3.626   1.208 -0.2678  0.4870  0.2987
12059TIP3    H157668   0.743   3.659   1.258 -0.8240  0.5423  1.1020
12059TIP3    H257669   0.592   3.667   1.248 -0.8073 -0.2390  0.0471
12060TIP3   OH257670   2.821   0.466  15.479  0.5218 -0.2330 -0.5203
12060TIP3    H157671   2.895   0.416  15.513  1.9175  1.5771 -0.7659
12060TIP3    H257672   2.785   0.510  15.556 -0.3440 -1.0808 -0.4065
12061TIP3   OH257673   6.115   0.626  11.274  0.0526  0.1600 -0.4558
12061TIP3    H157674   6.142   0.598  11.187  2.2778  0.6489  0.0291
12061TIP3    H257675   6.189   0.605  11.331 -0.3865  2.0098  0.9043
12062TIP3   OH257676   5.436   3.577  15.228  0.4686 -0.4528  0.7732
12062TIP3    H157677   5.410   3.617  15.144 -1.0139 -3.1658 -0.2039
12062TIP3    H257678   5.491   3.503  15.202 -0.2249 -1.4832  2.1715
12063TIP3   OH257679   0.659   3.668   0.947 -0.0665  0.3720  0.0819
12063TIP3    H157680   0.669   3.639   1.038  1.0455 -0.2945 -0.2357
12063TIP3    H257681   0.568   3.696   0.941 -0.1407  0.4824  1.4206
12064TIP3   OH257682   6.194   0.290  15.704  0.2191  0.4565  0.4143
12064TIP3    H157683   6.128   0.360  15.700  0.0078  0.1997 -1.0578
12064TIP3    H257684   6.277   0.337  15.714  0.0156  0.8965  0.1082
12065TIP3   OH257685   2.366   6.151  11.375 -0.1132  0.1713 -0.0209
12065TIP3    H157686   2.307   6.225  11.391  0.1929  0.6083 -0.8763
12065TIP3    H257687   2.451   6.181  11.408  0.2035  0.5372 -1.1536
12066TIP3   OH257688   1.878   6.070   2.821 -0.0001 -0.4323 -0.0167
12066TIP3    H157689   1.914   6.125   2.751 -0.4273  1.1985  0.9967
12066TIP3    H257690   1.882   5.981   2.786 -0.0956  0.3254 -2.0560
12067TIP3   OH257691   2.642   6.481  16.809  0.1119  0.1259  0.2659
12067TIP3    H157692   2.605   6.449  16.891  0.9936  0.3396  0.7486
12067TIP3    H257693   2.668   6.571  16.827 -1.9937  1.0710 -0.9723
12068TIP3   OH257694   4.794   5.022   5.992  0.8261 -0.2274 -0.3620
12068TIP3    H157695   4.732   5.024   5.920 -0.1585 -1.1317  0.4268
12068TIP3    H257696   4.834   5.109   5.992 -1.0746  0.6959 -0.3573
12069TIP3   OH257697   0.148   5.644   5.447  0.0506 -0.6848 -0.0528
12069TIP3    H157698   0.224   5.626   5.503 -0.8185  0.2825  1.4860
12069TIP3    H257699   0.186   5.659   5.360  1.9140  2.0946  1.1124
12070TIP3   OH257700   0.011   6.095  13.705  0.0882 -0.1354 -0.1367
12070TIP3    H157701   0.066   6.034  13.656 -0.6447 -0.5593 -0.4510
12070TIP3    H257702  -0.076   6.055  13.704 -0.1570  0.3578  0.6350
12071TIP3   OH257703   6.112   1.283  16.235  0.8253 -0.4354 -0.3389
12071TIP3    H157704   6.147   1.222  16.170  1.5960  0.0034 -0.3536
12071TIP3    H257705   6.187   1.338  16.259  0.7327 -1.0392  1.4682
12072TIP3   OH257706   1.400   1.463   5.716 -0.9682 -0.8614 -0.3718
12072TIP3    H157707   1.367   1.509   5.794  0.6476 -0.7578  0.2996
12072TIP3    H257708   1.380   1.522   5.644 -1.8673 -0.6300  0.0487
12073TIP3   OH257709   2.436   4.232  12.808 -0.3151  0.0873 -0.5285
12073TIP3    H157710   2.453   4.202  12.897  1.1679 -0.8543 -1.0924
12073TIP3    H257711   2.358   4.184  12.780  0.9504 -1.9340 -0.7578
12074TIP3   OH257712   2.746   3.882  10.616  0.6636  0.0435  0.5283
12074TIP3    H157713   2.757   3.949  10.684 -0.7467 -0.0743  0.9059
12074TIP3    H257714   2.652   3.882  10.597  0.9375 -0.4057 -0.9545
12075TIP3   OH257715   5.763   4.189  14.351  0.1882  0.3862  0.2141
12075TIP3    H157716   5.802   4.234  14.426 -0.8448 -0.7335  1.4569
12075TIP3    H257717   5.700   4.128  14.389 -2.4038  1.6813 -1.6651
12076TIP3   OH257718   4.075   1.140  11.958 -0.1391  0.0387 -0.5883
12076TIP3    H157719   4.042   1.135  11.868  2.2339 -1.2227 -1.4805
12076TIP3    H257720   4.067   1.232  11.982 -0.5555  0.4575 -2.2046
12077TIP3   OH257721   2.271   3.460   3.946  0.4393  0.0277 -0.1632
12077TIP3    H157722   2.284   3.527   3.879 -2.4327  0.1376 -0.7126
12077TIP3    H257723   2.315   3.382   3.911  1.5468  0.8874 -0.7375
12078TIP3   OH257724   5.342   5.680   4.333 -0.4842  0.4538  0.1087
12078TIP3    H157725   5.427   5.685   4.290 -0.6311 -0.2341 -0.2771
12078TIP3    H257726   5.301   5.765   4.315  0.2976  0.9695  0.6964
12079TIP3   OH257727   1.497   1.523   4.498 -0.1686  0.3474  0.0432
12079TIP3    H157728   1.581   1.488   4.527 -0.2080  0.7545  0.6683
12079TIP3    H257729   1.474   1.587   4.565 -0.5337  0.9074 -0.6075
12080TIP3   OH257730   3.187   0.829  10.382  0.1258 -0.1187 -0.0336
12080TIP3    H157731   3.158   0.787  10.302  2.6458  1.2505 -1.8068
12080TIP3    H257732   3.250   0.768  10.420  0.9212  0.3552 -0.5615
12081TIP3   OH257733   4.938   6.312  13.217  0.3981 -0.8426  0.2139
12081TIP3    H157734   5.028   6.320  13.185 -0.1044 -2.4048 -1.8220
12081TIP3    H257735   4.885   6.353  13.149 -0.5462 -1.5124  0.5207
12082TIP3   OH257736   5.722   3.631  15.406 -0.6249  0.2598 -0.5180
12082TIP3    H157737   5.694   3.552  15.359 -0.4363  0.4440 -0.9541
12082TIP3    H257738   5.641   3.680  15.419 -0.4976  0.9739 -2.1205
12083TIP3   OH257739   2.317   3.461  14.808  0.0335 -0.8967 -0.2507
12083TIP3    H157740   2.285   3.551  14.807  1.0694 -0.4587 -2.9281
12083TIP3    H257741   2.252   3.412  14.859 -0.8474  1.2501  0.7716
12084TIP3   OH257742   0.717   5.157   5.521 -0.3594 -0.6036  0.3379
12084TIP3    H157743   0.663   5.234   5.540 -1.9317 -1.8631  1.2243
12084TIP3    H257744   0.654   5.085   5.513  1.1498 -2.0254  0.7064
12085TIP3   OH257745   2.023   5.178   0.731 -0.5104  0.1620 -1.1066
12085TIP3    H157746   2.081   5.198   0.658 -0.6837  1.6850 -0.8555
12085TIP3    H257747   2.047   5.240   0.800 -0.8955 -0.7076 -0.1500
12086TIP3   OH257748   5.210   6.594  16.265 -0.1488 -0.5608  0.2590
12086TIP3    H157749   5.227   6.525  16.202 -0.1702 -0.9753  0.7024
12086TIP3    H257750   5.141   6.647  16.225  1.4031  0.5305 -1.0995
12087TIP3   OH257751   2.934   6.723  13.871 -0.3558 -0.1257  0.3526
12087TIP3    H157752   2.911   6.810  13.906  0.9030  0.3635  0.0212
12087TIP3    H257753   2.851   6.688  13.838 -0.4095  2.4795 -2.8053
12088TIP3   OH257754   4.681   6.550  15.416  0.2506  0.2117 -0.0037
12088TIP3    H157755   4.620   6.619  15.442 -1.1995 -1.1906  0.5268
12088TIP3    H257756   4.649   6.472  15.462  1.0334 -1.1010 -1.5861
12089TIP3   OH257757   5.011   4.361  12.413  0.7208 -0.4824  0.1336
12089TIP3    H157758   4.971   4.401  12.490  0.6037 -1.1657  0.4342
12089TIP3    H257759   5.058   4.285  12.447 -0.3478 -1.5042 -0.6277
12090TIP3   OH257760   2.831   1.518   5.699  0.3313  0.0906 -0.1198
12090TIP3    H157761   2.763   1.579   5.726 -0.1858 -0.0967 -0.9446
12090TIP3    H257762   2.876   1.494   5.780 -0.1200  0.7693  0.3429
12091TIP3   OH257763   0.304   0.346  12.050 -0.1431  0.0689  0.2606
12091TIP3    H157764   0.244   0.414  12.021  1.5290  1.4338 -0.2107
12091TIP3    H257765   0.388   0.369  12.009  0.5719 -2.1025  0.3530
12092TIP3   OH257766   0.202   3.861   5.406  0.0627 -0.3445 -0.0913
12092TIP3    H157767   0.117   3.906   5.406 -0.1763 -0.7476  1.1542
12092TIP3    H257768   0.197   3.801   5.332 -0.2153  0.5715 -0.8289
12093TIP3   OH257769   4.406   3.932   5.914 -0.4511 -0.4715  0.3142
12093TIP3    H157770   4.344   3.862   5.935  0.7665 -1.0275  2.2388
12093TIP3    H257771   4.352   4.010   5.905 -1.5739 -1.2011  0.5531
12094TIP3   OH257772   2.901   5.512   1.253  0.3617 -0.1308 -0.0171
12094TIP3    H157773   2.982   5.563   1.242  1.2018 -0.5582  3.1696
12094TIP3    H257774   2.877   5.524   1.345 -2.6304 -0.9261 -0.5914
12095TIP3   OH257775   3.135   2.524  15.747  0.3153  0.0458  0.1341
12095TIP3    H157776   3.097   2.563  15.668 -0.1208 -3.3268 -1.4951
12095TIP3    H257777   3.062   2.523  15.810  0.2822  1.5357  0.1583
12096TIP3   OH257778   1.901   3.453  15.315  0.1696  0.0030  0.4330
12096TIP3    H157779   1.875   3.543  15.299 -0.5900 -0.1974  0.5042
12096TIP3    H257780   1.853   3.402  15.249 -1.2787 -0.5919  1.8621
12097TIP3   OH257781   2.634   0.755  12.059  0.3782  0.0189 -0.0049
12097TIP3    H157782   2.632   0.830  12.118 -1.3684  0.4878 -0.5843
12097TIP3    H257783   2.663   0.791  11.975  3.3039 -0.7267  0.5820
12098TIP3   OH257784   3.843   6.827  11.588 -0.4669  0.1669  0.3701
12098TIP3    H157785   3.879   6.861  11.670 -0.5629  0.5633  0.2478
12098TIP3    H257786   3.795   6.748  11.614 -0.3520  0.1949  0.6696
12099TIP3   OH257787   5.510   1.966   6.124 -0.4896  0.2518  0.2673
12099TIP3    H157788   5.497   1.929   6.211 -1.7250  0.2047  0.0802
12099TIP3    H257789   5.490   2.059   6.134  3.1670  1.1344  0.8717
12100TIP3   OH257790   5.302   0.934  13.020 -0.2975 -0.1751  0.0402
12100TIP3    H157791   5.367   0.986  13.067 -0.5679 -0.9263  1.3035
12100TIP3    H257792   5.264   0.994  12.957  0.0045  0.9116  0.8731
12101TIP3   OH257793   4.576   6.805   3.772 -0.7476 -0.1146  0.1350
12101TIP3    H157794   4.538   6.737   3.828 -0.8470  0.9883  1.4532
12101TIP3    H257795   4.537   6.790   3.686  0.9982 -3.1576 -0.2552
12102TIP3   OH257796   3.175   2.445  13.995  0.3808  0.9046 -0.7702
12102TIP3    H157797   3.224   2.526  14.012  1.8211 -0.0234 -0.3469
12102TIP3    H257798   3.228   2.376  14.034 -1.3174 -0.1677 -0.2153
12103TIP3   OH257799   5.697   6.093  14.354 -0.0911 -0.2123  0.6147
12103TIP3    H157800   5.659   6.027  14.413  0.5606 -0.2184  1.0307
12103TIP3    H257801   5.687   6.176  14.400 -1.7247  0.1438 -0.2876
12104TIP3   OH257802   3.930   5.683  11.904  0.6398  0.1393  0.0001
12104TIP3    H157803   3.835   5.696  11.903  0.5620 -0.3750  0.2486
12104TIP3    H257804   3.945   5.625  11.979  1.2550  0.9705  0.5371
12105TIP3   OH257805   4.435   1.614  11.290 -0.2523 -0.2231  0.4023
12105TIP3    H157806   4.514   1.661  11.317 -0.7448  1.3206 -0.7172
12105TIP3    H257807   4.381   1.611  11.368 -1.0547  2.9205  0.1060
12106TIP3   OH257808   0.066   5.090   4.763  0.5652 -0.6002  0.3332
12106TIP3    H157809   0.054   5.083   4.858 -1.4272  3.0744  0.5133
12106TIP3    H257810   0.151   5.133   4.753 -0.4550  1.5733  0.6564
12107TIP3   OH257811   6.775   5.761   2.896 -0.2787 -0.0488 -0.3927
12107TIP3    H157812   6.828   5.686   2.926  0.2279  0.7869  0.8978
12107TIP3    H257813   6.822   5.838   2.929 -3.4710  0.7031  3.0261
12108TIP3   OH257814   2.246   3.578  15.985  0.2437  0.0860 -0.1340
12108TIP3    H157815   2.174   3.564  16.046  0.7853 -0.5330  0.3794
12108TIP3    H257816   2.303   3.642  16.030  0.0098  0.5940 -0.5470
12109TIP3   OH257817   4.283   4.811   2.248  0.4290  0.1335 -0.0922
12109TIP3    H157818   4.245   4.885   2.295  1.0406  0.6825 -0.4546
12109TIP3    H257819   4.312   4.752   2.317 -0.6940 -0.1166  0.1981
12110TIP3   OH257820   6.552   6.263  14.076 -0.3744  0.4398 -0.8934
12110TIP3    H157821   6.633   6.216  14.092  1.0610  3.0496  0.1449
12110TIP3    H257822   6.506   6.263  14.160 -0.4986  0.6298 -0.9584
12111TIP3   OH257823   4.312   6.339   4.515  0.5604 -0.3327 -0.0615
12111TIP3    H157824   4.352   6.259   4.549  2.4629 -0.1735 -1.7492
12111TIP3    H257825   4.236   6.354   4.572  1.4879 -2.0307  1.7398
12112TIP3   OH257826   3.509   5.125  11.133 -0.0675  0.1015 -0.1531
12112TIP3    H157827   3.444   5.055  11.134 -0.2629  0.2841 -0.0242
12112TIP3    H257828   3.522   5.145  11.040  0.6159 -0.6844 -0.2366
12113TIP3   OH257829   3.363   6.383   4.986 -0.1048 -0.2903 -0.2787
12113TIP3    H157830   3.271   6.403   5.005  0.3357 -0.6657  2.6301
12113TIP3    H257831   3.402   6.468   4.967 -0.7475  0.0622 -0.0648
12114TIP3   OH257832   6.219   2.706  11.315  0.3314 -0.1375 -0.2407
12114TIP3    H157833   6.155   2.677  11.380  1.9680 -0.3573  1.3740
12114TIP3    H257834   6.223   2.801  11.326  1.8132 -0.3115  1.2851
12115TIP3   OH257835   1.711   1.801  13.256 -0.0562  0.3099  0.5430
12115TIP3    H157836   1.684   1.814  13.165  0.4723 -1.3649  0.1224
12115TIP3    H257837   1.704   1.889  13.295  0.5934  1.2490 -1.3342
12116TIP3   OH257838   1.775   5.035   1.915 -0.5585 -0.1301  0.1902
12116TIP3    H157839   1.688   4.998   1.901 -0.5922  0.4284 -1.1949
12116TIP3    H257840   1.762   5.099   1.986 -1.1073 -0.5895  0.5142
12117TIP3   OH257841   4.379   4.348  16.965  0.0582  0.1871  0.0106
12117TIP3    H157842   4.347   4.428  16.922 -0.0549 -0.1738 -0.5865
12117TIP3    H257843   4.401   4.376  17.053  0.4045  0.9700 -0.3124
12118TIP3   OH257844   3.500   1.701  13.028  0.4191 -0.0263 -0.0308
12118TIP3    H157845   3.430   1.759  13.055  0.3366  0.3515 -1.0226
12118TIP3    H257846   3.561   1.756  12.979 -0.2457 -0.9531 -2.0182
12119TIP3   OH257847   4.002   4.150  12.015 -0.2959  0.2239  0.2705
12119TIP3    H157848   4.008   4.074  11.957 -2.0402  0.8144 -0.7393
12119TIP3    H257849   4.044   4.121  12.096  1.9200 -0.7312 -1.1263
12120TIP3   OH257850   3.944   5.351   5.746  0.1895 -0.0183  0.4152
12120TIP3    H157851   4.004   5.318   5.679  0.7199 -1.4496  1.5398
12120TIP3    H257852   4.001   5.397   5.808  0.0425 -0.6917  1.0675
12121TIP3   OH257853   2.204   5.910  14.086 -0.0701  0.1089  0.2904
12121TIP3    H157854   2.140   5.915  14.015 -0.1882 -1.1580  0.2899
12121TIP3    H257855   2.219   6.002  14.110  0.4985  0.6201 -1.8047
12122TIP3   OH257856   1.559   6.276  10.398  0.8037 -0.2119  0.6969
12122TIP3    H157857   1.632   6.215  10.380  0.3846 -0.8792  1.1953
12122TIP3    H257858   1.547   6.324  10.317  1.5414 -0.3811  0.4815
12123TIP3   OH257859   3.007   4.627   2.039  0.5707 -0.2357  0.1350
12123TIP3    H157860   3.033   4.662   2.124  0.7128  0.5738 -0.2369
12123TIP3    H257861   3.078   4.568   2.014  1.9872  1.7721 -0.7662
12124TIP3   OH257862   1.409   1.996  14.348  0.2538 -0.0047  0.3280
12124TIP3    H157863   1.475   1.999  14.417  1.5293 -2.0640 -0.6906
12124TIP3    H257864   1.456   2.025  14.269 -0.9210  1.4234  0.1204
12125TIP3   OH257865   2.593   5.560  11.467  0.1662 -0.1037 -0.2442
12125TIP3    H157866   2.654   5.587  11.398  0.7770 -2.2316 -0.5920
12125TIP3    H257867   2.637   5.488  11.512 -2.1263 -1.8512 -0.6295
12126TIP3   OH257868   5.940   1.829  10.614  0.0888  0.5368 -0.6110
12126TIP3    H157869   5.877   1.797  10.550 -0.5314  1.1468 -0.3165
12126TIP3    H257870   5.933   1.925  10.610  0.1761  0.5891  0.2241
12127TIP3   OH257871   1.390   4.046  14.164 -0.4286 -0.7542 -0.4308
12127TIP3    H157872   1.342   4.129  14.163 -0.9147 -0.9564  1.6728
12127TIP3    H257873   1.477   4.069  14.129 -0.3766  0.7862  0.5752
12128TIP3   OH257874   5.727   1.693   1.959 -0.2572 -0.1241  0.3445
12128TIP3    H157875   5.716   1.695   1.864 -0.4886 -0.5911  0.3610
12128TIP3    H257876   5.809   1.647   1.972 -0.4089 -0.3819  0.3855
12129TIP3   OH257877   5.008   4.236   3.976 -0.1911 -0.1938  0.1464
12129TIP3    H157878   4.947   4.179   4.022  0.3384 -1.3185 -0.5014
12129TIP3    H257879   5.091   4.189   3.978  0.2355  0.5044 -0.5100
12130TIP3   OH257880   4.884   1.818   4.446  0.2973 -0.4309  0.1321
12130TIP3    H157881   4.854   1.759   4.377  0.8305 -0.7291  0.1491
12130TIP3    H257882   4.925   1.891   4.399 -0.4015 -0.0460  0.1103
12131TIP3   OH257883   0.741   1.810  10.973  0.1554  0.7818  0.4415
12131TIP3    H157884   0.787   1.807  11.057 -0.6563 -1.3362  0.8898
12131TIP3    H257885   0.807   1.785  10.909  0.2346  0.1293  0.7668
12132TIP3   OH257886   0.962   6.059   2.144  0.1144  0.1827  0.6923
12132TIP3    H157887   1.027   6.121   2.112  0.1223  0.6129  1.5123
12132TIP3    H257888   0.887   6.071   2.086  1.2597 -1.4269 -1.2821
12133TIP3   OH257889   3.491   1.045  14.634 -0.2479 -0.4007 -0.3521
12133TIP3    H157890   3.412   0.992  14.634 -0.5058 -0.0226  0.0596
12133TIP3    H257891   3.548   1.002  14.698 -0.8653  0.3975  0.7707
12134TIP3   OH257892   0.626   4.259   5.693  0.3079 -0.2930  0.1606
12134TIP3    H157893   0.604   4.204   5.618  1.7399 -2.8326  1.4672
12134TIP3    H257894   0.722   4.264   5.691  0.2424  1.6007  0.5185
12135TIP3   OH257895   3.851   3.281  12.272 -0.2895  0.3070  0.3475
12135TIP3    H157896   3.939   3.297  12.306 -0.2190 -0.7033  0.6736
12135TIP3    H257897   3.814   3.217  12.332  0.2365 -2.4282 -2.0301
12136TIP3   OH257898   2.526   1.390   5.923 -0.1338 -0.8603 -0.3656
12136TIP3    H157899   2.516   1.341   6.005  0.6056 -1.4696 -0.6174
12136TIP3    H257900   2.467   1.464   5.931  0.8065 -0.2428  1.2309
12137TIP3   OH257901   4.237   0.481  13.248 -0.4114 -0.6116  0.4555
12137TIP3    H157902   4.189   0.403  13.276  1.2357 -1.9524 -0.2559
12137TIP3    H257903   4.310   0.447  13.196  0.0285  1.4540 -0.3822
12138TIP3   OH257904   3.649   1.797  17.007 -0.0493 -0.3706 -0.0448
12138TIP3    H157905   3.696   1.728  16.960  0.9094 -0.7964  1.4675
12138TIP3    H257906   3.693   1.878  16.980 -1.5474 -0.2163 -2.2711
12139TIP3   OH257907   6.843   5.652  16.223 -0.3863 -0.2897  0.4425
12139TIP3    H157908   6.788   5.677  16.297  0.7186 -1.0295  1.5385
12139TIP3    H257909   6.852   5.557  16.230  2.5023 -0.0529  1.4148
12140TIP3   OH257910   4.338   4.741  15.776  0.3279  0.5414  0.7090
12140TIP3    H157911   4.277   4.713  15.709  0.3279  0.6670  0.6562
12140TIP3    H257912   4.288   4.739  15.857 -0.0340  1.5626  0.5343
12141TIP3   OH257913   6.846   0.415   1.081 -0.2440  0.1445 -0.0986
12141TIP3    H157914   6.757   0.416   1.047 -0.0583 -0.1883 -0.6015
12141TIP3    H257915   6.901   0.434   1.005  0.2476 -1.5896 -0.2270
12142TIP3   OH257916   5.268   1.806  16.800 -0.3233 -0.6864 -0.4511
12142TIP3    H157917   5.290   1.726  16.847 -0.9656 -1.0152 -0.6910
12142TIP3    H257918   5.230   1.775  16.717 -0.9908 -0.1488 -0.3615
12143TIP3   OH257919   1.161   2.451   3.259 -0.0844  0.6825  0.1217
12143TIP3    H157920   1.151   2.502   3.339 -1.3185  0.6883 -0.0096
12143TIP3    H257921   1.134   2.363   3.283 -1.8326  0.9737 -0.5720
12144TIP3   OH257922   6.064   6.736   3.591 -0.1773  0.2743 -0.3498
12144TIP3    H157923   6.147   6.767   3.555  0.2956 -1.9306 -1.3276
12144TIP3    H257924   6.000   6.753   3.522 -0.3545  1.0871  0.0119
12145TIP3   OH257925   0.157   1.953   6.267  0.0382  0.0398  0.1856
12145TIP3    H157926   0.125   1.884   6.208  1.0746  0.1423 -0.5254
12145TIP3    H257927   0.238   1.917   6.304 -0.0568  0.3976  0.7410
12146TIP3   OH257928   3.752   2.795  16.884 -0.3022  0.1528  0.5107
12146TIP3    H157929   3.840   2.785  16.849  0.4711 -1.7068  2.7386
12146TIP3    H257930   3.762   2.857  16.957 -1.5075  2.4239 -1.1217
12147TIP3   OH257931   6.007   6.161   1.613  0.6205  0.2716 -0.2028
12147TIP3    H157932   5.994   6.179   1.706  0.3564  0.0844 -0.2029
12147TIP3    H257933   5.992   6.067   1.604 -1.5797  0.6195 -0.8046
12148TIP3   OH257934   0.316   0.240   5.834 -0.0346  0.2631  0.3557
12148TIP3    H157935   0.364   0.157   5.839  0.0037  0.2388 -0.3202
12148TIP3    H257936   0.224   0.216   5.843 -0.0885  0.0452 -0.6961
12149TIP3   OH257937   0.260   0.108   5.248  0.7443  0.4529 -0.2586
12149TIP3    H157938   0.248   0.197   5.213  2.7346  1.1450  0.7106
12149TIP3    H257939   0.332   0.072   5.197 -1.3358 -1.4919 -2.0853
12150TIP3   OH257940   2.861   1.878  10.969  0.4763 -0.0431  0.2359
12150TIP3    H157941   2.867   1.857  10.876  0.7387  3.2881 -0.6333
12150TIP3    H257942   2.785   1.830  11.000  0.5650 -1.4710 -1.6071
12151TIP3   OH257943   6.247   6.536  12.187  0.3071  0.2987  0.7950
12151TIP3    H157944   6.299   6.609  12.154 -0.6721 -0.1577 -2.0255
12151TIP3    H257945   6.260   6.467  12.123 -0.9516 -1.0668  1.9405
12152TIP3   OH257946   0.904   5.770  11.798  0.0950  0.0553 -0.1959
12152TIP3    H157947   0.813   5.799  11.803  0.5492  1.4918  0.7177
12152TIP3    H257948   0.900   5.675  11.807 -1.3261  0.0788 -0.3796
12153TIP3   OH257949   3.386   4.745  12.814  0.8494  0.2561 -0.1781
12153TIP3    H157950   3.307   4.797  12.801  0.6579 -0.0287 -0.1647
12153TIP3    H257951   3.439   4.795  12.876  1.0082  0.8028 -0.7428
12154TIP3   OH257952   2.221   4.073   3.934  0.0454 -0.8649  0.0240
12154TIP3    H157953   2.216   3.978   3.925 -0.9410 -0.8906  0.6852
12154TIP3    H257954   2.315   4.091   3.941  0.1905 -1.9719  1.5117
12155TIP3   OH257955   4.509   2.239  15.666  0.0670 -0.3193  0.2062
12155TIP3    H157956   4.594   2.246  15.710  0.3283  2.0900 -0.5627
12155TIP3    H257957   4.460   2.176  15.719  1.4657  0.1038  2.1083
12156TIP3   OH257958   0.186   6.694  13.022  0.4930 -0.9530  0.3776
12156TIP3    H157959   0.108   6.699  13.077  0.1954 -0.6059 -0.0681
12156TIP3    H257960   0.217   6.604  13.032  1.0685 -0.6088  1.9396
12157TIP3   OH257961   4.513   3.968  14.922 -0.6598  0.3349 -0.2503
12157TIP3    H157962   4.428   3.934  14.948 -1.1567 -0.1880 -2.3747
12157TIP3    H257963   4.576   3.916  14.973 -1.5666 -0.2351  0.3215
12158TIP3   OH257964   1.863   4.658  15.203  0.1031  0.0671  0.1148
12158TIP3    H157965   1.946   4.704  15.195  0.7792 -1.0709  0.3404
12158TIP3    H257966   1.863   4.596  15.130 -0.3130 -0.2844  0.4095
12159TIP3   OH257967   6.718   2.813  11.847  0.6827 -0.2166  0.2362
12159TIP3    H157968   6.666   2.734  11.831 -0.4195  0.2362  1.3704
12159TIP3    H257969   6.785   2.785  11.909 -0.1521 -0.1343  1.2058
12160TIP3   OH257970   2.317   6.591  11.179 -0.4118 -0.2743  0.6666
12160TIP3    H157971   2.228   6.626  11.173  0.1422  0.9743 -3.1722
12160TIP3    H257972   2.369   6.663  11.214 -0.4804  0.0177  0.1740
12161TIP3   OH257973   0.808   5.210   0.822  0.0872  0.3641  0.6370
12161TIP3    H157974   0.856   5.187   0.902 -2.5107  0.6078  2.4257
12161TIP3    H257975   0.763   5.292   0.844  0.8087  1.5317 -1.8448
12162TIP3   OH257976   3.675   3.873  11.895  0.0415  0.2375  0.7316
12162TIP3    H157977   3.721   3.958  11.896  0.3945  0.0713 -0.1802
12162TIP3    H257978   3.740   3.811  11.929 -0.6357  0.5049  2.6230
12163TIP3   OH257979   1.274   1.006  15.532  0.1290 -0.0593  0.3752
12163TIP3    H157980   1.196   0.989  15.584 -0.8482 -0.5328 -1.1869
12163TIP3    H257981   1.328   1.062  15.588 -1.3213  0.2990  1.4801
12164TIP3   OH257982   6.027   4.883   4.003 -0.2223  0.3464 -0.2920
12164TIP3    H157983   5.962   4.877   4.073 -0.1958  0.0405 -0.2923
12164TIP3    H257984   6.001   4.816   3.940  0.9090 -0.7769  0.3880
12165TIP3   OH257985   6.423   3.697  15.138  0.2586  0.1500 -0.2438
12165TIP3    H157986   6.436   3.769  15.200 -0.0069 -0.3773  0.4430
12165TIP3    H257987   6.511   3.660  15.125  0.3125  0.2470 -0.1531
12166TIP3   OH257988   1.269   2.800   3.492 -0.0077 -0.1174 -0.4028
12166TIP3    H157989   1.313   2.785   3.575  1.0533  2.2909 -0.4567
12166TIP3    H257990   1.176   2.787   3.511  0.3863 -1.7841  0.5660
12167TIP3   OH257991   5.052   4.647   3.087  0.0949  0.7454  0.6932
12167TIP3    H157992   5.105   4.721   3.057  1.3384 -0.1034  0.6958
12167TIP3    H257993   5.116   4.578   3.105 -1.0599 -0.4815  0.2511
12168TIP3   OH257994   1.791   6.839   2.152  0.3864 -0.1027  0.3275
12168TIP3    H157995   1.700   6.870   2.154  0.7839  1.1141  0.4210
12168TIP3    H257996   1.786   6.754   2.107 -0.7328  0.1519 -0.0768
12169TIP3   OH257997   0.037   1.930  12.064  0.2459  0.6655  0.2670
12169TIP3    H157998   0.082   1.993  12.119 -2.2197  1.5393  1.4448
12169TIP3    H257999  -0.014   1.877  12.125 -0.8163  0.1657 -0.9984
12170TIP3   OH258000   6.425   6.420   0.005 -0.1941 -0.1336 -0.0820
12170TIP3    H158001   6.460   6.451  -0.079 -1.3662  0.9963 -0.2009
12170TIP3    H258002   6.346   6.371  -0.019  0.6780 -1.7448  0.2358
12171TIP3   OH258003   2.942   5.055  14.832  0.1587 -0.5133 -0.1176
12171TIP3    H158004   2.875   5.086  14.892 -1.4629 -2.7674 -0.6076
12171TIP3    H258005   2.933   5.110  14.754  0.0409  0.2819  0.4507
12172TIP3   OH258006   1.528   5.840  15.257 -0.2436  0.3205 -0.3448
12172TIP3    H158007   1.476   5.879  15.327 -0.3633  2.3219 -1.4880
12172TIP3    H258008   1.496   5.880  15.177 -0.1390 -1.9504 -1.6087
12173TIP3   OH258009   6.691   1.267  11.396  0.9070  0.0505 -0.1973
12173TIP3    H158010   6.726   1.356  11.404 -0.6743  0.6109  1.0002
12173TIP3    H258011   6.723   1.236  11.311 -0.5237  2.7382 -1.8835
12174TIP3   OH258012   0.226   6.335   0.495 -0.4993 -0.7025  0.3626
12174TIP3    H158013   0.283   6.369   0.564 -1.8644 -0.7832  1.5827
12174TIP3    H258014   0.162   6.281   0.541 -1.6220 -0.5273 -0.9299
12175TIP3   OH258015   2.950   5.756   5.092  0.1589 -0.3667 -0.3610
12175TIP3    H158016   2.969   5.746   4.998  1.8412  1.4477 -0.2713
12175TIP3    H258017   3.032   5.787   5.130 -0.9572  0.5472  1.4372
12176TIP3   OH258018   5.918   4.769   2.501  0.0656  0.4706  0.3281
12176TIP3    H158019   5.944   4.815   2.421 -1.8362 -0.5680 -0.9792
12176TIP3    H258020   5.827   4.745   2.486  0.3777 -1.9611  1.7686
12177TIP3   OH258021   3.420   0.070   2.807 -0.6986  0.0048  0.4404
12177TIP3    H158022   3.500   0.103   2.847 -1.1368  0.4362  0.9770
12177TIP3    H258023   3.365   0.147   2.794 -0.7468 -0.1933 -0.5871
12178TIP3   OH258024   3.101   5.055  11.373  0.3960 -0.0901  0.1566
12178TIP3    H158025   3.193   5.037  11.352  0.5663  0.0908  0.7474
12178TIP3    H258026   3.102   5.144  11.408 -0.1694  0.3539 -0.9101
12179TIP3   OH258027   3.888   2.163   2.260  0.9977  0.2283 -0.6815
12179TIP3    H158028   3.818   2.157   2.195 -0.1455 -0.4455  0.5597
12179TIP3    H258029   3.953   2.221   2.220 -1.0472  2.3275 -1.1572
12180TIP3   OH258030   6.577   3.544  10.725  0.6876  0.2429  0.0134
12180TIP3    H158031   6.526   3.599  10.783  0.0502 -0.4989  0.1731
12180TIP3    H258032   6.636   3.604  10.680 -0.6115  1.1774 -0.4894
12181TIP3   OH258033   6.532   1.819   4.976  0.0173 -0.1417 -0.2159
12181TIP3    H158034   6.495   1.784   5.056 -0.4224 -0.7705 -0.6845
12181TIP3    H258035   6.552   1.911   4.997 -0.1570 -0.2779  0.5791
12182TIP3   OH258036   2.325   5.496   5.937  0.4739  0.2287  0.2072
12182TIP3    H158037   2.383   5.553   5.886  0.3155  0.5855  0.4261
12182TIP3    H258038   2.368   5.410   5.935  0.3565  0.1796 -0.7276
12183TIP3   OH258039   4.773   5.609  16.606 -0.0706  0.4246 -0.0583
12183TIP3    H158040   4.706   5.674  16.624 -1.3048 -1.0401  0.9073
12183TIP3    H258041   4.786   5.612  16.511 -0.5792  1.5908 -0.0997
12184TIP3   OH258042   4.111   6.713   4.301  0.4015 -0.0260  0.4882
12184TIP3    H158043   4.204   6.705   4.280  0.3674  1.3927 -0.2817
12184TIP3    H258044   4.066   6.707   4.217 -0.2393 -0.9146  0.8751
12185TIP3   OH258045   2.164   3.683   5.924  0.0142  0.4100  0.3097
12185TIP3    H158046   2.223   3.754   5.949  1.0064 -0.4902  0.5701
12185TIP3    H258047   2.116   3.718   5.849  0.2690  1.4607  0.6155
12186TIP3   OH258048   3.071   2.853  13.130 -0.3638 -0.5907  0.0820
12186TIP3    H158049   3.007   2.914  13.093  0.6804  0.2743 -0.3337
12186TIP3    H258050   3.132   2.909  13.179  2.6027 -0.7708 -3.0465
12187TIP3   OH258051   6.411   5.975   4.497  0.1838 -0.0909 -0.0731
12187TIP3    H158052   6.495   6.020   4.490 -0.2319  0.7572  0.3052
12187TIP3    H258053   6.431   5.884   4.474  1.0600  0.2464 -0.7067
12188TIP3   OH258054   0.463   0.865  15.396  0.4011 -0.1038 -0.6274
12188TIP3    H158055   0.516   0.823  15.464 -1.2521 -0.5016  0.5046
12188TIP3    H258056   0.425   0.942  15.440 -2.1748 -1.3762 -0.4129
12189TIP3   OH258057   4.801   4.712   1.710 -0.0719  0.0279  1.2077
12189TIP3    H158058   4.784   4.618   1.699  0.2503 -0.0572  1.4381
12189TIP3    H258059   4.787   4.728   1.804 -0.6924  0.3273  1.0741
12190TIP3   OH258060   1.785   2.556   5.083 -0.2802  0.2457 -0.0201
12190TIP3    H158061   1.772   2.645   5.050  0.6155  0.3401 -0.1367
12190TIP3    H258062   1.879   2.543   5.082 -0.3477 -0.4146  0.7840
12191TIP3   OH258063   5.570   3.154   2.071 -0.6129  0.4840 -0.2373
12191TIP3    H158064   5.540   3.176   2.159 -2.9152 -0.2501 -0.7735
12191TIP3    H258065   5.526   3.072   2.050  1.5726 -0.5009 -1.2915
12192TIP3   OH258066   5.273   3.583   3.367 -0.2809  0.2813  0.6845
12192TIP3    H158067   5.178   3.573   3.376 -0.1723 -1.8461 -0.1722
12192TIP3    H258068   5.308   3.553   3.451 -0.1472 -4.4287 -0.8059
12193TIP3   OH258069   6.452   5.158   2.093 -0.1489 -0.0329  0.2090
12193TIP3    H158070   6.363   5.165   2.127 -0.0289 -0.2520  0.5733
12193TIP3    H258071   6.505   5.212   2.151  0.0186 -0.2114  0.2230
12194TIP3   OH258072   1.085   0.892  14.088 -0.0564  0.6003  0.2073
12194TIP3    H158073   1.005   0.845  14.064  0.1175  0.4923 -0.1780
12194TIP3    H258074   1.063   0.938  14.168 -0.1945 -0.2260  0.6551
12195TIP3   OH258075   4.921   1.192  14.308 -0.7244  0.1810 -0.5975
12195TIP3    H158076   4.980   1.145  14.249  0.1985 -1.1470  1.2848
12195TIP3    H258077   4.835   1.152  14.292 -0.3982 -0.4792 -0.7251
12196TIP3   OH258078   4.104   5.955   0.911 -0.0496  0.1302  0.0122
12196TIP3    H158079   4.159   5.970   0.988  1.0856  0.3334 -0.8026
12196TIP3    H258080   4.031   6.017   0.921 -0.3589 -0.4224  1.3110
12197TIP3   OH258081   3.881   1.212   1.584 -0.4922 -0.3338  0.0436
12197TIP3    H158082   3.951   1.208   1.519 -3.7726  0.2290 -4.0108
12197TIP3    H258083   3.887   1.299   1.621  0.1775  0.2298 -1.3168
12198TIP3   OH258084   5.775   3.492  14.750  0.2718  0.2791  0.5695
12198TIP3    H158085   5.831   3.569  14.761  1.2518 -0.3851  0.2759
12198TIP3    H258086   5.821   3.421  14.794 -0.6628 -0.1420  0.9029
12199TIP3   OH258087   5.547   1.356  10.888  0.7054  0.0913 -0.0121
12199TIP3    H158088   5.478   1.414  10.921  0.5008 -0.3971  0.4360
12199TIP3    H258089   5.614   1.415  10.853  0.6369  0.6062  0.7085
12200TIP3   OH258090   0.913   4.062   0.938  0.4078 -0.0457 -0.2165
12200TIP3    H158091   0.950   4.118   0.870 -1.8777  0.1048 -1.4336
12200TIP3    H258092   0.822   4.049   0.912 -0.0201 -1.6451  1.7839
12201TIP3   OH258093   3.566   6.507  12.886  0.1349  0.2738 -0.0445
12201TIP3    H158094   3.538   6.478  12.800 -0.9660  0.7329  0.1444
12201TIP3    H258095   3.595   6.597  12.873 -0.6183  0.5545  0.1658
12202TIP3   OH258096   3.925   6.023  14.833 -0.6947 -0.4661  0.2921
12202TIP3    H158097   3.903   5.947  14.780 -1.6221 -0.5587  0.7839
12202TIP3    H258098   3.979   6.078  14.776 -0.9516 -0.9597 -0.4383
12203TIP3   OH258099   1.536   2.924   2.036 -0.3135  0.2003 -0.9795
12203TIP3    H158100   1.597   2.855   2.009  0.6473  0.8727 -0.5799
12203TIP3    H258101   1.466   2.878   2.083  1.2717 -0.3587  0.9654
12204TIP3   OH258102   0.885   2.054   0.470 -0.3815 -0.2255  0.0841
12204TIP3    H158103   0.916   2.123   0.410  0.1529 -0.1474  0.4399
12204TIP3    H258104   0.851   1.986   0.412  1.1541 -0.6460 -0.3823
12205TIP3   OH258105   4.719   0.137  14.697 -0.1693 -0.3534  0.2135
12205TIP3    H158106   4.788   0.077  14.725  0.2824 -0.3997 -0.9417
12205TIP3    H258107   4.648   0.081  14.665 -0.9868 -0.3203  1.8726
12206TIP3   OH258108   4.448   1.230   5.203  0.2560  0.1967 -0.3562
12206TIP3    H158109   4.414   1.281   5.130  2.8969  1.8271 -0.5678
12206TIP3    H258110   4.395   1.257   5.278 -1.9644 -0.9136 -1.4249
12207TIP3   OH258111   1.283   6.665   1.594 -0.6150  0.1480 -0.2294
12207TIP3    H158112   1.362   6.691   1.546 -1.3259  0.9958 -0.9696
12207TIP3    H258113   1.217   6.730   1.568 -1.7801 -1.0205 -0.2585
12208TIP3   OH258114   4.526   2.766  13.083 -0.0547 -0.0012  0.3007
12208TIP3    H158115   4.557   2.857  13.088 -0.0514  0.2146 -2.3739
12208TIP3    H258116   4.595   2.715  13.124  0.0510  1.1434  1.6434
12209TIP3   OH258117   5.423   3.550  12.381  0.2259 -0.5055 -0.5121
12209TIP3    H158118   5.513   3.524  12.404  0.3265 -1.2140 -1.6200
12209TIP3    H258119   5.368   3.488  12.429  0.3862 -0.8993 -0.8199
12210TIP3   OH258120   4.059   5.016  12.630 -0.2941 -0.0049  0.0636
12210TIP3    H158121   3.969   5.018  12.661 -0.4594 -3.9986  0.4356
12210TIP3    H258122   4.087   5.107  12.629 -4.0921  1.3260  0.5227
12211TIP3   OH258123   2.319   2.040  16.900 -0.6359  0.3053 -0.3225
12211TIP3    H158124   2.372   2.017  16.976  0.3846 -0.7544 -1.3179
12211TIP3    H258125   2.230   2.047  16.934 -0.2643 -0.5562  0.8896
12212TIP3   OH258126   2.816   4.855   3.801 -0.0733 -0.1870  0.3751
12212TIP3    H158127   2.729   4.818   3.816 -0.5434  1.0060  0.7364
12212TIP3    H258128   2.799   4.937   3.755  0.8055  0.4306  1.1173
12213TIP3   OH258129   0.426   4.458  13.229 -0.3795  0.2437 -0.0614
12213TIP3    H158130   0.411   4.510  13.151 -0.9665  1.1701  0.6474
12213TIP3    H258131   0.513   4.485  13.259 -0.4035  0.3295 -0.0683
12214TIP3   OH258132   6.246   0.638  16.117 -0.5733  0.0927  0.3966
12214TIP3    H158133   6.167   0.664  16.164  0.2394  1.5252  1.0403
12214TIP3    H258134   6.257   0.706  16.050 -0.0767 -0.2866  0.0872
12215TIP3   OH258135   3.165   1.549   6.340  0.4172 -0.0683  0.2818
12215TIP3    H158136   3.196   1.548   6.431  5.0137  3.2972 -0.8778
12215TIP3    H258137   3.115   1.630   6.334 -0.7711 -0.8032 -0.0468
12216TIP3   OH258138   6.394   5.062  16.776 -0.1372 -0.1111  0.1972
12216TIP3    H158139   6.331   4.997  16.745  0.7597 -2.2404  2.6117
12216TIP3    H258140   6.371   5.077  16.867 -0.8619  3.7751 -0.4153
12217TIP3   OH258141   0.515   1.839  15.514 -0.1800  0.2204  0.4491
12217TIP3    H158142   0.486   1.920  15.471  1.0270  0.9647  0.9833
12217TIP3    H258143   0.501   1.855  15.607 -0.1080 -0.2654  0.5427
12218TIP3   OH258144   4.361   4.765  13.225 -0.1378  0.1598  0.5216
12218TIP3    H158145   4.388   4.844  13.179  0.3512  0.7333  1.7249
12218TIP3    H258146   4.383   4.782  13.317 -1.7849 -0.6016  1.1128
12219TIP3   OH258147   2.821   6.406  11.409  0.4582  0.3758 -0.1301
12219TIP3    H158148   2.915   6.399  11.393  0.0442 -2.8362 -1.9861
12219TIP3    H258149   2.787   6.449  11.331 -0.1078 -3.7318 -2.4065
12220TIP3   OH258150   4.957   5.903   4.208 -0.8864  0.2453  0.3097
12220TIP3    H158151   4.930   5.910   4.299  0.0853  1.4468  0.5339
12220TIP3    H258152   4.894   5.957   4.160 -0.4804  0.8948  0.4910
12221TIP3   OH258153   1.125   0.026   2.659  0.0778 -0.7357 -0.4663
12221TIP3    H158154   1.192   0.054   2.597  0.0247 -1.6942 -0.9787
12221TIP3    H258155   1.046   0.073   2.631  0.9526  2.1265  1.4811
12222TIP3   OH258156   6.599   0.054  12.678 -0.0891 -0.2855 -0.2105
12222TIP3    H158157   6.606  -0.042  12.677  2.2380 -0.1819  0.1963
12222TIP3    H258158   6.635   0.082  12.595 -1.4002  0.2554 -0.6236
12223TIP3   OH258159   0.454   2.447  16.511  0.2899  0.1611  0.1241
12223TIP3    H158160   0.391   2.512  16.480  1.4510  2.1348  1.5645
12223TIP3    H258161   0.533   2.464  16.459 -0.4798 -2.8914 -2.3179
12224TIP3   OH258162   1.396   4.104   4.782  0.4738  0.7224 -0.1419
12224TIP3    H158163   1.386   4.172   4.716  1.3732  0.2677 -0.7652
12224TIP3    H258164   1.366   4.024   4.739 -0.6189  0.6980  0.6001
12225TIP3   OH258165   1.659   6.540   0.887  0.3771 -0.4246 -0.0095
12225TIP3    H158166   1.683   6.622   0.930  0.2353 -0.6099  0.4368
12225TIP3    H258167   1.672   6.473   0.955  0.2648 -0.7408 -0.2940
12226TIP3   OH258168   0.140   1.580   2.515  0.8132 -0.4447 -0.1345
12226TIP3    H158169   0.196   1.542   2.448  1.5902  0.3565  0.0425
12226TIP3    H258170   0.153   1.674   2.506 -1.9101 -0.0919 -1.3017
12227TIP3   OH258171   3.753   3.608  15.473  0.8701  0.4983  0.1111
12227TIP3    H158172   3.675   3.653  15.441 -0.9427 -0.2953  3.0476
12227TIP3    H258173   3.806   3.677  15.513  2.3095  1.1987 -2.6901
12228TIP3   OH258174   3.169   3.725  14.323 -0.2378 -0.1277 -0.0831
12228TIP3    H158175   3.188   3.648  14.268  0.0243 -1.7765  2.1723
12228TIP3    H258176   3.077   3.713  14.349 -0.3899  0.6875 -0.2102
12229TIP3   OH258177   2.757   6.433   5.730  0.0827  0.3318  0.3756
12229TIP3    H158178   2.670   6.469   5.750  0.8590  1.1722  2.4798
12229TIP3    H258179   2.781   6.383   5.808  1.3886 -0.1200 -0.2826
12230TIP3   OH258180   2.151   3.603   3.543 -0.9039 -0.6124  0.0693
12230TIP3    H158181   2.118   3.513   3.536 -1.2557 -0.5825  1.0809
12230TIP3    H258182   2.082   3.657   3.505 -1.1219 -0.7097  0.3186
12231TIP3   OH258183   4.406   0.009  13.924  0.4131  0.0903  0.4461
12231TIP3    H158184   4.411  -0.087  13.926 -0.0365  0.0104 -0.9835
12231TIP3    H258185   4.347   0.028  13.851 -0.8705  1.4265  1.7562
12232TIP3   OH258186   2.611   1.434   4.617 -0.7852  0.8375  0.4908
12232TIP3    H158187   2.699   1.397   4.627 -1.2035 -0.0787  0.8792
12232TIP3    H258188   2.620   1.500   4.549 -0.3089 -0.9624 -1.2768
12233TIP3   OH258189   6.256   3.646   4.365 -0.5057  0.1076 -0.3877
12233TIP3    H158190   6.254   3.741   4.352 -0.2916  0.1868  0.1268
12233TIP3    H258191   6.343   3.620   4.334  0.3359  0.4169  1.5927
12234TIP3   OH258192   4.174   4.945  11.160  0.5674 -0.2633  0.2827
12234TIP3    H158193   4.250   4.925  11.214  0.6824 -0.4297  0.0627
12234TIP3    H258194   4.206   5.011  11.098  0.1140  0.8467  1.1917
12235TIP3   OH258195   3.434   6.484   0.772 -0.0290 -0.3972  0.6973
12235TIP3    H158196   3.432   6.573   0.738 -1.4507 -1.1158 -1.3312
12235TIP3    H258197   3.490   6.488   0.849  1.1751  1.9336 -0.2128
12236TIP3   OH258198   3.139   5.342  16.909 -0.3724 -0.5533 -0.6809
12236TIP3    H158199   3.222   5.325  16.952 -1.3751 -0.6867  1.3217
12236TIP3    H258200   3.160   5.407  16.841  1.2953 -0.3726 -0.0352
12237TIP3   OH258201   0.748   2.389  11.424  0.1248 -0.8397  0.0629
12237TIP3    H158202   0.780   2.348  11.343  0.0683 -0.1235 -0.3383
12237TIP3    H258203   0.822   2.441  11.455  0.1333 -1.0829  0.4587
12238TIP3   OH258204   2.452   1.481  15.485 -0.1094 -0.4992 -0.1012
12238TIP3    H158205   2.404   1.424  15.425 -2.7105  0.2144  1.1458
12238TIP3    H258206   2.432   1.446  15.572  0.2566  0.8500  0.5510
12239TIP3   OH258207   2.084   6.675  15.451 -0.1740 -0.0911 -0.2655
12239TIP3    H158208   2.078   6.725  15.369 -0.1231 -1.1029 -0.8964
12239TIP3    H258209   2.009   6.706  15.503 -0.1482  0.6347 -0.6473
12240TIP3   OH258210   3.081   5.494  13.860  0.7366 -0.4679 -0.3082
12240TIP3    H158211   3.052   5.515  13.949 -0.6026 -1.0012 -0.5910
12240TIP3    H258212   3.116   5.576  13.826 -2.2333  0.8144 -0.5871
12241TIP3   OH258213   0.180   4.974   0.161 -0.1305  0.1757  0.1506
12241TIP3    H158214   0.165   4.904   0.225 -0.3276  0.4168  0.3714
12241TIP3    H258215   0.272   4.964   0.134  0.1345  0.4421  0.9277
12242TIP3   OH258216   6.206   3.922  12.072  0.1544 -0.2073 -0.2466
12242TIP3    H158217   6.261   3.878  12.007 -0.2633 -0.0064 -0.7370
12242TIP3    H258218   6.227   3.877  12.154 -0.2504 -1.3198 -0.7288
12243TIP3   OH258219   0.227   1.263   2.443  0.3471  0.1569  0.0058
12243TIP3    H158220   0.156   1.304   2.492  0.6771  0.6298  0.0940
12243TIP3    H258221   0.190   1.245   2.356  0.2287  0.7189 -0.0606
12244TIP3   OH258222   6.802   3.770  12.606 -0.0901 -0.3845 -0.0321
12244TIP3    H158223   6.797   3.695  12.665  1.7012  0.1240  0.8345
12244TIP3    H258224   6.780   3.845  12.660  1.5401  0.0832  0.0121
12245TIP3   OH258225   4.845   0.998   4.983 -0.4917  0.4113  0.2201
12245TIP3    H158226   4.798   0.938   4.925 -1.1954  0.6879  0.4965
12245TIP3    H258227   4.815   1.085   4.957  0.2165  0.6247  0.0959
12246TIP3   OH258228   5.353   5.216   3.628  0.4498 -0.2827 -0.3701
12246TIP3    H158229   5.367   5.147   3.692  0.8699 -0.0377 -0.1971
12246TIP3    H258230   5.422   5.204   3.563  0.7198  0.1661 -0.1714
12247TIP3   OH258231   4.059   2.487   2.553 -0.7154 -0.7481 -0.0550
12247TIP3    H158232   4.027   2.572   2.583 -0.0279 -0.4874 -0.0562
12247TIP3    H258233   3.979   2.434   2.545 -1.0705 -0.3668  0.7529
12248TIP3   OH258234   3.373   6.530  13.659  0.3415 -0.2492  0.3970
12248TIP3    H158235   3.308   6.586  13.700 -0.4433 -1.1478  0.4073
12248TIP3    H258236   3.340   6.515  13.570  0.3773 -0.9355  0.4926
12249TIP3   OH258237   4.564   3.334  10.653  0.1820 -0.1287 -0.0172
12249TIP3    H158238   4.555   3.239  10.651  2.1454 -0.4936  2.8148
12249TIP3    H258239   4.490   3.364  10.707 -0.5775  0.0012 -1.1146
12250TIP3   OH258240   2.248   0.280  13.890 -0.0399 -0.0075 -0.4237
12250TIP3    H158241   2.202   0.196  13.892  1.0440 -0.6365 -0.6206
12250TIP3    H258242   2.341   0.256  13.884  0.3119  1.2073 -0.1813
12251TIP3   OH258243   1.293   0.196  14.361 -0.0213  0.0609 -0.1649
12251TIP3    H158244   1.342   0.229  14.437  0.4551  0.0027 -0.4447
12251TIP3    H258245   1.274   0.275  14.310  0.5248 -0.0127 -0.4873
12252TIP3   OH258246   5.468   2.663   0.774  0.8773  0.0508 -0.6906
12252TIP3    H158247   5.429   2.576   0.772  0.4594  0.2483 -1.9375
12252TIP3    H258248   5.393   2.723   0.780  1.1639  0.3379  0.3003
12253TIP3   OH258249   0.064   1.493   4.302  0.1901 -0.4641  0.1255
12253TIP3    H158250  -0.026   1.515   4.323  0.2710  0.6593 -0.5981
12253TIP3    H258251   0.117   1.560   4.347  0.4030  1.5014 -2.7293
12254TIP3   OH258252   4.431   5.709   2.623  0.2032 -0.8747  0.0207
12254TIP3    H158253   4.428   5.779   2.689 -1.6718 -0.2130 -0.6953
12254TIP3    H258254   4.477   5.748   2.549 -0.1476 -0.6615 -0.0869
12255TIP3   OH258255   0.775   6.254   2.925  0.0309 -0.1535  0.0435
12255TIP3    H158256   0.703   6.313   2.949  1.1592  1.4248 -0.3187
12255TIP3    H258257   0.761   6.235   2.832  0.1822  0.3027 -0.0727
12256TIP3   OH258258   1.984   5.185   0.170 -0.0358  0.4078  0.3031
12256TIP3    H158259   1.979   5.267   0.120 -1.4279  0.5047  0.5765
12256TIP3    H258260   2.042   5.130   0.118  0.4729  1.3609 -0.1790
12257TIP3   OH258261   1.888   4.054  10.757  0.6448  0.2674 -0.3341
12257TIP3    H158262   1.948   3.988  10.723  1.4691  1.6333 -1.6600
12257TIP3    H258263   1.810   4.047  10.702  1.0011  0.8281 -0.9231
12258TIP3   OH258264   1.418   5.596  12.046 -0.3399  0.4857 -0.4509
12258TIP3    H158265   1.326   5.599  12.074 -0.8102  0.7325 -1.9266
12258TIP3    H258266   1.414   5.562  11.957  1.0042  0.6889 -0.6007
12259TIP3   OH258267   5.454   6.480  12.999  0.2882  0.6582  0.3825
12259TIP3    H158268   5.382   6.542  13.008 -0.7046 -0.3829 -0.0938
12259TIP3    H258269   5.509   6.517  12.930 -0.4958  0.8396 -0.1649
12260TIP3   OH258270   1.956   1.623  16.615  0.6724  0.3371 -0.0361
12260TIP3    H158271   2.048   1.598  16.613  0.8139  0.8700 -1.2303
12260TIP3    H258272   1.928   1.607  16.705  1.7088 -0.6043  0.1326
12261TIP3   OH258273   2.114   0.539  16.239  0.5084  0.1145  0.0857
12261TIP3    H158274   2.031   0.513  16.280  1.4034 -0.4560  1.6133
12261TIP3    H258275   2.170   0.461  16.247  1.4613  0.7529 -0.1749
12262TIP3   OH258276   2.753   3.816  17.005 -0.0485 -0.0082 -0.0656
12262TIP3    H158277   2.818   3.748  17.019  1.0090  1.2196  1.2157
12262TIP3    H258278   2.671   3.778  17.038  0.3868 -0.8834  0.0320
12263TIP3   OH258279   5.487   6.257  16.442 -0.2695 -0.1032  0.8614
12263TIP3    H158280   5.426   6.330  16.434  0.0071  0.1026  0.6276
12263TIP3    H258281   5.570   6.297  16.466  0.2271 -0.1939 -0.6166
12264TIP3   OH258282   6.572   0.411   1.010 -0.7232 -0.8410 -0.3006
12264TIP3    H158283   6.534   0.341   1.063 -0.3631 -1.1483 -0.4418
12264TIP3    H258284   6.606   0.366   0.933  0.1371 -0.6021 -0.0677
12265TIP3   OH258285   5.497   0.140   4.607  0.3189 -0.1412 -0.3401
12265TIP3    H158286   5.404   0.130   4.585  0.0520 -1.2945  1.1660
12265TIP3    H258287   5.532   0.050   4.607  1.0690  0.1351  0.5819
12266TIP3   OH258288   6.681   0.377  15.495  0.5005  0.5614  0.4722
12266TIP3    H158289   6.596   0.340  15.471  1.9126 -2.7700  0.0845
12266TIP3    H258290   6.713   0.419  15.415  0.4657 -0.7685 -0.2548
12267TIP3   OH258291   0.967   6.247   0.050  0.1252  0.3453 -0.1519
12267TIP3    H158292   1.029   6.262   0.122 -0.3019 -0.0495  0.2999
12267TIP3    H258293   0.997   6.306  -0.020 -0.0810  1.5351  0.7277
12268TIP3   OH258294   1.262   2.776  11.206  0.1566 -0.8079 -0.4312
12268TIP3    H158295   1.356   2.762  11.198  0.1971 -3.4036  2.7564
12268TIP3    H258296   1.252   2.872  11.205  2.7619 -0.4781 -1.0795
12269TIP3   OH258297   3.962   5.380   6.345 -0.5389  0.4146 -0.1757
12269TIP3    H158298   3.984   5.304   6.399  0.1836  0.6523 -0.1300
12269TIP3    H258299   4.028   5.445   6.367 -2.1922  1.7220  1.1249
12270TIP3   OH258300   4.730   1.183   1.941 -0.3541  0.4058 -0.3179
12270TIP3    H158301   4.716   1.270   1.978  1.5481  0.4909  0.3043
12270TIP3    H258302   4.661   1.129   1.979  0.9688  0.6956  2.7890
12271TIP3   OH258303   0.732   1.985  15.662  0.0508  0.0868  0.1535
12271TIP3    H158304   0.687   1.999  15.746 -2.3602  0.1254 -1.0460
12271TIP3    H258305   0.681   2.035  15.599  1.7317 -0.0443 -1.3889
12272TIP3   OH258306   2.107   2.780  12.224 -0.8080  0.7897 -0.0662
12272TIP3    H158307   2.141   2.693  12.207 -2.3098  0.4100 -1.3087
12272TIP3    H258308   2.038   2.767  12.289  0.6107  1.4233  1.6669
12273TIP3   OH258309   0.701   0.827   5.803 -0.8617 -0.6060  0.3120
12273TIP3    H158310   0.657   0.847   5.886  1.8591  1.3957  1.4503
12273TIP3    H258311   0.664   0.889   5.740 -0.6348  0.1598  0.9155
12274TIP3   OH258312   4.196   2.948   1.021  0.2503 -0.0837 -0.5552
12274TIP3    H158313   4.124   2.976   1.078 -0.2289 -0.5837 -0.8975
12274TIP3    H258314   4.152   2.923   0.939  0.8133 -0.4242 -0.7559
12275TIP3   OH258315   6.313   0.358   0.795  0.0184 -0.0886 -0.2249
12275TIP3    H158316   6.401   0.396   0.784  0.9754 -1.9037  0.6519
12275TIP3    H258317   6.328   0.263   0.799 -2.0443 -0.4743 -0.4546
12276TIP3   OH258318   2.464   2.510  13.927  0.2743 -0.5933  0.8318
12276TIP3    H158319   2.450   2.491  13.834  0.2696  0.7928  0.5401
12276TIP3    H258320   2.378   2.535  13.959 -0.1960 -3.0674  1.7461
12277TIP3   OH258321   4.979   3.259   5.190 -0.3315  0.1549  0.0782
12277TIP3    H158322   4.985   3.178   5.139  1.5020 -0.8436  1.7470
12277TIP3    H258323   4.885   3.278   5.194 -0.6624 -0.8698 -1.8403
12278TIP3   OH258324   2.991   4.359   1.550  0.6870 -0.1733 -0.2202
12278TIP3    H158325   2.992   4.277   1.599  0.7726  0.9637  1.8450
12278TIP3    H258326   2.906   4.399   1.572  1.4951  1.2145  0.5878
12279TIP3   OH258327   5.471   1.351   3.029  0.0893 -0.3781 -0.1145
12279TIP3    H158328   5.507   1.321   3.112 -0.0477  0.9241  0.4454
12279TIP3    H258329   5.496   1.443   3.024 -2.6429  0.4596  0.0399
12280TIP3   OH258330   6.279   2.893   1.095  0.1247  0.1784  0.2314
12280TIP3    H158331   6.232   2.885   1.178 -0.7111  0.3477 -0.2169
12280TIP3    H258332   6.338   2.818   1.094  0.2256  0.2366  1.0289
12281TIP3   OH258333   5.861   4.696  15.449 -0.4547  0.4037 -0.0291
12281TIP3    H158334   5.932   4.760  15.441 -0.0295 -0.0966 -0.4008
12281TIP3    H258335   5.851   4.661  15.360  1.7772 -2.6027  0.7373
12282TIP3   OH258336   2.749   6.248   4.410  0.8828  0.2731  0.3876
12282TIP3    H158337   2.803   6.175   4.439 -1.4181 -1.5078  0.4988
12282TIP3    H258338   2.738   6.234   4.316  0.0292  0.1633  0.4937
12283TIP3   OH258339   4.844   4.547   1.064  0.4858 -0.3139  0.1851
12283TIP3    H158340   4.911   4.579   1.126  1.5010 -0.8203 -0.6238
12283TIP3    H258341   4.867   4.456   1.049 -0.3796 -0.4822 -0.1377
12284TIP3   OH258342   0.391   0.483  15.704 -0.5961 -0.3638 -0.4877
12284TIP3    H158343   0.386   0.462  15.611 -0.4315 -2.0215 -0.1519
12284TIP3    H258344   0.324   0.551  15.717  0.6595  1.2683 -2.1393
12285TIP3   OH258345   0.355   6.576   5.786 -0.0974 -0.4091  0.4703
12285TIP3    H158346   0.349   6.511   5.856 -1.0662 -0.2759  0.5127
12285TIP3    H258347   0.269   6.576   5.745 -0.3139  1.3061  0.8640
12286TIP3   OH258348   2.601   3.621   2.184 -0.3330  0.6268 -0.0513
12286TIP3    H158349   2.567   3.633   2.273 -1.3216 -1.9425  0.0098
12286TIP3    H258350   2.536   3.565   2.141  1.1277  0.1341 -1.7386
12287TIP3   OH258351   4.337   6.039   5.504 -0.1320 -0.1424 -0.3813
12287TIP3    H158352   4.308   5.967   5.560 -0.0337 -0.0158 -0.1650
12287TIP3    H258353   4.257   6.085   5.480 -0.4925 -1.7291 -2.5093
12288TIP3   OH258354   4.894   3.479   1.842 -0.1854  0.3946  0.2159
12288TIP3    H158355   4.919   3.455   1.753 -2.0038  2.0564 -0.8124
12288TIP3    H258356   4.877   3.573   1.838  0.1510  0.6094  2.4497
12289TIP3   OH258357   2.036   5.432   1.927  0.1179  0.6082  0.5508
12289TIP3    H158358   1.964   5.418   1.866  0.9323  2.9939 -1.0890
12289TIP3    H258359   2.017   5.374   2.000 -1.8434 -1.0607 -1.1679
12290TIP3   OH258360   1.017   2.170   3.110  0.7505 -0.0451 -0.1523
12290TIP3    H158361   1.029   2.197   3.019 -0.3331  1.4893  0.1146
12290TIP3    H258362   1.075   2.094   3.121  0.1876 -0.8731 -2.3702
12291TIP3   OH258363   0.991   2.140  11.429 -0.3694  0.5827  0.5188
12291TIP3    H158364   1.040   2.110  11.505  0.6495  0.2977 -0.2288
12291TIP3    H258365   1.034   2.098  11.354 -1.6370  0.4843 -0.1829
12292TIP3   OH258366   0.595   5.268  15.873 -0.1980  0.0727  0.1013
12292TIP3    H158367   0.670   5.327  15.880 -0.4209  0.5246 -1.1351
12292TIP3    H258368   0.522   5.316  15.912  0.3800 -0.8991  2.5981
12293TIP3   OH258369   3.441   0.761   4.935 -0.0293  0.7278 -0.3896
12293TIP3    H158370   3.365   0.815   4.958 -0.2388  0.7040 -0.9981
12293TIP3    H258371   3.493   0.758   5.015 -1.4107 -0.5036  0.5216
12294TIP3   OH258372   3.008   0.441   1.700 -0.0364  0.1190 -0.4045
12294TIP3    H158373   3.100   0.452   1.676  0.1690 -1.2467 -0.3203
12294TIP3    H258374   2.972   0.529   1.697  1.3585  0.7267 -0.0934
12295TIP3   OH258375   1.787   4.917   0.706  0.3153 -0.1809  1.0272
12295TIP3    H158376   1.778   4.999   0.756  1.1449  0.2521  0.4855
12295TIP3    H258377   1.726   4.857   0.749  1.6790 -0.1343  3.2270
12296TIP3   OH258378   2.313   6.069  13.782 -0.1195 -0.2788  0.2183
12296TIP3    H158379   2.226   6.063  13.821 -1.5258 -0.3233 -2.6867
12296TIP3    H258380   2.316   6.155  13.742  0.5427 -0.8646 -1.0537
12297TIP3   OH258381   1.845   0.008   3.872 -0.0218  0.1025 -0.3320
12297TIP3    H158382   1.936   0.032   3.884 -0.9668  3.6009  0.9182
12297TIP3    H258383   1.838  -0.013   3.778  2.4022 -2.5967 -0.0395
12298TIP3   OH258384   4.217   0.689  15.487 -0.6665  0.5109 -0.2389
12298TIP3    H158385   4.180   0.602  15.500  1.1746 -0.6849 -2.3037
12298TIP3    H258386   4.225   0.725  15.575 -0.6841 -1.7505  0.7514
12299TIP3   OH258387   5.108   4.281   1.811  0.9455  0.0785  0.3601
12299TIP3    H158388   5.099   4.322   1.725 -2.9359 -1.3308 -0.0736
12299TIP3    H258389   5.192   4.235   1.806 -0.1451 -1.9617 -3.7202
12300TIP3   OH258390   1.482   1.121  12.276  0.3456  0.3418  0.1065
12300TIP3    H158391   1.494   1.027  12.263  1.4575  0.3943  0.6181
12300TIP3    H258392   1.567   1.152  12.307  0.9492  2.0302 -2.8127
12301TIP3   OH258393   2.976   3.427  11.238 -0.3478 -0.5029 -0.0206
12301TIP3    H158394   2.965   3.406  11.331 -0.8638 -0.3307 -0.0411
12301TIP3    H258395   2.890   3.414  11.200 -0.2990  0.0830 -0.3463
12302TIP3   OH258396   6.397   1.915   0.467  0.1033 -0.2644  0.3658
12302TIP3    H158397   6.438   1.987   0.420  1.3349 -1.4944 -0.5177
12302TIP3    H258398   6.397   1.943   0.559 -0.4719  1.2992 -0.0718
12303TIP3   OH258399   6.405   5.052  12.220  0.7036 -0.3789 -0.0115
12303TIP3    H158400   6.464   4.993  12.174  1.3139 -0.6086  1.0351
12303TIP3    H258401   6.380   5.117  12.154 -0.7488 -2.2893 -1.4713
12304TIP3   OH258402   3.123   1.322   4.256 -0.4287 -0.3853  0.1992
12304TIP3    H158403   3.145   1.318   4.349 -2.0428  0.6012  0.6764
12304TIP3    H258404   3.028   1.316   4.254 -0.5670  1.3125 -1.2249
12305TIP3   OH258405   2.838   1.439  11.715  0.1987  0.1163  0.8719
12305TIP3    H158406   2.927   1.472  11.705  0.0163  0.2152 -0.8482
12305TIP3    H258407   2.783   1.506  11.676 -0.5588 -0.3072  1.1846
12306TIP3   OH258408   0.883   4.936   6.523 -0.6771  0.2298  0.0659
12306TIP3    H158409   0.898   4.847   6.490 -1.0650  0.9786 -2.3543
12306TIP3    H258410   0.959   4.955   6.577 -0.1764 -1.2650 -0.0635
12307TIP3   OH258411   1.063   1.870   2.136  0.2251 -0.1249 -0.1470
12307TIP3    H158412   1.070   1.799   2.199  0.5296 -0.1093 -0.1632
12307TIP3    H258413   1.151   1.882   2.103  0.3363  0.7883  0.4331
12308TIP3   OH258414   4.659   5.733  13.768 -0.2845  0.4179 -0.1874
12308TIP3    H158415   4.618   5.734  13.681 -0.8695  0.9396  0.0925
12308TIP3    H258416   4.632   5.815  13.809  0.6928  0.5682  0.1715
12309TIP3   OH258417   5.171   1.124  13.795  0.0866  0.0049 -0.0205
12309TIP3    H158418   5.208   1.204  13.833 -1.3453 -0.1184  1.8308
12309TIP3    H258419   5.222   1.053  13.835  0.8897 -0.0559 -1.1147
12310TIP3   OH258420   6.037   6.221  15.442 -0.3046 -0.5647 -0.1436
12310TIP3    H158421   6.097   6.230  15.368  1.7399  1.9813  1.6098
12310TIP3    H258422   6.009   6.311  15.461 -3.2228 -1.4771  0.3357
12311TIP3   OH258423   2.871   2.138   3.055 -0.2213  0.1941  0.5668
12311TIP3    H158424   2.948   2.082   3.065  0.2195  0.8363  0.8251
12311TIP3    H258425   2.830   2.108   2.974 -0.1861 -0.7330  0.8827
12312TIP3   OH258426   4.303   4.754   4.802  0.0456  0.3291  1.0516
12312TIP3    H158427   4.243   4.687   4.768 -1.9083  2.3323  0.2314
12312TIP3    H258428   4.385   4.708   4.817 -1.4048 -2.3861  1.2881
12313TIP3   OH258429   5.086   0.585  11.922  0.1490 -0.2752 -0.1233
12313TIP3    H158430   5.060   0.674  11.898 -0.9933 -0.6230 -0.2351
12313TIP3    H258431   5.182   0.587  11.922  0.1313  1.0332  0.2057
12314TIP3   OH258432   4.016   6.083  14.215  0.2630  0.1930  0.2017
12314TIP3    H158433   4.087   6.038  14.169  0.1601  0.8873 -0.6662
12314TIP3    H258434   3.948   6.095  14.150 -0.3589  0.1990  0.8362
12315TIP3   OH258435   3.012   2.019  12.328 -0.2735  0.0508  0.4194
12315TIP3    H158436   3.014   1.933  12.369 -1.7601  0.3376  1.1955
12315TIP3    H258437   3.070   2.073  12.382  0.9815 -0.5383 -0.3126
12316TIP3   OH258438   4.646   3.789   5.383 -0.5827  0.0571 -0.3970
12316TIP3    H158439   4.603   3.858   5.433  0.7304  2.2348 -2.1028
12316TIP3    H258440   4.617   3.802   5.293  0.6481 -0.8288 -0.9621
12317TIP3   OH258441   0.029   4.319  13.359 -0.2482  0.3349 -0.2976
12317TIP3    H158442  -0.028   4.271  13.419 -0.0342  0.7530  0.2605
12317TIP3    H258443   0.064   4.253  13.300 -0.8563 -0.0132 -0.2777
12318TIP3   OH258444   3.647   0.388   4.716  0.2712 -0.2828 -0.6205
12318TIP3    H158445   3.739   0.402   4.695  0.3235 -0.3599 -0.4442
12318TIP3    H258446   3.648   0.341   4.799  0.0825 -0.6795 -0.8402
12319TIP3   OH258447   2.174   4.580   5.547  0.5883  0.2268  0.3044
12319TIP3    H158448   2.114   4.506   5.556  3.1434 -2.1329 -0.5797
12319TIP3    H258449   2.168   4.605   5.455  0.4616  0.4408  0.3707
12320TIP3   OH258450   5.981   4.366  16.435 -0.1265  0.7062  0.3544
12320TIP3    H158451   6.076   4.366  16.424  0.1561  1.2835  2.4092
12320TIP3    H258452   5.951   4.443  16.388  0.5369  1.0737  0.5218
12321TIP3   OH258453   5.941   0.170  11.325  0.1486  0.7435 -0.5012
12321TIP3    H158454   5.870   0.121  11.366 -0.5955  1.1165 -1.3083
12321TIP3    H258455   5.905   0.258  11.313  0.5200  0.7740 -1.4878
12322TIP3   OH258456   1.900   3.793  14.773 -0.0316  0.3457 -0.8317
12322TIP3    H158457   1.839   3.742  14.827  0.2934 -0.2432 -1.0160
12322TIP3    H258458   1.881   3.884  14.795  1.7311  0.1157  2.1144
12323TIP3   OH258459   1.873   3.884  12.245 -0.4037  0.3279 -0.0089
12323TIP3    H158460   1.906   3.973  12.253  1.4760 -0.3916  0.7958
12323TIP3    H258461   1.949   3.828  12.262 -1.5652 -1.4355 -0.3211
12324TIP3   OH258462   0.095   6.210  13.029 -0.6381 -0.0719 -0.8642
12324TIP3    H158463   0.046   6.208  13.111  0.3744  0.7264 -0.2121
12324TIP3    H258464   0.040   6.163  12.967 -1.5637 -0.4325  0.1956
12325TIP3   OH258465   0.696   2.305   0.916 -0.2997 -0.4851 -0.4308
12325TIP3    H158466   0.700   2.370   0.845 -0.9650 -0.2617 -0.2697
12325TIP3    H258467   0.650   2.350   0.986  0.2624 -0.7418  0.1136
12326TIP3   OH258468   2.774   0.437  16.745 -0.3316  0.0250  0.0408
12326TIP3    H158469   2.849   0.492  16.725  0.1051 -1.3860 -2.6590
12326TIP3    H258470   2.791   0.405  16.833  2.2355 -0.1996 -0.4564
12327TIP3   OH258471   0.062   0.298   1.348 -0.0477  0.0560 -0.5954
12327TIP3    H158472   0.039   0.298   1.255 -0.4443  0.4570 -0.5056
12327TIP3    H258473   0.053   0.207   1.375 -1.3253  0.1402 -0.6371
12328TIP3   OH258474   4.107   1.769  15.450 -0.0398 -0.2428 -0.5974
12328TIP3    H158475   4.054   1.748  15.526  0.0472  1.6900  0.0661
12328TIP3    H258476   4.181   1.819  15.485  1.0389 -0.9302 -1.7535
12329TIP3   OH258477   5.695   4.538  16.727 -0.4115 -0.1581  0.1552
12329TIP3    H158478   5.657   4.537  16.640 -0.6779 -1.0261  0.2806
12329TIP3    H258479   5.772   4.482  16.721  0.1697  0.6069  0.2228
12330TIP3   OH258480   6.588   0.620   0.586 -0.3488 -0.5380 -0.8434
12330TIP3    H158481   6.623   0.637   0.499 -1.9665 -0.1668 -1.4445
12330TIP3    H258482   6.520   0.554   0.573 -0.2172 -0.9037  0.2177
12331TIP3   OH258483   4.895   2.964   1.223  0.0311  0.4558 -0.8166
12331TIP3    H158484   4.872   2.951   1.315 -0.4375 -0.3694 -1.0380
12331TIP3    H258485   4.837   3.035   1.194 -0.6981 -0.1088 -0.7842
12332TIP3   OH258486   0.328   0.511  14.131 -0.0874  0.0004 -0.6497
12332TIP3    H158487   0.296   0.600  14.115  1.6108  1.0337  1.2780
12332TIP3    H258488   0.423   0.518  14.127  0.0858 -1.9753 -1.4263
12333TIP3   OH258489   0.483   2.512   3.146  0.2784 -0.2593 -0.0086
12333TIP3    H158490   0.455   2.549   3.230  0.6601 -0.1424  0.0708
12333TIP3    H258491   0.478   2.585   3.084 -0.1871 -0.3927 -0.1327
12334TIP3   OH258492   4.899   0.640   5.269 -0.3055  0.1032  0.2063
12334TIP3    H158493   4.965   0.621   5.336 -0.5140  0.4181  0.5062
12334TIP3    H258494   4.897   0.736   5.264  2.0148  0.1380 -2.5398
12335TIP3   OH258495   2.718   5.066  13.699 -0.5266  0.2924  0.1217
12335TIP3    H158496   2.645   5.093  13.755 -1.2496 -2.6356  0.7132
12335TIP3    H258497   2.796   5.091  13.749 -1.1492  0.0733  1.2273
12336TIP3   OH258498   2.369   0.184   2.015 -0.1786 -0.7706 -0.0342
12336TIP3    H158499   2.393   0.220   1.930 -1.3915 -0.6011 -0.3215
12336TIP3    H258500   2.278   0.211   2.028  0.5915  1.1145  2.3231
12337TIP3   OH258501   0.215   2.727   6.184 -0.1375  0.0007  0.3983
12337TIP3    H158502   0.132   2.713   6.139  0.0829  1.2044 -0.4373
12337TIP3    H258503   0.210   2.817   6.215  0.9279  0.1621  0.1498
12338TIP3   OH258504   1.309   1.753  13.212  0.1534  0.1100 -0.1658
12338TIP3    H158505   1.311   1.721  13.303  1.4097 -0.4956 -0.3816
12338TIP3    H258506   1.375   1.822  13.210 -0.5390  0.7839 -0.4072
12339TIP3   OH258507   0.500   0.917  10.975 -0.0898 -0.1458 -0.0264
12339TIP3    H158508   0.432   0.896  10.912  0.8856 -4.1554 -0.0038
12339TIP3    H258509   0.582   0.897  10.930  0.8973  0.9238  1.1929
12340TIP3   OH258510   4.316   1.635   2.462 -0.5967 -0.1304  0.3178
12340TIP3    H158511   4.316   1.643   2.557  0.3150 -1.3304  0.4417
12340TIP3    H258512   4.228   1.608   2.439 -0.0401 -2.9316  1.1550
12341TIP3   OH258513   1.521   3.401  14.890  0.1847  0.0187  0.5309
12341TIP3    H158514   1.523   3.358  14.805 -2.0151 -2.4758  1.5962
12341TIP3    H258515   1.518   3.495  14.870  0.2123 -0.4716 -2.0819
12342TIP3   OH258516   2.516   0.797   0.887 -0.4417 -0.2481  0.5942
12342TIP3    H158517   2.471   0.758   0.812 -0.8330  0.8995  0.1988
12342TIP3    H258518   2.501   0.891   0.877  2.2525  0.2376  0.3015
12343TIP3   OH258519   5.871   2.372  11.795 -0.3971  0.3425  0.1146
12343TIP3    H158520   5.832   2.352  11.880 -0.0773  0.3405  0.2633
12343TIP3    H258521   5.797   2.398  11.740 -0.6582 -0.0192  0.2852
12344TIP3   OH258522   6.363   2.262  15.815  0.0856 -0.3390  0.0592
12344TIP3    H158523   6.340   2.317  15.890  0.2255 -0.6929  0.3615
12344TIP3    H258524   6.433   2.311  15.771 -0.3055  0.0852 -0.1002
12345TIP3   OH258525   1.906   5.422  11.197 -0.5646  0.2265 -0.4764
12345TIP3    H158526   1.840   5.354  11.193 -2.0904  1.4015  2.1594
12345TIP3    H258527   1.870   5.495  11.147 -0.3538  0.2006 -0.6714
12346TIP3   OH258528   3.714   3.422   5.973 -0.3376  0.4666  0.4270
12346TIP3    H158529   3.724   3.448   6.064 -0.3205  0.6078  0.3848
12346TIP3    H258530   3.794   3.374   5.952 -0.1322  0.8417  0.3470
12347TIP3   OH258531   3.230   3.073   2.863 -0.2407 -0.0804  0.4972
12347TIP3    H158532   3.224   3.169   2.859 -2.5784 -0.1818  0.0655
12347TIP3    H258533   3.304   3.051   2.807  0.9785  1.4978  1.3980
12348TIP3   OH258534   3.290   5.333  11.877 -0.4263  0.3113 -0.1712
12348TIP3    H158535   3.262   5.406  11.933 -0.9973 -0.0275 -0.0121
12348TIP3    H258536   3.383   5.322  11.897 -0.8432 -0.4910  1.4942
12349TIP3   OH258537   3.430   0.004   5.606  0.3720  0.0252 -0.2497
12349TIP3    H158538   3.500   0.040   5.660  1.2141 -0.1546 -1.1845
12349TIP3    H258539   3.392  -0.066   5.659  2.2997 -1.2900 -0.5031
12350TIP3   OH258540   2.938   6.365   0.766  0.0012  0.2979  0.4084
12350TIP3    H158541   2.983   6.448   0.780 -0.9146  0.6853  1.1847
12350TIP3    H258542   3.004   6.308   0.727  0.4446  1.6097 -0.8486
12351TIP3   OH258543   0.533   4.378  11.228  0.1877 -0.4737  0.2123
12351TIP3    H158544   0.454   4.327  11.246 -0.8998  0.3667 -1.8722
12351TIP3    H258545   0.504   4.469  11.235  0.9851 -0.1615 -0.4910
12352TIP3   OH258546   3.978   1.724   3.472 -0.8095  0.0037  0.2685
12352TIP3    H158547   3.949   1.633   3.476  2.8609 -1.3220  0.3337
12352TIP3    H258548   3.994   1.748   3.563  2.0189 -0.7929  0.0805
12353TIP3   OH258549   0.467   3.095  15.911  1.0312 -0.0281 -0.7984
12353TIP3    H158550   0.544   3.141  15.880  1.3874 -0.0623  0.0140
12353TIP3    H258551   0.468   3.011  15.865  0.6804  0.5393 -1.8681
12354TIP3   OH258552   0.588   2.591  12.205  0.8325  0.2979  0.6804
12354TIP3    H158553   0.522   2.653  12.173  1.0166 -1.0372 -2.5847
12354TIP3    H258554   0.553   2.561  12.289 -1.8796  0.8935 -0.1443
12355TIP3   OH258555   3.945   2.498   3.357  0.4391  0.1247  0.2128
12355TIP3    H158556   3.912   2.483   3.269  1.2074 -0.4339  0.0104
12355TIP3    H258557   3.905   2.428   3.409  1.4592 -0.6948 -0.0790
12356TIP3   OH258558   2.797   1.707  17.007  0.0709  0.6152 -0.0552
12356TIP3    H158559   2.720   1.712  17.063  0.3824 -0.0193  0.4459
12356TIP3    H258560   2.796   1.619  16.971  1.0153  0.2918  0.6489
12357TIP3   OH258561   3.271   0.641  15.280  0.0660  0.2158 -0.0310
12357TIP3    H158562   3.249   0.695  15.205 -0.2606  0.4535  0.2333
12357TIP3    H258563   3.360   0.669  15.305  0.5262 -0.4666 -0.8501
12358TIP3   OH258564   3.860   6.171   3.801  0.0883 -0.0296 -0.5625
12358TIP3    H158565   3.833   6.157   3.891 -0.3786  1.1393 -0.4958
12358TIP3    H258566   3.831   6.261   3.781 -0.1185 -0.3806 -1.9718
12359TIP3   OH258567   1.337   6.038   1.431  0.2912 -0.3678 -0.0591
12359TIP3    H158568   1.334   6.130   1.402  2.1707 -0.0140  0.7028
12359TIP3    H258569   1.252   6.023   1.473 -0.2448  0.8598 -0.6518
12360TIP3   OH258570   2.412   0.861   0.584  0.2268 -0.5913 -0.2371
12360TIP3    H158571   2.325   0.839   0.617 -0.0577  0.6620 -0.1242
12360TIP3    H258572   2.398   0.936   0.526  1.1999 -0.5375 -0.4210
12361TIP3   OH258573   0.444   5.471   2.869  0.1614 -0.1174 -0.3990
12361TIP3    H158574   0.486   5.415   2.804 -0.8869 -1.4081  0.0042
12361TIP3    H258575   0.476   5.438   2.953  2.0750  1.9832 -0.1859
12362TIP3   OH258576   6.666   5.309  13.876 -0.0166 -0.3130  0.1653
12362TIP3    H158577   6.590   5.262  13.841  0.5569 -0.6172 -0.7046
12362TIP3    H258578   6.656   5.303  13.971 -1.7797  0.7913  0.0868
12363TIP3   OH258579   0.124   3.712  12.387  0.2765  0.0031  0.1341
12363TIP3    H158580   0.212   3.741  12.413  0.4693  0.2261 -0.7119
12363TIP3    H258581   0.068   3.737  12.460  0.6523  1.4153 -0.0302
12364TIP3   OH258582   4.047   3.261   4.547  0.4930  0.3198  0.0567
12364TIP3    H158583   4.131   3.303   4.528  0.9944  1.4486  4.0229
12364TIP3    H258584   4.000   3.323   4.602 -1.5711 -1.6490  0.6765
12365TIP3   OH258585   2.567   3.423   3.299  0.1036 -0.1863 -0.5184
12365TIP3    H158586   2.648   3.378   3.272 -0.8652 -2.3776  0.0175
12365TIP3    H258587   2.577   3.512   3.265  1.2274 -1.3369 -3.5569
12366TIP3   OH258588   3.356   2.550  11.373  0.4936 -0.8234 -0.1632
12366TIP3    H158589   3.311   2.531  11.290 -1.3189 -0.9769  0.8056
12366TIP3    H258590   3.318   2.633  11.402  0.0009 -1.5017  1.2212
12367TIP3   OH258591   4.517   4.484   4.005 -0.3358  0.0529  0.0442
12367TIP3    H158592   4.592   4.446   3.960  0.3457  0.5512  0.7359
12367TIP3    H258593   4.467   4.527   3.935  0.9095  1.1390 -0.2143
12368TIP3   OH258594   3.011   1.121   0.530  0.3558 -0.0165  0.0967
12368TIP3    H158595   3.033   1.029   0.516  1.3786  0.1304  0.6346
12368TIP3    H258596   2.958   1.121   0.610 -0.7595 -0.2549 -0.6101
12369TIP3   OH258597   6.108   3.400  14.588  0.4278  0.3156 -0.4273
12369TIP3    H158598   6.077   3.435  14.671 -1.1571 -0.2079 -0.7737
12369TIP3    H258599   6.196   3.368  14.607 -0.2947 -0.7562  1.3387
12370TIP3   OH258600   3.542   2.992   3.331 -0.1834  0.1354  0.1787
12370TIP3    H158601   3.535   3.023   3.240 -0.6999  0.0652  0.1912
12370TIP3    H258602   3.635   3.004   3.353  0.0174 -0.1714 -0.4729
12371TIP3   OH258603   5.778   3.125  12.224  0.1623  0.8962  0.3717
12371TIP3    H158604   5.740   3.051  12.177  0.7403 -0.0944  1.4348
12371TIP3    H258605   5.727   3.200  12.194  0.2606  0.2513 -1.5374
12372TIP3   OH258606   6.504   4.375  15.226  0.1570 -0.7343 -0.3917
12372TIP3    H158607   6.503   4.300  15.167 -0.8986 -0.3822 -0.8309
12372TIP3    H258608   6.415   4.382  15.258 -0.0321  0.9463 -1.1664
12373TIP3   OH258609   1.361   0.008   0.872 -0.3378 -0.0381  0.3534
12373TIP3    H158610   1.310   0.040   0.797 -0.2746  3.1051  1.5051
12373TIP3    H258611   1.451   0.003   0.839 -0.4797  0.2125 -0.0879
12374TIP3   OH258612   0.985   6.513  12.652  0.0659 -0.3413  0.6529
12374TIP3    H158613   0.937   6.471  12.723 -0.1064 -1.0666  0.1205
12374TIP3    H258614   1.026   6.440  12.605  1.9933  0.2568  1.2966
12375TIP3   OH258615   2.441   2.780   5.210 -0.4925 -0.3962 -0.2964
12375TIP3    H158616   2.352   2.806   5.230 -0.6581 -0.8763 -0.3994
12375TIP3    H258617   2.494   2.817   5.280 -0.5722  1.1707 -1.0296
12376TIP3   OH258618   6.664   1.002   1.628 -0.3089  0.1727  0.2080
12376TIP3    H158619   6.584   1.049   1.605 -0.6817 -0.8514 -0.6929
12376TIP3    H258620   6.684   0.949   1.550  1.9957  1.3723 -0.1256
12377TIP3   OH258621   2.157   3.192   1.041 -0.4947  0.8308  0.2340
12377TIP3    H158622   2.066   3.213   1.022 -0.1508 -0.7734 -4.6680
12377TIP3    H258623   2.206   3.266   1.005  0.1563 -0.7032 -2.2885
12378TIP3   OH258624   2.032   3.163  12.550  0.5419  0.0360 -0.3184
12378TIP3    H158625   2.014   3.079  12.592  0.8041  0.0059 -0.2644
12378TIP3    H258626   2.081   3.212  12.616  0.0876  0.3617 -0.2194
12379TIP3   OH258627   3.365   0.720  11.105 -0.0156 -0.2919 -0.6232
12379TIP3    H158628   3.440   0.662  11.094  0.6578  0.3961  0.1508
12379TIP3    H258629   3.319   0.717  11.021  0.4538 -1.3060 -0.8570
12380TIP3   OH258630   4.908   1.333  11.093 -0.0062 -0.2896  0.3030
12380TIP3    H158631   4.857   1.342  11.013 -2.2536 -3.6716  1.1164
12380TIP3    H258632   4.883   1.409  11.147  0.4247  1.2271 -1.5410
12381TIP3   OH258633   0.885   2.923   5.089  0.6803 -0.3278 -0.1821
12381TIP3    H158634   0.965   2.959   5.127 -0.9297  0.8409  2.3059
12381TIP3    H258635   0.886   2.831   5.114  1.1352 -0.2614  0.0576
12382TIP3   OH258636   0.823   5.197   1.974 -0.5462 -0.3029  0.3827
12382TIP3    H158637   0.815   5.112   1.931  0.6603 -0.3236  0.1740
12382TIP3    H258638   0.915   5.221   1.962 -1.0416  1.3863 -0.2204
12383TIP3   OH258639   3.288   0.439  16.712 -0.2660  0.1481 -0.3125
12383TIP3    H158640   3.307   0.487  16.792  1.4366 -1.0339  0.0325
12383TIP3    H258641   3.340   0.483  16.645 -0.3957  0.1030 -0.4434
12384TIP3   OH258642   6.066   2.285   2.932  0.2885  0.2971 -0.0366
12384TIP3    H158643   6.065   2.327   2.846  0.7978  2.5104  0.9472
12384TIP3    H258644   6.128   2.213   2.924  0.4860  0.6013 -1.4610
12385TIP3   OH258645   2.401   3.391  15.563  0.0030 -0.0052  0.1820
12385TIP3    H158646   2.402   3.460  15.496  1.1379 -0.7625 -0.6269
12385TIP3    H258647   2.357   3.431  15.638 -1.1182  0.9445 -0.9292
12386TIP3   OH258648   1.444   0.357  15.492 -0.4913 -0.1842 -0.0285
12386TIP3    H158649   1.367   0.413  15.497 -0.5446 -0.3277  1.2241
12386TIP3    H258650   1.427   0.287  15.555 -0.3574 -1.5491 -1.4427
12387TIP3   OH258651   4.997   6.656   5.154  0.0674  0.3307  0.2717
12387TIP3    H158652   5.072   6.605   5.123  0.6409  0.4396  1.4140
12387TIP3    H258653   4.989   6.727   5.091 -0.1670 -0.6462 -0.8283
12388TIP3   OH258654   2.816   0.053  13.104  0.5065 -0.0070 -0.2516
12388TIP3    H158655   2.785   0.051  13.195 -0.2985  0.4570 -0.4992
12388TIP3    H258656   2.872  -0.024  13.096 -0.4201 -0.7652  0.3020
12389TIP3   OH258657   1.014   1.110  15.399 -0.7898 -0.1060  0.5563
12389TIP3    H158658   1.003   1.205  15.412 -0.1756 -0.0145  0.4385
12389TIP3    H258659   1.108   1.096  15.409 -0.8715 -0.6968  0.4951
12390TIP3   OH258660   3.311   5.860   3.009  0.0650 -0.2092 -0.1967
12390TIP3    H158661   3.255   5.785   3.029  2.4255 -2.1353 -0.3254
12390TIP3    H258662   3.353   5.881   3.092  0.8553 -0.3262 -0.5555
12391TIP3   OH258663   0.987   2.424   0.551 -0.3377  0.3876 -0.1133
12391TIP3    H158664   0.903   2.426   0.598  1.0920 -3.6663  3.3926
12391TIP3    H258665   0.972   2.362   0.480 -0.3634 -0.5413  0.6675
12392TIP3   OH258666   3.680   2.343  13.497 -0.5657  0.3162  0.1591
12392TIP3    H158667   3.612   2.409  13.480  0.0484  0.4684 -1.9566
12392TIP3    H258668   3.759   2.379  13.456 -0.3428 -1.9680 -1.5885
12393TIP3   OH258669   4.343   2.129  13.633 -0.3242  0.3175 -0.8240
12393TIP3    H158670   4.427   2.145  13.677 -0.5037 -1.0622  0.0691
12393TIP3    H258671   4.333   2.034  13.634 -2.1096  0.4730 -0.5271
12394TIP3   OH258672   3.190   6.355   1.031  0.0949 -0.3119  0.4215
12394TIP3    H158673   3.155   6.433   0.989  1.9983  0.1025 -0.5307
12394TIP3    H258674   3.183   6.286   0.965  1.1165 -0.1947  0.1745
12395TIP3   OH258675   2.860   1.694  11.238  0.2787  0.2982  0.0400
12395TIP3    H158676   2.925   1.748  11.193  1.5735 -3.1445 -2.7857
12395TIP3    H258677   2.908   1.614  11.261 -2.6955 -2.3526 -2.0065
12396TIP3   OH258678   3.885   0.291   3.083 -0.4800 -0.2507  0.4192
12396TIP3    H158679   3.893   0.215   3.141 -0.2602 -0.9069 -0.4604
12396TIP3    H258680   3.866   0.364   3.143 -0.5333 -0.9561  1.2911
12397TIP3   OH258681   5.718   5.705   4.844 -0.0761 -0.5443  0.4935
12397TIP3    H158682   5.660   5.781   4.840  0.5860 -0.0162  0.6855
12397TIP3    H258683   5.779   5.719   4.771 -0.2305 -1.1353  0.2423
12398TIP3   OH258684   4.700   6.138  12.739 -0.2712  0.1731  0.6296
12398TIP3    H158685   4.654   6.094  12.811 -1.1456  1.1637  0.7010
12398TIP3    H258686   4.699   6.074  12.667 -1.2329 -0.0603  0.8325
12399TIP3   OH258687   6.589   0.573   5.315  0.1213  0.0375 -0.0494
12399TIP3    H158688   6.548   0.615   5.391  1.5300  0.3855  0.5614
12399TIP3    H258689   6.679   0.556   5.344  0.5916 -0.1245 -1.5367
12400TIP3   OH258690   4.002   3.302  16.272 -0.0797  0.4631 -0.5466
12400TIP3    H158691   4.020   3.254  16.191 -1.8001  0.2104 -0.8282
12400TIP3    H258692   4.022   3.240  16.342  0.0257  0.1708 -0.8338
12401TIP3   OH258693   5.918   4.645  13.806  0.3231 -0.4459  0.1301
12401TIP3    H158694   5.863   4.592  13.864  0.2311 -0.0112  0.4436
12401TIP3    H258695   5.926   4.729  13.851  1.3528 -0.5389  0.1557
12402TIP3   OH258696   5.220   3.347   5.307  0.2864  0.6587 -0.1483
12402TIP3    H158697   5.134   3.321   5.272  0.0339  0.6583  0.4619
12402TIP3    H258698   5.264   3.264   5.327  0.2765  0.6646 -0.1013
12403TIP3   OH258699   1.328   1.338   4.366  0.2385  0.1314 -0.1701
12403TIP3    H158700   1.365   1.397   4.300  0.1279  0.5826  0.1677
12403TIP3    H258701   1.359   1.373   4.450 -1.5134  0.9444  0.1804
12404TIP3   OH258702   0.650   3.640  10.624 -0.2833 -0.2622 -0.0535
12404TIP3    H158703   0.705   3.683  10.559  0.6570  0.2961  1.0572
12404TIP3    H258704   0.569   3.691  10.625  0.7573  1.4697  1.1416
12405TIP3   OH258705   3.097   3.909   4.650  0.5027  0.0090 -0.6657
12405TIP3    H158706   3.036   3.835   4.644 -1.3688  1.3713  0.3974
12405TIP3    H258707   3.098   3.945   4.561  1.1154 -1.0124 -1.0953
12406TIP3   OH258708   1.188   0.356   5.665 -0.3889  0.1373 -0.7795
12406TIP3    H158709   1.164   0.263   5.656  1.4647 -0.8592  2.7607
12406TIP3    H258710   1.237   0.375   5.585  1.9478 -2.9621 -0.2673
12407TIP3   OH258711   5.247   5.701   3.445 -0.8730  0.2471  0.0797
12407TIP3    H158712   5.281   5.628   3.496 -1.6155 -1.3887 -1.6653
12407TIP3    H258713   5.277   5.684   3.356  0.9213  3.3419 -0.0762
12408TIP3   OH258714   4.796   0.858   1.895 -0.1266  0.6936 -0.6386
12408TIP3    H158715   4.846   0.783   1.865  0.6789  1.1197 -0.3891
12408TIP3    H258716   4.718   0.821   1.935  1.8607 -0.2609  2.6747
12409TIP3   OH258717   1.693   6.722  13.159 -0.2432  1.0296  0.3211
12409TIP3    H158718   1.692   6.818  13.151 -1.3044  0.9818 -0.4051
12409TIP3    H258719   1.654   6.705  13.244  2.4857  1.2864  1.7293
12410TIP3   OH258720   4.913   4.919  13.395 -0.0415 -0.1547  0.3969
12410TIP3    H158721   4.959   4.989  13.441  1.2138  0.6234 -1.8935
12410TIP3    H258722   4.863   4.963  13.327  0.2636 -1.3999 -0.6854
12411TIP3   OH258723   3.360   0.966   0.423  0.2755  0.4645  0.2809
12411TIP3    H158724   3.265   0.958   0.413 -0.0857  2.7847  1.2567
12411TIP3    H258725   3.375   0.963   0.518  1.2488 -0.4409  0.1111
12412TIP3   OH258726   5.008   6.366   5.199  0.6086 -0.0807  0.0065
12412TIP3    H158727   4.953   6.368   5.120  1.9506  2.3120 -0.9881
12412TIP3    H258728   4.946   6.372   5.271 -0.5373  0.9873 -1.0145
12413TIP3   OH258729   3.351   2.502   2.303  0.1631 -0.5540 -0.7312
12413TIP3    H158730   3.432   2.453   2.290 -0.0532 -0.7078 -1.5867
12413TIP3    H258731   3.375   2.572   2.364  0.6087 -1.3738  0.0650
12414TIP3   OH258732   3.167   4.998  16.359 -0.7438  0.3306  0.2085
12414TIP3    H158733   3.154   5.057  16.433 -2.1615  1.2533 -0.7165
12414TIP3    H258734   3.079   4.981  16.326 -0.1695 -0.3188 -1.0662
12415TIP3   OH258735   3.954   1.807  11.937  0.3137  0.2951 -0.1781
12415TIP3    H158736   4.015   1.792  11.864  0.0028  1.3239 -0.6760
12415TIP3    H258737   3.980   1.892  11.973 -0.3550  0.4002  0.0798
12416TIP3   OH258738   2.993   3.047   5.572  0.4384 -0.1743  0.5352
12416TIP3    H158739   3.008   3.079   5.661 -2.2583  1.1750  0.6086
12416TIP3    H258740   2.961   2.958   5.583 -0.7803  0.3047  1.0294
12417TIP3   OH258741   5.853   4.488  13.532  0.3960 -0.2781  0.2061
12417TIP3    H158742   5.889   4.401  13.514  0.1463 -0.3008 -0.2134
12417TIP3    H258743   5.882   4.509  13.621  0.4185 -0.8069  0.3239
12418TIP3   OH258744   1.949   0.415   2.697  0.2017 -0.3979 -1.0104
12418TIP3    H158745   1.999   0.434   2.776 -1.5756  1.5891 -0.2346
12418TIP3    H258746   2.007   0.362   2.643  1.5749 -1.6270  1.4960
12419TIP3   OH258747   2.284   6.206  12.698 -0.3585  0.1913 -0.0171
12419TIP3    H158748   2.219   6.260  12.653 -0.0860  0.0402 -0.6141
12419TIP3    H258749   2.282   6.123  12.650  0.0619  0.0851  0.1462
12420TIP3   OH258750   6.016   4.536  12.544  0.0649  0.0786  0.2834
12420TIP3    H158751   6.099   4.539  12.593 -1.3067 -3.4539  3.3414
12420TIP3    H258752   6.035   4.482  12.468  0.6306 -0.5986  0.8944
12421TIP3   OH258753   0.330   0.912   5.650  0.5713  0.4992 -0.2775
12421TIP3    H158754   0.242   0.946   5.667  0.4267  0.7318 -1.4059
12421TIP3    H258755   0.349   0.856   5.725 -0.2721  0.9627  0.3020
12422TIP3   OH258756   0.750   0.998   0.885 -0.0022  0.4890 -0.0400
12422TIP3    H158757   0.792   1.045   0.957  0.8259  0.3617 -0.4333
12422TIP3    H258758   0.710   0.922   0.926  0.2588  0.5428  0.3194
12423TIP3   OH258759   1.757   3.023  11.627 -0.1383  0.4769  0.9752
12423TIP3    H158760   1.771   2.967  11.550 -0.9314  0.7994  0.5790
12423TIP3    H258761   1.837   3.015  11.678  0.0973 -0.3458  0.4929
12424TIP3   OH258762   5.083   6.624   1.722 -0.0399  0.5029 -0.7790
12424TIP3    H158763   5.022   6.629   1.796 -1.0143  1.9130 -1.6451
12424TIP3    H258764   5.111   6.714   1.707  2.7390 -0.1339 -0.0783
12425TIP3   OH258765   2.092   6.169   0.213  0.1430 -0.6991  0.2591
12425TIP3    H158766   2.005   6.142   0.242 -0.5060  0.7731 -0.2289
12425TIP3    H258767   2.109   6.114   0.137 -0.3838 -0.9857  0.3401
12426TIP3   OH258768   3.666   6.753   5.843 -0.0391  0.4857 -0.3987
12426TIP3    H158769   3.663   6.828   5.901  0.0226 -0.5172  0.9552
12426TIP3    H258770   3.691   6.680   5.900  0.7792 -0.3990 -1.8410
12427TIP3   OH258771   4.310   1.484   0.460  0.3836  0.2839 -0.1901
12427TIP3    H158772   4.269   1.493   0.546 -2.0591  1.8681 -1.4055
12427TIP3    H258773   4.247   1.431   0.410  1.2192  0.3552 -1.3373
12428TIP3   OH258774   1.814   6.831  10.312  0.3498  0.4272  0.2351
12428TIP3    H158775   1.788   6.771  10.382  0.5297  2.2400  1.9436
12428TIP3    H258776   1.773   6.914  10.335 -0.9699  0.7462 -2.7373
12429TIP3   OH258777   6.057   2.365   2.613 -0.4857  0.2811  0.4430
12429TIP3    H158778   5.991   2.298   2.593 -0.8899  0.4825  1.0650
12429TIP3    H258779   6.012   2.425   2.672  0.2577  0.4242  0.8699
12430TIP3   OH258780   6.048   6.704   2.693 -0.1391  0.3512 -0.3871
12430TIP3    H158781   6.104   6.634   2.659  0.1215  0.8570 -1.0438
12430TIP3    H258782   6.110   6.766   2.733 -0.4135 -0.0449  0.6646
12431TIP3   OH258783   1.593   4.131   4.168 -0.1616  0.1162  0.5240
12431TIP3    H158784   1.561   4.054   4.121  0.1016 -0.6753  1.5909
12431TIP3    H258785   1.686   4.113   4.182 -0.1717  0.4667  1.0712
12432TIP3   OH258786   5.689   5.295  13.704  0.8483 -0.0714 -0.7530
12432TIP3    H158787   5.723   5.242  13.776  1.4386 -1.2123 -1.8433
12432TIP3    H258788   5.599   5.265  13.692  0.0190  1.5733  0.8274
12433TIP3   OH258789   4.601   1.606  11.000 -0.2250 -0.7218  0.2003
12433TIP3    H158790   4.575   1.690  11.037  2.8870  0.4977 -0.0423
12433TIP3    H258791   4.682   1.625  10.952 -1.0103 -3.3126 -2.4754
12434TIP3   OH258792   6.792   5.099   3.792 -0.8210  0.2024  0.4540
12434TIP3    H158793   6.789   5.023   3.733 -0.0483  1.3795 -1.1984
12434TIP3    H258794   6.885   5.115   3.804 -0.9818  0.3069  1.6058
12435TIP3   OH258795   1.517   0.755   0.543 -0.4776 -0.0318  0.1653
12435TIP3    H158796   1.580   0.826   0.551 -0.4745  0.0123 -0.2016
12435TIP3    H258797   1.440   0.786   0.591 -0.7390  0.5387 -0.5871
12436TIP3   OH258798   6.172   5.287  14.470  0.9956  0.4686 -0.1354
12436TIP3    H158799   6.196   5.371  14.432 -2.0656  1.3070 -0.4710
12436TIP3    H258800   6.207   5.222  14.408  2.6729  1.4692 -0.3013
12437TIP3   OH258801   3.087   4.078  16.069 -0.1492 -0.1192  0.0630
12437TIP3    H158802   3.169   4.040  16.099 -0.1167 -0.5495 -0.5474
12437TIP3    H258803   3.044   4.109  16.149  0.5753  0.0612  0.3903
12438TIP3   OH258804   4.151   4.334  15.611 -0.3489  0.2464  0.1720
12438TIP3    H158805   4.235   4.295  15.589 -0.1929  1.3755 -1.3439
12438TIP3    H258806   4.157   4.351  15.705  3.0959  4.6903 -0.5609
12439TIP3   OH258807   1.904   3.740   0.913  0.3979  0.2672  0.0172
12439TIP3    H158808   1.844   3.815   0.921  1.4777  1.0573  1.0388
12439TIP3    H258809   1.858   3.679   0.856 -1.9481  0.2999  1.7024
12440TIP3   OH258810   6.024   0.495  16.506 -0.4457 -0.0973 -1.1791
12440TIP3    H158811   5.971   0.431  16.553 -0.1630  0.4992 -0.0109
12440TIP3    H258812   6.101   0.508  16.561 -1.2250  2.4076 -0.5479
12441TIP3   OH258813   2.588   6.195  11.906  1.0177 -0.3189  0.2077
12441TIP3    H158814   2.655   6.230  11.847  1.7676 -1.1991  0.5143
12441TIP3    H258815   2.620   6.216  11.994 -1.3126  3.2819  0.4057
12442TIP3   OH258816   5.550   1.514   5.019 -0.6837 -0.3043 -0.4658
12442TIP3    H158817   5.625   1.528   4.961 -0.8631  1.2720 -0.3475
12442TIP3    H258818   5.491   1.587   5.000 -0.2599  0.9089  2.4899
12443TIP3   OH258819   5.507   5.544  14.210  0.1875  0.3342  0.5400
12443TIP3    H158820   5.413   5.554  14.196  0.4035  2.0998  0.1662
12443TIP3    H258821   5.545   5.546  14.122  0.6322  0.3732  0.7281
12444TIP3   OH258822   1.910   6.330  15.188 -0.8403  0.2205 -0.1171
12444TIP3    H158823   1.930   6.379  15.268 -1.8266 -0.7408  0.7666
12444TIP3    H258824   1.944   6.384  15.117 -0.2323  1.2657  0.9284
12445TIP3   OH258825   6.323   2.067  14.191 -0.1805  0.1971  0.1903
12445TIP3    H158826   6.394   2.115  14.149  1.5020 -1.1385  1.3927
12445TIP3    H258827   6.276   2.024  14.119  1.7982 -0.9418 -0.4866
12446TIP3   OH258828   2.554   3.481   5.208 -0.0030 -0.0765 -0.1550
12446TIP3    H158829   2.613   3.406   5.199  0.8027  0.4258  0.7515
12446TIP3    H258830   2.475   3.455   5.160 -0.4410 -2.2256  1.5615
12447TIP3   OH258831   1.249   3.610  14.664 -0.9094  0.0504  0.3330
12447TIP3    H158832   1.238   3.515  14.657  0.4066 -0.1158  0.3431
12447TIP3    H258833   1.226   3.630  14.755 -1.2331 -0.2358  0.3175
12448TIP3   OH258834   3.044   3.432  15.492  0.3937 -0.4852 -0.5464
12448TIP3    H158835   3.094   3.357  15.525  0.9652  1.0160  2.3147
12448TIP3    H258836   3.083   3.508  15.535 -1.5750  1.2419 -1.6219
12449TIP3   OH258837   5.221   3.687   1.901 -0.6269  0.2865  0.0032
12449TIP3    H158838   5.247   3.754   1.838  0.5648 -0.4053 -0.2735
12449TIP3    H258839   5.144   3.723   1.944 -0.7418  1.2949 -1.0023
12450TIP3   OH258840   1.185   0.203  15.967  0.3887  0.4865 -0.2787
12450TIP3    H158841   1.147   0.186  15.881 -0.1727  1.9514 -0.3555
12450TIP3    H258842   1.115   0.182  16.029  0.4462  0.4232 -0.2348
12451TIP3   OH258843   3.764   1.311   3.536 -0.3660  0.1945 -0.1927
12451TIP3    H158844   3.673   1.327   3.511 -0.5267 -2.0996 -1.2630
12451TIP3    H258845   3.758   1.257   3.615  0.0097 -1.0664 -0.9991
12452TIP3   OH258846   6.207   2.080   2.043 -0.1955  0.2337 -0.3893
12452TIP3    H158847   6.299   2.058   2.056  0.2220  1.9164 -0.2289
12452TIP3    H258848   6.181   2.032   1.964  0.6959 -0.5618 -0.2067
12453TIP3   OH258849   6.434   0.330   5.915  0.3864  0.5339 -0.1019
12453TIP3    H158850   6.494   0.360   5.846  2.0150 -0.1882  0.9296
12453TIP3    H258851   6.492   0.297   5.984 -1.2184  0.1907  1.1387
12454TIP3   OH258852   6.112   3.313   5.968 -0.1776  0.2097 -0.5732
12454TIP3    H158853   6.186   3.355   6.012 -0.8211  2.1308 -1.2343
12454TIP3    H258854   6.137   3.220   5.964  0.5601  0.1541  2.4483
12455TIP3   OH258855   6.136   5.449   1.934 -0.2046  0.3289  0.2481
12455TIP3    H158856   6.078   5.521   1.960 -0.3087  0.0468  0.7988
12455TIP3    H258857   6.079   5.374   1.922 -0.0127  0.1728  0.3046
12456TIP3   OH258858   0.234   3.663   0.189 -0.0522  0.3042  0.2539
12456TIP3    H158859   0.261   3.712   0.111  0.9444  0.4381  0.6614
12456TIP3    H258860   0.183   3.590   0.155  0.2381  0.4476 -0.5197
12457TIP3   OH258861   4.956   6.683   1.968  0.6219 -0.3316 -0.0433
12457TIP3    H158862   4.997   6.766   1.992 -0.8555  0.6602 -0.8430
12457TIP3    H258863   4.863   6.704   1.958  0.5107 -1.6074 -2.2947
12458TIP3   OH258864   4.739   2.255  15.440  0.1558 -0.2082  0.5963
12458TIP3    H158865   4.776   2.342  15.427  1.4904 -0.8411  0.0274
12458TIP3    H258866   4.806   2.195  15.409 -0.9052 -1.4419  0.5897
12459TIP3   OH258867   4.103   4.587   4.713 -0.5215 -0.4580 -0.6359
12459TIP3    H158868   4.045   4.617   4.783  0.7145 -1.2214  0.7646
12459TIP3    H258869   4.048   4.526   4.662 -1.2104 -0.5224  0.1531
12460TIP3   OH258870   0.665   2.204   5.664  0.3971 -0.2141  0.9549
12460TIP3    H158871   0.730   2.255   5.712  1.2623 -1.6966  1.4136
12460TIP3    H258872   0.582   2.247   5.683  1.1612  1.4664  0.7030
12461TIP3   OH258873   2.374   5.227  10.620 -0.4606 -0.4861 -0.8848
12461TIP3    H158874   2.411   5.202  10.705  1.4957  1.6519 -0.9807
12461TIP3    H258875   2.287   5.261  10.641 -0.1026 -0.2299  0.2744
12462TIP3   OH258876   1.145   2.185  13.163  0.5498 -0.1506 -0.5579
12462TIP3    H158877   1.236   2.203  13.142  0.9155  1.1393  1.7610
12462TIP3    H258878   1.095   2.215  13.087  1.8328  2.6863 -0.4108
12463TIP3   OH258879   2.909   4.952   2.201 -0.2792 -0.4900  0.3951
12463TIP3    H158880   2.980   4.900   2.238  1.1103  0.9006 -0.2167
12463TIP3    H258881   2.881   5.009   2.273 -0.5531 -0.8109  0.5432
12464TIP3   OH258882   5.090   2.009   3.744 -0.1878  0.4770 -0.7515
12464TIP3    H158883   5.117   2.100   3.755  0.3530  0.1029  1.6752
12464TIP3    H258884   5.159   1.968   3.692  0.7499  0.9502  0.0977
12465TIP3   OH258885   6.439   5.387  16.361 -0.0812 -0.5330 -0.5106
12465TIP3    H158886   6.396   5.470  16.342 -1.7830 -0.4424  3.0547
12465TIP3    H258887   6.375   5.320  16.337 -0.7705 -0.5538  1.2832
12466TIP3   OH258888   2.727   3.906  13.778 -0.2254  0.2501 -0.1012
12466TIP3    H158889   2.722   3.813  13.798  1.3031 -0.0185 -0.8424
12466TIP3    H258890   2.729   3.910  13.682 -0.5696  1.0707 -0.0853
12467TIP3   OH258891   5.893   4.647   3.026 -0.2442 -0.0116  0.0999
12467TIP3    H158892   5.942   4.644   2.944 -0.6599 -0.5434 -0.1322
12467TIP3    H258893   5.955   4.617   3.092  0.7172  2.2348  0.3121
12468TIP3   OH258894   1.741   0.085   5.774 -0.2462 -0.0536  0.4312
12468TIP3    H158895   1.707   0.017   5.832  0.2527 -1.7398 -1.1632
12468TIP3    H258896   1.715   0.056   5.686  3.1015 -0.1720 -0.6395
12469TIP3   OH258897   1.392   0.496  14.744 -0.2098  0.0752 -0.0389
12469TIP3    H158898   1.367   0.572  14.692  1.3288  1.1928  0.7796
12469TIP3    H258899   1.355   0.512  14.830  2.1475  1.2023  0.8604
12470TIP3   OH258900   4.541   4.841  12.607 -0.4481  0.3178  0.1095
12470TIP3    H158901   4.543   4.890  12.525  0.3995 -0.0785 -0.1105
12470TIP3    H258902   4.632   4.823  12.627 -0.6482  0.3466  1.1098
12471TIP3   OH258903   5.858   1.485  15.019 -0.2708 -0.1625 -0.5556
12471TIP3    H158904   5.762   1.483  15.020 -0.3051 -0.7972 -2.2025
12471TIP3    H258905   5.882   1.414  14.959  1.2824 -0.9560  0.9319
12472TIP3   OH258906   3.786   4.315  11.184  0.2800 -0.4533  0.6161
12472TIP3    H158907   3.793   4.249  11.115  2.2899 -0.1241  0.4597
12472TIP3    H258908   3.847   4.383  11.159 -1.3438  1.2517  1.0804
12473TIP3   OH258909   5.084   1.094  16.490 -0.4084 -0.4069 -0.6692
12473TIP3    H158910   5.060   1.172  16.440  1.4387 -1.1405 -2.8452
12473TIP3    H258911   5.081   1.023  16.426  1.7694 -1.4472  0.3055
12474TIP3   OH258912   5.812   6.624  15.163  0.0911  0.2245 -0.3455
12474TIP3    H158913   5.760   6.588  15.235  1.3912  2.1184  1.6406
12474TIP3    H258914   5.827   6.715  15.187  3.7243 -0.0320 -1.1393
12475TIP3   OH258915   0.472   2.332  10.282 -0.0347 -0.5861 -0.4237
12475TIP3    H158916   0.383   2.325  10.247 -0.5233  2.9639 -0.1923
12475TIP3    H258917   0.464   2.388  10.359  2.1306 -2.1119  1.0437
12476TIP3   OH258918   1.455   5.028  16.037  0.2377  0.4404  0.4219
12476TIP3    H158919   1.386   5.042  15.972 -0.6988 -0.4843  1.1928
12476TIP3    H258920   1.429   5.081  16.112 -1.2915 -2.2044  1.8779
12477TIP3   OH258921   0.857   0.663   2.920 -0.4703  0.3593  0.5582
12477TIP3    H158922   0.936   0.621   2.953 -1.1008 -0.9111  0.5346
12477TIP3    H258923   0.887   0.745   2.881  0.6386  0.5616  1.7886
12478TIP3   OH258924   3.015   3.730   2.824  0.2826 -0.0781  0.1521
12478TIP3    H158925   2.955   3.759   2.755  1.3756 -0.7519 -1.1457
12478TIP3    H258926   2.969   3.660   2.869  0.7531 -1.9823 -2.1148
12479TIP3   OH258927   5.435   3.723  11.768 -0.2148  0.2193 -0.3418
12479TIP3    H158928   5.468   3.811  11.748 -0.6163  0.1024 -1.5551
12479TIP3    H258929   5.407   3.688  11.684  1.4933 -1.7349 -0.1840
12480TIP3   OH258930   0.412   2.416  13.986 -0.1397  0.8454 -0.0271
12480TIP3    H158931   0.480   2.410  13.919  1.0586 -0.2138  1.2061
12480TIP3    H258932   0.424   2.503  14.025 -0.4413  1.2225 -0.7767
12481TIP3   OH258933   6.849   0.768  12.174 -0.3982 -0.6183  0.8421
12481TIP3    H158934   6.813   0.794  12.089 -0.6014  4.4026  2.1844
12481TIP3    H258935   6.942   0.751  12.156 -0.3631  0.6886 -0.4054
12482TIP3   OH258936   2.468   1.441   4.322  0.1941 -0.1901 -0.6378
12482TIP3    H158937   2.516   1.507   4.371  1.1150 -1.8891  0.8816
12482TIP3    H258938   2.534   1.376   4.297 -1.0791 -2.2484  0.9120
12483TIP3   OH258939   5.342   3.436   4.772  0.5746 -0.2911 -0.0782
12483TIP3    H158940   5.296   3.497   4.830  0.9959 -1.6876  1.8399
12483TIP3    H258941   5.272   3.382   4.734  0.2401  1.0612 -1.4570
12484TIP3   OH258942   0.613   1.086  12.027  0.3964 -0.0246 -0.6657
12484TIP3    H158943   0.695   1.107  12.071  0.5870 -1.9282  0.0094
12484TIP3    H258944   0.546   1.096  12.095  0.1164  1.0877 -1.0926
12485TIP3   OH258945   0.867   3.712  15.987  0.4565 -0.2512 -0.8837
12485TIP3    H158946   0.834   3.794  15.952 -1.6006 -1.1295 -1.1251
12485TIP3    H258947   0.956   3.733  16.018  0.1604  1.9108 -1.3649
12486TIP3   OH258948   6.169   1.555  10.605 -0.0113  0.0818 -0.4881
12486TIP3    H158949   6.156   1.476  10.656  0.3224  0.5064  0.2706
12486TIP3    H258950   6.081   1.581  10.578 -0.2640  0.2383  0.4668
12487TIP3   OH258951   5.521   3.276  11.900 -0.2034  0.0870  0.5026
12487TIP3    H158952   5.435   3.277  11.943 -0.1339  0.3469  0.6400
12487TIP3    H258953   5.528   3.363  11.861 -0.3633 -0.2271 -0.2346
12488TIP3   OH258954   5.322   5.750   2.564  0.1886  0.3024 -0.0841
12488TIP3    H158955   5.405   5.795   2.546  0.7298 -0.6103  0.0498
12488TIP3    H258956   5.308   5.694   2.488 -0.2582  0.3611 -0.0507
12489TIP3   OH258957   0.921   3.707   5.798  0.0333  0.0115  1.0764
12489TIP3    H158958   0.897   3.795   5.769 -0.0523 -0.0409  0.9869
12489TIP3    H258959   0.957   3.664   5.721  0.2545  0.0318  1.1692
12490TIP3   OH258960   3.353   6.788   2.563 -0.1792 -0.0879 -0.1259
12490TIP3    H158961   3.370   6.825   2.650 -0.2293  1.3564 -0.7009
12490TIP3    H258962   3.403   6.844   2.503 -0.5199 -0.7778 -1.0762
12491TIP3   OH258963   3.401   1.473  15.322 -0.0116 -0.2077  0.3757
12491TIP3    H158964   3.387   1.449  15.230 -2.2562  0.6825  0.4055
12491TIP3    H258965   3.451   1.401  15.358  0.6728 -0.7202 -1.4760
12492TIP3   OH258966   5.675   3.354  14.485  0.3181 -0.1895 -0.5600
12492TIP3    H158967   5.603   3.307  14.526 -0.4557  1.7507  0.3910
12492TIP3    H258968   5.754   3.311  14.518 -0.3275  0.2180  1.6259
12493TIP3   OH258969   1.261   4.519  16.892 -0.1227 -0.0971  0.1616
12493TIP3    H158970   1.334   4.496  16.949  0.0910 -0.9712 -0.4357
12493TIP3    H258971   1.186   4.471  16.929  0.0358 -0.7350 -0.3364
12494TIP3   OH258972   2.353   6.275  15.581  0.4385  0.3111  0.2640
12494TIP3    H158973   2.264   6.285  15.548  0.3431  1.6933  0.8820
12494TIP3    H258974   2.408   6.309  15.511  0.8279 -3.6010 -1.6323
12495TIP3   OH258975   0.232   3.710  14.347  0.3238  0.4476  0.2349
12495TIP3    H158976   0.154   3.666  14.312  2.6223 -3.0390 -1.0090
12495TIP3    H258977   0.208   3.803  14.349 -3.1282 -0.2095 -1.9694
12496TIP3   OH258978   0.463   2.775  15.217  0.6967 -0.1414 -0.0335
12496TIP3    H158979   0.540   2.780  15.273  1.3500 -0.3383 -0.8912
12496TIP3    H258980   0.460   2.684  15.188 -0.2800 -0.3134  0.5447
12497TIP3   OH258981   2.667   0.813  13.016  0.2471  0.2825 -0.4710
12497TIP3    H158982   2.684   0.799  13.109  0.6190 -1.9082 -0.8305
12497TIP3    H258983   2.574   0.797  13.006  0.1319  0.8997 -0.4272
12498TIP3   OH258984   6.193   1.099  16.052 -0.9041 -0.1875  0.8270
12498TIP3    H158985   6.122   1.047  16.015  1.0018 -0.9294 -2.0605
12498TIP3    H258986   6.253   1.034  16.091 -0.5404  0.1963  0.9161
12499TIP3   OH258987   2.351   1.454   1.974  0.0705 -0.0962  0.0789
12499TIP3    H158988   2.318   1.418   2.057 -2.1349 -0.6996 -0.9816
12499TIP3    H258989   2.391   1.537   1.998 -1.8679  0.4780  1.5874
12500TIP3   OH258990   5.998   0.077   2.123 -0.1736  0.1399 -1.0286
12500TIP3    H158991   6.092   0.082   2.111  0.2451 -0.1043  1.5550
12500TIP3    H258992   5.982  -0.010   2.160 -1.2074  0.6640 -0.1522
12501TIP3   OH258993   2.381   3.754  13.104  0.3427 -0.1764  0.0971
12501TIP3    H158994   2.368   3.680  13.043  2.7497  1.8277 -3.1487
12501TIP3    H258995   2.318   3.737  13.174 -1.1973 -3.8254 -1.8415
12502TIP3   OH258996   0.946   0.246   1.498  0.8847  0.2164 -0.2153
12502TIP3    H158997   0.862   0.290   1.512  0.5406 -0.3324 -0.5175
12502TIP3    H258998   1.010   0.304   1.539  0.2987  0.3622  0.5366
12503TIP3   OH258999   4.399   3.725  14.605  0.6508  0.5987 -0.1484
12503TIP3    H159000   4.439   3.665  14.667 -1.6952 -2.4633 -1.3403
12503TIP3    H259001   4.322   3.760  14.651 -1.1997 -1.8187 -1.1439
12504TIP3   OH259002   2.621   4.965   3.217  0.5237  0.4023 -0.5741
12504TIP3    H159003   2.658   4.906   3.151  1.4392  0.9244 -0.5390
12504TIP3    H259004   2.652   5.052   3.192  0.2971  0.6967  0.1489
12505TIP3   OH259005   2.718   4.631   2.058 -0.1568 -0.3317 -0.3364
12505TIP3    H159006   2.698   4.572   2.131 -0.3461  0.9117  0.6523
12505TIP3    H259007   2.813   4.623   2.046  0.0397  0.2000  0.7330
12506TIP3   OH259008   5.067   6.612  15.526 -0.3081 -0.6385  0.1862
12506TIP3    H159009   5.143   6.634  15.581  0.8442  1.1399 -1.9551
12506TIP3    H259010   4.992   6.646  15.575  0.4292 -0.9763  1.5995
12507TIP3   OH259011   1.734   1.147   3.505 -0.0658 -0.2967  0.8018
12507TIP3    H159012   1.799   1.086   3.471 -0.7022 -0.5473 -0.0142
12507TIP3    H259013   1.650   1.113   3.473 -0.2784  2.3232 -1.8941
12508TIP3   OH259014   0.215   6.248  11.165  0.0662 -0.1545  0.2739
12508TIP3    H159015   0.288   6.206  11.210  1.7983  2.7089  0.4024
12508TIP3    H259016   0.211   6.205  11.080  0.3192 -1.9655  1.1330
12509TIP3   OH259017   5.527   1.369   2.342 -0.5138 -0.4779  0.2247
12509TIP3    H159018   5.471   1.329   2.408  1.5062 -0.4281  2.0962
12509TIP3    H259019   5.470   1.430   2.295 -1.7789  0.4438  2.8056
12510TIP3   OH259020   1.835   3.201   5.090  0.7204  0.5162  0.1230
12510TIP3    H159021   1.812   3.125   5.144 -1.2872 -0.6082 -2.1229
12510TIP3    H259022   1.867   3.163   5.008  0.5198  2.0863 -0.7159
12511TIP3   OH259023   4.907   3.873  15.940  0.5135  1.0986 -0.0633
12511TIP3    H159024   4.834   3.819  15.910  0.2788 -0.1684  2.4617
12511TIP3    H259025   4.893   3.958  15.899 -1.8804  0.6286 -0.3783
12512TIP3   OH259026   4.829   0.229  12.646 -0.2605 -0.1477 -0.1977
12512TIP3    H159027   4.740   0.246  12.676 -0.1033 -0.7437  0.6417
12512TIP3    H259028   4.882   0.297  12.688 -0.0265 -1.0390  0.9911
12513TIP3   OH259029   1.306   4.100   0.690 -0.2710 -0.2514 -0.7246
12513TIP3    H159030   1.386   4.086   0.740 -0.2490 -3.6890 -1.4780
12513TIP3    H259031   1.332   4.156   0.617  1.2169 -0.4473 -0.3680
12514TIP3   OH259032   3.461   2.616  16.436 -0.2858 -0.2385  0.5008
12514TIP3    H159033   3.371   2.607  16.403  1.0637 -1.7224 -3.2970
12514TIP3    H259034   3.504   2.535  16.412  2.2534  0.6392  1.7471
12515TIP3   OH259035   6.548   1.492  15.616  0.6088  0.7944 -0.5337
12515TIP3    H159036   6.461   1.511  15.652  0.2851 -0.5647 -0.5578
12515TIP3    H259037   6.595   1.449  15.687  0.4794 -0.5251 -1.2202
12516TIP3   OH259038   5.993   1.088   5.706 -0.4807  0.0588  0.2080
12516TIP3    H159039   5.949   1.094   5.791  2.1571 -1.2847  1.8118
12516TIP3    H259040   5.975   1.000   5.675  0.2379 -0.1777  0.4289
12517TIP3   OH259041   1.820   0.254   0.882  0.0898  0.6107  0.3407
12517TIP3    H159042   1.757   0.222   0.947  0.5313 -0.9648  0.0270
12517TIP3    H259043   1.886   0.300   0.933  0.0565  0.0081  0.9446
12518TIP3   OH259044   0.625   5.799  14.453  0.0740  0.0485 -0.1351
12518TIP3    H159045   0.572   5.857  14.398 -0.1832  1.0699  1.1239
12518TIP3    H259046   0.705   5.785  14.403 -0.2558  0.7290 -0.8809
12519TIP3   OH259047   4.170   6.574   0.652  0.0729  0.4794  0.0493
12519TIP3    H159048   4.150   6.537   0.738  0.9257 -0.1499 -0.0130
12519TIP3    H259049   4.220   6.506   0.607 -2.8006 -0.4019 -2.0585
12520TIP3   OH259050   5.846   6.759  11.110 -0.7744  0.4029 -0.3110
12520TIP3    H159051   5.894   6.695  11.059  0.4252  1.1476 -0.1563
12520TIP3    H259052   5.896   6.768  11.191 -2.3052 -0.2981  0.7633
12521TIP3   OH259053   5.528   6.384   0.350 -0.1927 -0.2480  0.3391
12521TIP3    H159054   5.530   6.435   0.269  1.6154  1.8896  1.6233
12521TIP3    H259055   5.575   6.303   0.328  2.2197  1.2090 -0.2836
12522TIP3   OH259056   6.232   0.678   0.040 -0.4927  0.1386  0.0857
12522TIP3    H159057   6.243   0.728   0.121  0.0682 -0.1673  0.2081
12522TIP3    H259058   6.162   0.616   0.060  1.2591 -1.6023  1.2065
12523TIP3   OH259059   2.185   2.560  13.082 -0.2445 -0.1771  0.1514
12523TIP3    H159060   2.224   2.632  13.132  1.1160  0.0588 -1.1808
12523TIP3    H259061   2.244   2.486  13.097  0.0699 -0.1566 -0.9177
12524TIP3   OH259062   5.536   2.485   1.690  0.4362 -0.3083 -0.7017
12524TIP3    H159063   5.502   2.574   1.695  1.3514  0.1033 -1.6269
12524TIP3    H259064   5.457   2.429   1.693 -0.2952  0.5937 -1.9805
12525TIP3   OH259065   1.767   1.173   1.968  0.5475 -0.1165 -0.4600
12525TIP3    H159066   1.770   1.080   1.988  2.6256  0.0972  0.4816
12525TIP3    H259067   1.830   1.185   1.897  2.6966  0.9406  1.4882
12526TIP3   OH259068   1.232   1.775   6.719 -0.3801 -0.3897  0.5397
12526TIP3    H159069   1.222   1.806   6.629 -1.0727 -1.0661  0.3720
12526TIP3    H259070   1.327   1.769   6.732 -0.2661 -1.5000 -0.5931
12527TIP3   OH259071   4.552   0.920  13.062 -0.1788 -0.0781  0.5409
12527TIP3    H159072   4.459   0.903  13.078 -0.2007  0.4883  1.0423
12527TIP3    H259073   4.568   0.883  12.975 -1.2636  1.2692 -0.2787
12528TIP3   OH259074   4.273   5.699  14.056 -0.4324  0.0107 -0.2649
12528TIP3    H159075   4.224   5.622  14.026 -0.7932  0.1317  0.0027
12528TIP3    H259076   4.283   5.753  13.978  0.1510 -0.4819 -0.5365
12529TIP3   OH259077   4.501   0.758  10.460 -0.3556 -0.0290  0.0818
12529TIP3    H159078   4.582   0.808  10.465  0.3317 -0.5356 -3.4806
12529TIP3    H259079   4.529   0.666  10.459 -1.1308 -0.2844  0.4060
12530TIP3   OH259080   2.110   2.090   4.002 -0.5223  0.1243  0.5540
12530TIP3    H159081   2.204   2.110   4.002  0.0652 -2.3029  0.6841
12530TIP3    H259082   2.089   2.075   3.910 -0.2473 -1.4115  0.7205
12531TIP3   OH259083   0.495   0.918  12.588  0.1856  0.7879  0.1486
12531TIP3    H159084   0.481   0.855  12.517 -0.6953  0.9000  0.2088
12531TIP3    H259085   0.458   1.000  12.554 -0.4185  0.7965  0.8024
12532TIP3   OH259086   1.696   4.990   5.579  0.5468  0.3137  0.0751
12532TIP3    H159087   1.749   5.070   5.579  0.8797  0.0957  0.4004
12532TIP3    H259088   1.674   4.976   5.671 -0.3768  0.5959 -0.0942
12533TIP3   OH259089   1.623   3.636  11.228 -0.2567 -0.7480  0.2271
12533TIP3    H159090   1.620   3.727  11.197 -0.0674 -0.4443  1.0843
12533TIP3    H259091   1.619   3.584  11.148  0.8384  0.0248 -0.3552
12534TIP3   OH259092   1.452   5.764   5.059 -0.0448  0.1765  0.3372
12534TIP3    H159093   1.416   5.853   5.049  0.3795  0.3131 -0.0256
12534TIP3    H259094   1.393   5.721   5.121 -0.7422  0.4477 -0.1178
12535TIP3   OH259095   2.259   1.364  11.032  0.3486 -0.4523  0.8039
12535TIP3    H159096   2.316   1.347  11.107 -0.0514 -0.8447  1.0213
12535TIP3    H259097   2.206   1.439  11.058  2.7109  1.8530 -0.4827
12536TIP3   OH259098   6.435   0.288  15.392  0.6544 -0.3067  0.0876
12536TIP3    H159099   6.374   0.359  15.413  0.4315 -0.4089 -0.1938
12536TIP3    H259100   6.385   0.208  15.409  0.4050 -0.3927 -0.9631
12537TIP3   OH259101   1.471   4.818   1.263  0.1760 -0.0949 -0.0980
12537TIP3    H159102   1.453   4.879   1.192  1.2564 -0.1766 -0.4630
12537TIP3    H259103   1.428   4.857   1.339  2.6573  2.3335  0.2174
12538TIP3   OH259104   5.554   5.799  16.872  0.3673 -0.3408  0.4845
12538TIP3    H159105   5.462   5.809  16.897 -0.4708 -0.6401 -2.1498
12538TIP3    H259106   5.597   5.878  16.904 -0.3349 -1.0174  3.4068
12539TIP3   OH259107   5.366   3.011  14.069 -0.3737 -0.0488 -0.3133
12539TIP3    H159108   5.281   2.978  14.041  0.0199 -1.2890 -0.1137
12539TIP3    H259109   5.373   3.098  14.030 -2.2449  0.5978  0.6548
12540TIP3   OH259110   6.003   4.402   0.089 -0.0654 -0.0855  0.6534
12540TIP3    H159111   6.075   4.343   0.065  2.8348  2.2810  2.7886
12540TIP3    H259112   5.983   4.449   0.008  1.8422  0.1538  0.2672
12541TIP3   OH259113   4.499   1.449  14.149  0.1666 -0.3449  1.0521
12541TIP3    H159114   4.460   1.370  14.186  2.0812 -1.9640 -0.1352
12541TIP3    H259115   4.575   1.467  14.204  0.3944 -0.0228  0.6471
12542TIP3   OH259116   3.481   4.665   3.411  0.2129  0.0720  0.4781
12542TIP3    H159117   3.567   4.656   3.370 -0.3188 -1.1962 -0.4144
12542TIP3    H259118   3.432   4.723   3.353  0.6969  1.4866  1.4239
12543TIP3   OH259119   5.375   3.914   6.222 -0.0504 -0.5249 -0.3331
12543TIP3    H159120   5.312   3.876   6.160  0.0914 -0.2598 -0.6421
12543TIP3    H259121   5.361   3.865   6.303 -2.1012  0.8908  0.2323
12544TIP3   OH259122   2.654   1.918  16.899 -0.1528 -0.0496 -0.0199
12544TIP3    H159123   2.614   1.963  16.973 -0.0305  0.8456 -0.4806
12544TIP3    H259124   2.715   1.856  16.938  1.3452  1.7613  0.6175
12545TIP3   OH259125   2.400   1.839  16.102 -0.1273 -0.0922 -0.2335
12545TIP3    H159126   2.373   1.876  16.186 -1.8958  0.6493 -1.0679
12545TIP3    H259127   2.326   1.783  16.077 -1.0627  2.0456 -2.6726
12546TIP3   OH259128   0.762   6.355   4.982 -0.3151  0.1139 -0.1377
12546TIP3    H159129   0.752   6.445   5.012  0.1264 -0.0178  0.4016
12546TIP3    H259130   0.854   6.348   4.958 -0.5510  0.0755 -1.0765
12547TIP3   OH259131   3.849   4.308  16.085  0.1551  0.1042  0.3782
12547TIP3    H159132   3.818   4.396  16.063  0.8689  0.5554  1.1111
12547TIP3    H259133   3.893   4.319  16.170 -0.4626 -1.1168  0.8754
12548TIP3   OH259134   1.339   2.215  15.367 -0.8393  0.2901 -0.2871
12548TIP3    H159135   1.282   2.157  15.418 -0.2426  0.7592  0.9624
12548TIP3    H259136   1.424   2.207  15.408 -0.5002  1.2455 -0.7678
12549TIP3   OH259137   1.560   5.668   3.916  0.4668  0.1682  0.1195
12549TIP3    H159138   1.474   5.658   3.957 -0.2790 -2.7788 -1.8391
12549TIP3    H259139   1.606   5.586   3.936  1.6142  0.3854 -1.4246
12550TIP3   OH259140   3.846   3.147   6.137  0.0710 -0.2484  0.5812
12550TIP3    H159141   3.917   3.085   6.120  1.1898  1.4840 -1.7736
12550TIP3    H259142   3.793   3.145   6.057 -0.5482  0.9556  0.9326
12551TIP3   OH259143   6.098   4.533   4.021  0.2742  0.0514  0.1539
12551TIP3    H159144   6.060   4.532   3.934 -0.1979  0.2798  0.3525
12551TIP3    H259145   6.024   4.550   4.079  0.2727 -1.7600  0.7555
12552TIP3   OH259146   5.423   5.989   4.119  0.4710  0.0937  0.2249
12552TIP3    H159147   5.335   6.026   4.112  0.0860 -0.6464  0.9447
12552TIP3    H259148   5.416   5.903   4.078  0.3348 -0.7818  1.9957
12553TIP3   OH259149   5.397   2.558   0.012  0.4342 -0.0899  1.1506
12553TIP3    H159150   5.432   2.629  -0.042  1.7701 -1.0008  0.7593
12553TIP3    H259151   5.304   2.578   0.020  0.3000  0.4131 -0.9917
12554TIP3   OH259152   6.799   1.653   4.931  0.5654 -0.0784  0.1067
12554TIP3    H159153   6.719   1.660   4.983 -0.0653 -0.9796 -0.7213
12554TIP3    H259154   6.824   1.744   4.913  0.4504  0.2364  1.4336
12555TIP3   OH259155   1.074   0.560   1.903 -0.2886  0.4726 -0.4313
12555TIP3    H159156   1.077   0.466   1.923 -1.9497  0.3517 -0.6234
12555TIP3    H259157   1.011   0.567   1.832  0.5220  1.6569 -1.0676
12556TIP3   OH259158   3.239   2.577   3.239  0.5396  0.3967 -0.1735
12556TIP3    H159159   3.276   2.644   3.181  0.5819 -1.1171 -2.0186
12556TIP3    H259160   3.154   2.555   3.199 -0.2214  0.5153  1.3342
12557TIP3   OH259161   1.404   2.938   3.310 -0.0659 -0.1251  0.0352
12557TIP3    H159162   1.352   2.889   3.374 -0.6590  0.7920  0.2807
12557TIP3    H259163   1.495   2.923   3.337 -0.2572 -0.7248  0.3668
12558TIP3   OH259164   0.155   2.539   1.024 -0.4051 -0.7498 -0.0346
12558TIP3    H159165   0.203   2.619   1.048 -0.4738 -1.3999  2.5664
12558TIP3    H259166   0.206   2.501   0.953  1.5303 -0.1120  0.9354
12559TIP3   OH259167   3.532   0.021  12.763 -0.2684  0.6446  0.0357
12559TIP3    H159168   3.508   0.010  12.672  0.2566 -0.4930  0.0099
12559TIP3    H259169   3.586  -0.056  12.783 -1.3915  0.2118  1.6428
12560TIP3   OH259170   5.470   0.616   1.957 -0.3934  0.4267  0.4598
12560TIP3    H159171   5.485   0.611   2.051 -2.6341 -1.0886  0.8178
12560TIP3    H259172   5.493   0.529   1.924 -2.8805 -0.2062  0.2178
12561TIP3   OH259173   3.857   5.985  15.779  0.2568 -0.3111 -0.1137
12561TIP3    H159174   3.829   5.928  15.708 -1.3527 -1.0985  1.0980
12561TIP3    H259175   3.936   5.943  15.814  0.3861 -0.5402 -0.6781
12562TIP3   OH259176   1.684   0.439   5.204  0.0386 -0.0980 -0.2968
12562TIP3    H159177   1.696   0.476   5.291  0.9952  0.6112 -0.7091
12562TIP3    H259178   1.589   0.438   5.191 -0.0710  0.7635  0.3513
12563TIP3   OH259179   5.092   3.696  15.185 -0.3356 -0.7181 -0.9751
12563TIP3    H159180   5.155   3.737  15.244  1.8970 -2.1552 -2.2181
12563TIP3    H259181   5.048   3.631  15.240 -0.5323  0.0693 -0.1694
12564TIP3   OH259182   0.074   0.527  16.456 -0.4553 -0.3653  0.8437
12564TIP3    H159183   0.132   0.512  16.530 -0.2808  0.3386  0.8582
12564TIP3    H259184   0.081   0.621  16.439  0.7367 -0.7491 -1.0709
12565TIP3   OH259185   0.290   0.588   0.121 -0.4047 -0.0729  0.0541
12565TIP3    H159186   0.213   0.636   0.151 -0.9745  0.3500 -1.9447
12565TIP3    H259187   0.270   0.496   0.141 -0.4208  0.2339  1.5662
12566TIP3   OH259188   4.019   3.526   2.347  0.3402  0.4038 -0.3475
12566TIP3    H159189   3.928   3.547   2.327  0.4720 -0.5369 -2.0410
12566TIP3    H259190   4.028   3.434   2.325  0.9867 -0.3186  2.5712
12567TIP3   OH259191   6.479   3.575   0.961 -0.2669 -0.6997 -0.0740
12567TIP3    H159192   6.410   3.580   1.028 -0.4857  0.3154 -0.3600
12567TIP3    H259193   6.552   3.625   0.998 -0.4542  0.0264 -0.6528
12568TIP3   OH259194   4.652   2.421  15.129 -0.6069 -0.1061 -0.2374
12568TIP3    H159195   4.571   2.468  15.106 -0.8373  0.1527  1.0290
12568TIP3    H259196   4.685   2.467  15.206  0.9024 -0.0527 -0.8879
12569TIP3   OH259197   3.815   6.729  16.332 -0.1019 -0.4940 -0.2907
12569TIP3    H159198   3.854   6.813  16.307 -0.7436  0.2038  0.9422
12569TIP3    H259199   3.890   6.672  16.351  0.3397 -0.2265 -1.1845
12570TIP3   OH259200   1.154   4.760  15.624 -0.4513 -0.1850 -0.2647
12570TIP3    H159201   1.246   4.738  15.610 -0.3992 -0.5136  0.5545
12570TIP3    H259202   1.124   4.791  15.539  0.3904 -0.1703 -0.5662
12571TIP3   OH259203   4.553   4.386  11.854  0.0478  0.5525  0.2325
12571TIP3    H159204   4.619   4.316  11.848  1.8144  2.2314 -1.3886
12571TIP3    H259205   4.529   4.388  11.947 -0.8096 -2.7648  0.2182
12572TIP3   OH259206   3.088   5.133   4.835 -0.9793 -0.0311  0.0893
12572TIP3    H159207   3.056   5.052   4.794  1.6903 -0.7533 -0.8084
12572TIP3    H259208   3.049   5.203   4.783 -0.7826 -0.8679 -1.2503
12573TIP3   OH259209   1.934   0.593   3.576 -0.3804 -0.6092  0.2797
12573TIP3    H159210   1.876   0.602   3.652 -0.4209 -1.4662  0.3577
12573TIP3    H259211   1.983   0.512   3.592 -0.8428 -1.1475 -0.9033
12574TIP3   OH259212   5.662   6.524  14.495 -0.6438  0.5249  0.4103
12574TIP3    H159213   5.567   6.535  14.493 -0.8367 -0.9899 -0.5228
12574TIP3    H259214   5.692   6.558  14.410 -0.2582  1.6476  0.9859
12575TIP3   OH259215   5.646   2.730   5.258 -0.1417 -0.5960  0.0850
12575TIP3    H159216   5.617   2.645   5.290  1.5610 -1.1008  0.3734
12575TIP3    H259217   5.697   2.710   5.180 -0.6679  0.2732 -0.4994
12576TIP3   OH259218   6.544   6.193   0.166  0.5495  0.1010 -0.0351
12576TIP3    H159219   6.474   6.130   0.182  0.4863  0.6968  2.6985
12576TIP3    H259220   6.499   6.278   0.163  1.0662  0.4891  1.7792
12577TIP3   OH259221   3.677   1.384   3.929 -0.2369  0.3966 -0.0465
12577TIP3    H159222   3.711   1.471   3.947 -1.6627  0.4537  2.9482
12577TIP3    H259223   3.708   1.330   4.002 -1.7249 -0.9061 -0.3163
12578TIP3   OH259224   0.230   3.618   4.044 -0.1378 -0.1418 -0.1275
12578TIP3    H159225   0.228   3.524   4.022 -3.2971 -0.3421  0.6262
12578TIP3    H259226   0.254   3.661   3.963 -0.0333 -1.5259 -0.8583
12579TIP3   OH259227   1.866   3.180   4.317  0.5526  0.2479  0.9149
12579TIP3    H159228   1.899   3.226   4.240 -0.4161  0.1839  0.4502
12579TIP3    H259229   1.879   3.088   4.297  0.9037  0.2521  1.1137
12580TIP3   OH259230   4.416   1.273  14.522  0.4135 -0.5202  0.0951
12580TIP3    H159231   4.424   1.368  14.518 -2.2185 -0.2245  0.0868
12580TIP3    H259232   4.387   1.248  14.434  1.7542 -1.4705 -0.1149
12581TIP3   OH259233   0.480   3.708  12.987  0.4511 -0.2354  0.1875
12581TIP3    H159234   0.478   3.800  12.961 -1.8777 -0.0852  0.6898
12581TIP3    H259235   0.439   3.661  12.914  0.4090 -0.7072  0.5080
12582TIP3   OH259236   2.660   2.705  12.548  0.0697 -0.2027 -0.0845
12582TIP3    H159237   2.722   2.665  12.488  0.7088  1.3744 -0.5329
12582TIP3    H259238   2.582   2.722  12.495 -0.4790 -1.4365  0.2798
12583TIP3   OH259239   3.991   2.790   0.223  0.1512  0.2023  0.5775
12583TIP3    H159240   3.918   2.813   0.166  1.0422  1.7050  0.0032
12583TIP3    H259241   4.068   2.825   0.179  1.3007 -1.7512  0.9425
12584TIP3   OH259242   5.802   3.494   0.931  0.1013 -0.0294 -0.1071
12584TIP3    H159243   5.719   3.528   0.962  0.0195 -1.0451  0.8374
12584TIP3    H259244   5.789   3.399   0.924  1.9798 -0.6298  2.8285
12585TIP3   OH259245   4.089   0.542   2.064 -0.0733  0.1858 -0.2904
12585TIP3    H159246   4.068   0.614   2.004  0.0734 -0.2934 -0.9324
12585TIP3    H259247   4.131   0.585   2.139  1.2870  0.6511 -1.2734
12586TIP3   OH259248   1.875   1.661   1.470 -0.6884 -0.1240 -0.0571
12586TIP3    H159249   1.860   1.696   1.382 -0.8061 -2.0445 -0.8499
12586TIP3    H259250   1.788   1.648   1.506 -0.6379  1.6409  0.8043
12587TIP3   OH259251   5.508   6.116   6.095 -0.1986  0.2309 -0.4491
12587TIP3    H159252   5.513   6.021   6.081 -0.8194  0.2018 -0.4987
12587TIP3    H259253   5.588   6.137   6.144 -0.4909 -0.4635  0.3536
12588TIP3   OH259254   2.701   4.049   6.465 -0.0884  0.2622 -0.1802
12588TIP3    H159255   2.689   3.975   6.405  0.5274 -0.6321  0.7601
12588TIP3    H259256   2.757   4.110   6.418  0.6198 -0.5579 -0.4237
12589TIP3   OH259257   3.523   6.042   6.428 -0.2021 -0.2099  0.0002
12589TIP3    H159258   3.449   5.984   6.410 -1.2329  0.9630  0.2601
12589TIP3    H259259   3.545   6.080   6.342  1.2719 -1.8360 -0.3929
12590TIP3   OH259260   1.740   3.545  14.561  0.0218  0.6894 -0.0026
12590TIP3    H159261   1.804   3.607  14.524  0.6485  0.6819  1.0353
12590TIP3    H259262   1.665   3.599  14.584  0.0945  0.8770 -0.2030
12591TIP3   OH259263   1.465   6.021   4.745  0.0139 -0.0890 -0.0653
12591TIP3    H159264   1.513   6.041   4.665  1.6800  1.6075  1.2745
12591TIP3    H259265   1.379   6.062   4.732  1.0237  2.1044 -0.1384
12592TIP3   OH259266   1.476   0.912  14.742 -0.2864 -0.7017 -0.0363
12592TIP3    H159267   1.459   0.896  14.649  1.5609  0.9642 -0.7286
12592TIP3    H259268   1.489   1.006  14.748  0.4642 -0.8845  1.7557
12593TIP3   OH259269   0.571   3.369   2.401 -0.1723 -0.6272 -0.0072
12593TIP3    H159270   0.567   3.320   2.319  1.5211  0.0626 -0.5428
12593TIP3    H259271   0.484   3.410   2.408 -0.4418 -0.9194 -1.2984
12594TIP3   OH259272   0.869   0.082  15.823 -0.0218  0.5674 -0.1876
12594TIP3    H159273   0.809   0.008  15.831 -0.1131  0.6924  0.3629
12594TIP3    H259274   0.812   0.159  15.830  0.0104  0.7001 -1.2311
12595TIP3   OH259275   6.628   3.178  14.142 -0.3821 -0.1939  0.1364
12595TIP3    H159276   6.693   3.218  14.200 -1.0281  1.1185  0.0059
12595TIP3    H259277   6.549   3.172  14.196 -1.1853  1.6568 -0.7332
12596TIP3   OH259278   6.789   4.151   2.626  0.3288  0.5519 -0.3432
12596TIP3    H159279   6.777   4.105   2.709  2.2408 -1.6990 -1.2018
12596TIP3    H259280   6.703   4.150   2.585 -0.0302 -0.8509  0.3998
12597TIP3   OH259281   6.709   3.156   5.494  0.1360 -0.5421 -0.0192
12597TIP3    H159282   6.729   3.170   5.587 -1.4893 -0.2208  0.3192
12597TIP3    H259283   6.690   3.243   5.460  1.2768 -0.5895 -0.8145
12598TIP3   OH259284   1.873   1.300  14.781 -0.2103  0.1206  1.0883
12598TIP3    H159285   1.826   1.383  14.772 -1.2845 -0.6579 -1.2574
12598TIP3    H259286   1.807   1.233  14.762  1.5783 -1.0414 -1.7461
12599TIP3   OH259287   2.829   2.238   3.495 -0.4297 -0.2802  0.5444
12599TIP3    H159288   2.833   2.161   3.438 -1.6848  0.5667 -0.7925
12599TIP3    H259289   2.805   2.203   3.581  2.0437 -1.6578  0.7791
12600TIP3   OH259290   6.132   3.054   4.172 -0.2076 -0.0466  0.2629
12600TIP3    H159291   6.189   3.124   4.205  1.0412 -0.1201 -1.5600
12600TIP3    H259292   6.052   3.060   4.224  0.2918  2.0408  0.8538
12601TIP3   OH259293   2.299   0.505   0.975 -0.5536  0.1465 -0.3851
12601TIP3    H159294   2.322   0.598   0.966  0.2552 -0.0611 -0.5476
12601TIP3    H259295   2.293   0.473   0.885 -2.3689  0.3894 -0.3776
12602TIP3   OH259296   4.642   4.349  13.392 -0.4397  0.0834  0.0481
12602TIP3    H159297   4.689   4.431  13.406 -0.0967  0.5307 -3.0340
12602TIP3    H259298   4.553   4.367  13.421 -0.5006  1.7786 -1.0784
12603TIP3   OH259299   6.253   0.553   6.185 -0.3767  0.3165 -0.2387
12603TIP3    H159300   6.298   0.605   6.119  0.7179 -0.1625  0.0973
12603TIP3    H259301   6.276   0.463   6.164  1.2157  0.2223  1.6160
12604TIP3   OH259302   0.154   2.598  14.875  0.3160 -0.2670  0.0977
12604TIP3    H159303   0.103   2.537  14.821 -3.6078  1.5214  1.4160
12604TIP3    H259304   0.134   2.684  14.838  1.2619  0.6317  1.6206
12605TIP3   OH259305   0.534   0.754   4.137  0.7996  0.0743  0.5583
12605TIP3    H159306   0.534   0.673   4.188 -3.4685 -0.3466  0.2434
12605TIP3    H259307   0.595   0.737   4.065  1.6902 -1.9714  1.7143
12606TIP3   OH259308   2.537   2.728   0.002  0.1838 -1.0637 -0.0520
12606TIP3    H159309   2.608   2.667   0.024 -1.2826 -2.5087  0.9067
12606TIP3    H259310   2.518   2.774   0.083 -0.3796 -1.1294 -0.1423
12607TIP3   OH259311   1.244   3.636  14.933  0.0012 -0.1290 -0.4196
12607TIP3    H159312   1.164   3.584  14.931 -0.1316  0.0764 -0.4359
12607TIP3    H259313   1.293   3.602  15.008 -0.7815  0.7524  0.5239
12608TIP3   OH259314   3.266   1.669   1.449  0.1222  0.0926 -0.2030
12608TIP3    H159315   3.199   1.636   1.389  0.6141  0.1591 -0.7954
12608TIP3    H259316   3.316   1.732   1.398  1.5194 -0.9735 -0.2180
12609TIP3   OH259317   6.823   3.435   3.754  0.1834  0.2166 -0.0135
12609TIP3    H159318   6.819   3.406   3.663 -0.1148  3.5898 -1.2528
12609TIP3    H259319   6.857   3.524   3.748 -0.8929  0.9449  3.0744
12610TIP3   OH259320   5.745   0.359   4.882  0.9514  0.4228 -0.1820
12610TIP3    H159321   5.799   0.318   4.949 -0.2412  0.1855  0.6718
12610TIP3    H259322   5.774   0.321   4.800  2.1107  0.3612  0.2492
12611TIP3   OH259323   3.952   4.784   5.163 -0.8557 -0.2151  0.2894
12611TIP3    H159324   3.906   4.800   5.245 -0.9153  0.6308  0.0994
12611TIP3    H259325   4.040   4.817   5.178 -1.0225  0.4538 -0.1614
12612TIP3   OH259326   6.304   1.755  15.125 -0.6081 -0.7077  0.1606
12612TIP3    H159327   6.235   1.690  15.112 -1.7356  0.1897  1.3974
12612TIP3    H259328   6.257   1.837  15.141  0.7420 -0.0788  1.0847
12613TIP3   OH259329   6.014   5.745   4.304  0.6947 -0.1699  0.2530
12613TIP3    H159330   6.052   5.767   4.219 -0.7198  1.8987  0.0829
12613TIP3    H259331   6.090   5.725   4.359  1.7683  0.1326 -1.0463
12614TIP3   OH259332   4.250   6.033  13.184  0.1797  0.0576  0.3363
12614TIP3    H159333   4.202   6.020  13.102  0.0774 -0.4301  0.4713
12614TIP3    H259334   4.182   6.042  13.251  0.2532  0.9231  0.3090
12615TIP3   OH259335   2.804   0.510  13.292  0.1889 -0.0673 -0.5031
12615TIP3    H159336   2.819   0.500  13.386 -0.1253  0.0881 -0.4337
12615TIP3    H259337   2.749   0.588  13.285 -0.5327 -0.5852 -0.7401
12616TIP3   OH259338   5.329   6.488   5.576  0.3151  0.1720  0.1471
12616TIP3    H159339   5.263   6.524   5.517  1.1697  0.3724 -0.7143
12616TIP3    H259340   5.279   6.458   5.652 -1.0735 -1.8707 -1.4480
12617TIP3   OH259341   6.747   0.743  15.963  0.8190  0.5336 -0.0704
12617TIP3    H159342   6.686   0.733  16.035 -2.7680 -0.9728 -2.9616
12617TIP3    H259343   6.724   0.828  15.924 -0.0069 -0.3292 -1.5595
12618TIP3   OH259344   5.491   5.454   6.355  0.0764 -0.0356 -0.0152
12618TIP3    H159345   5.585   5.463   6.373  0.1944 -0.0561 -0.5837
12618TIP3    H259346   5.459   5.544   6.350  0.2061 -0.0100 -0.4838
12619TIP3   OH259347   4.390   5.696   0.862 -0.1227 -0.2586 -0.4978
12619TIP3    H159348   4.409   5.640   0.787 -1.1890 -1.5045  0.1172
12619TIP3    H259349   4.295   5.705   0.861 -0.5210 -2.8975  2.4464
12620TIP3   OH259350   3.029   1.592  16.734 -0.4280 -0.4707 -0.2148
12620TIP3    H159351   3.017   1.506  16.775 -0.7418 -0.1379  0.4159
12620TIP3    H259352   2.945   1.612  16.694 -1.1857  0.5889  1.7287
12621TIP3   OH259353   3.689   3.937  15.821  0.3577  0.3057  0.2807
12621TIP3    H159354   3.680   3.898  15.908 -0.4745  0.3085  0.2031
12621TIP3    H259355   3.761   4.000  15.830 -0.0559  0.6755  1.1053
12622TIP3   OH259356   1.312   2.412  16.581  0.2407 -0.4249 -0.3057
12622TIP3    H159357   1.364   2.492  16.591 -2.9003  1.9477 -1.0133
12622TIP3    H259358   1.227   2.434  16.621 -1.0177 -3.1524 -1.2317
12623TIP3   OH259359   5.487   3.734   2.975  0.5369  0.3861 -0.0963
12623TIP3    H159360   5.474   3.665   3.040  4.8190 -1.9506 -1.2731
12623TIP3    H259361   5.513   3.811   3.026  0.0044 -0.2117  1.1116
12624TIP3   OH259362   3.724   2.875  13.078  0.5381 -0.1868 -0.2060
12624TIP3    H159363   3.710   2.880  12.984 -0.2008 -0.8094 -0.1365
12624TIP3    H259364   3.781   2.799  13.090  0.7186 -0.0457 -0.1516
12625TIP3   OH259365   1.215   4.307   1.454  0.3399 -0.2501  0.3455
12625TIP3    H159366   1.257   4.296   1.539  1.1518 -0.4951 -0.0771
12625TIP3    H259367   1.240   4.230   1.403 -0.2671 -0.1881 -0.0671
12626TIP3   OH259368   3.135   4.587  10.521  0.3317  0.2274  0.5041
12626TIP3    H159369   3.069   4.588  10.590 -0.9781 -0.5362 -0.6920
12626TIP3    H259370   3.216   4.560  10.565 -0.6992 -1.2448  1.5492
12627TIP3   OH259371   3.245   4.768   1.232  0.4143  0.0584 -0.0559
12627TIP3    H159372   3.241   4.768   1.136  1.0325 -2.5614 -0.1584
12627TIP3    H259373   3.182   4.702   1.259  1.0526 -0.0320  1.2834
12628TIP3   OH259374   2.014   2.824   4.922 -0.3128  0.8847 -0.3441
12628TIP3    H159375   1.981   2.798   4.836  0.4900  1.3126 -0.7976
12628TIP3    H259376   1.985   2.915   4.932  0.6959  1.2624 -0.7446
12629TIP3   OH259377   0.345   2.572   4.092 -0.0321 -0.1874  0.4236
12629TIP3    H159378   0.353   2.542   4.002 -0.2188 -0.7292  0.5871
12629TIP3    H259379   0.258   2.543   4.119  1.2278 -2.9648  1.8673
12630TIP3   OH259380   1.847   3.074  15.693  0.0262 -0.1226  0.0035
12630TIP3    H159381   1.849   3.134  15.768 -1.8966 -0.7773  0.6284
12630TIP3    H259382   1.837   2.987  15.732  0.4781 -0.6286 -0.9778
12631TIP3   OH259383   3.814   2.879   0.937 -0.1111 -0.1501  0.1652
12631TIP3    H159384   3.751   2.810   0.954 -0.0500 -0.5764 -1.1699
12631TIP3    H259385   3.890   2.832   0.900 -0.3584  0.6647 -1.4710
12632TIP3   OH259386   6.306   0.350   0.113  0.4173 -0.7531  0.3252
12632TIP3    H159387   6.326   0.407   0.039 -1.2675  0.0741  0.4764
12632TIP3    H259388   6.247   0.284   0.077 -2.1211  0.8533  1.2867
12633TIP3   OH259389   2.700   5.353  16.441 -0.2654  0.0551  0.7616
12633TIP3    H159390   2.676   5.274  16.393  0.1467 -0.3310  1.1756
12633TIP3    H259391   2.787   5.334  16.477 -1.2073 -0.3203  3.0332
12634TIP3   OH259392   3.336   1.022  11.887 -0.5014 -0.1754 -0.7748
12634TIP3    H159393   3.370   1.079  11.819 -0.6202  1.4697  0.4865
12634TIP3    H259394   3.324   1.079  11.963  0.8280 -2.1691  1.0499
12635TIP3   OH259395   0.691   5.615   2.232  0.3184  0.0211  0.2222
12635TIP3    H159396   0.756   5.683   2.213 -0.5681  1.3112  1.6190
12635TIP3    H259397   0.701   5.552   2.160  1.2458  1.5527 -1.0601
12636TIP3   OH259398   4.225   0.221   4.169 -0.2620 -0.0076 -0.6947
12636TIP3    H159399   4.259   0.165   4.099 -1.3803 -0.1536 -1.1351
12636TIP3    H259400   4.298   0.279   4.189  0.0528  0.1188 -2.0707
12637TIP3   OH259401   0.790   2.141   3.890 -0.8334  0.0039  0.9896
12637TIP3    H159402   0.728   2.128   3.818 -2.2431 -3.0992  2.5750
12637TIP3    H259403   0.846   2.064   3.888  1.5883  1.6763  1.0155
12638TIP3   OH259404   1.791   2.314   0.223  0.4464  0.5441  0.5622
12638TIP3    H159405   1.783   2.220   0.240  1.4452  0.3312 -0.0857
12638TIP3    H259406   1.734   2.330   0.147  2.4545 -0.1098 -1.1664
12639TIP3   OH259407   4.512   2.420  13.226  1.0878 -0.4844 -0.0623
12639TIP3    H159408   4.597   2.464  13.218  1.1113 -0.4914  0.1376
12639TIP3    H259409   4.492   2.424  13.319  0.0276  1.0954 -0.3250
12640TIP3   OH259410   6.283   6.695   5.372 -1.0053  0.2438 -0.4230
12640TIP3    H159411   6.231   6.641   5.432 -0.0682 -1.4904 -1.0886
12640TIP3    H259412   6.266   6.785   5.399  0.7283 -0.4479  3.6683
12641TIP3   OH259413   2.815   2.564  13.449 -0.2792  0.5701 -0.1378
12641TIP3    H159414   2.756   2.587  13.377 -0.9598  2.0001  0.8220
12641TIP3    H259415   2.813   2.640  13.507  0.8215 -0.2399  1.0285
12642TIP3   OH259416   4.497   6.428   2.769  0.3880  1.0129 -0.0337
12642TIP3    H159417   4.435   6.479   2.717 -3.5564 -1.1362  2.0780
12642TIP3    H259418   4.505   6.477   2.851 -0.1663  0.3242  0.4460
12643TIP3   OH259419   6.133   6.517  16.130  0.0133 -1.0581  0.4417
12643TIP3    H159420   6.189   6.592  16.107 -0.4842 -0.6286  0.6088
12643TIP3    H259421   6.193   6.442  16.130  0.0179 -1.1496 -2.4392
12644TIP3   OH259422   3.627   5.541  11.164 -0.2861  0.5913 -0.5516
12644TIP3    H159423   3.590   5.611  11.219 -1.2422 -0.2662 -0.0607
12644TIP3    H259424   3.611   5.461  11.214  1.8778  0.1151 -0.5377
12645TIP3   OH259425   3.108   0.837  16.773  0.9046 -0.5300 -0.4279
12645TIP3    H159426   3.173   0.777  16.810  0.7143 -0.7809 -0.4987
12645TIP3    H259427   3.156   0.919  16.758  0.5715  0.2338  2.1496
12646TIP3   OH259428   0.126   6.677  16.945  0.2494 -0.2856 -0.1363
12646TIP3    H159429   0.053   6.622  16.971  0.5207 -0.6878 -0.2266
12646TIP3    H259430   0.144   6.652  16.854  0.9554 -0.6819  0.1116
12647TIP3   OH259431   2.397   3.552  16.887 -0.1988 -0.5814  0.4138
12647TIP3    H159432   2.477   3.541  16.938 -1.6376  1.5315  3.3991
12647TIP3    H259433   2.388   3.469  16.839  3.4166 -1.0943  0.3106
12648TIP3   OH259434   5.101   3.014  10.663 -0.0078 -0.0168  0.3758
12648TIP3    H159435   5.134   3.009  10.753  0.3085  0.0435  0.2642
12648TIP3    H259436   5.009   3.039  10.673 -0.3981 -1.5060  0.7566
12649TIP3   OH259437   2.313   1.696  14.926  0.4933  0.3018  0.1850
12649TIP3    H159438   2.367   1.687  14.847 -0.6599  0.5137 -0.6440
12649TIP3    H259439   2.287   1.606  14.947 -0.8257  0.4214 -0.8514
12650TIP3   OH259440   1.658   2.374   5.535  0.5694  0.3135  1.1397
12650TIP3    H159441   1.744   2.360   5.494  0.0196  0.4632 -0.0949
12650TIP3    H259442   1.601   2.403   5.464 -0.6214 -0.1830  1.8564
12651TIP3   OH259443   1.999   3.903   1.896 -0.1684  0.0138  0.8354
12651TIP3    H159444   1.974   3.994   1.880 -3.2961 -0.8192  0.4611
12651TIP3    H259445   2.085   3.895   1.855 -1.0066  2.0785 -1.6234
12652TIP3   OH259446   5.183   6.804   0.078  0.5499  0.1686  0.4226
12652TIP3    H159447   5.166   6.734   0.015  0.3700  0.6998 -0.1245
12652TIP3    H259448   5.261   6.775   0.126  0.0085 -0.7704  0.7392
12653TIP3   OH259449   1.329   5.009   3.323 -0.4758 -0.7418 -0.4023
12653TIP3    H159450   1.371   4.953   3.258 -0.4589 -1.0497 -0.1322
12653TIP3    H259451   1.401   5.039   3.379 -0.6766 -1.7293  0.4056
12654TIP3   OH259452   2.786   6.450   4.594 -0.7598  0.1026 -0.4804
12654TIP3    H159453   2.770   6.382   4.529 -0.1303 -0.5228  0.0093
12654TIP3    H259454   2.722   6.434   4.663  1.0792 -1.6838  0.9215
12655TIP3   OH259455   5.358   4.019   5.291  0.1484 -0.6773  0.0022
12655TIP3    H159456   5.271   4.003   5.256  0.6183 -0.4642 -1.3160
12655TIP3    H259457   5.343   4.055   5.379 -1.1042  0.3161 -0.6030
12656TIP3   OH259458   3.273   3.633   0.627  0.2993 -0.4719  0.0645
12656TIP3    H159459   3.250   3.540   0.636  0.7573 -0.5484  0.4774
12656TIP3    H259460   3.191   3.676   0.606  0.1722 -1.0451 -0.6664
12657TIP3   OH259461   6.232   2.066  14.787  0.5929 -0.0324  0.2958
12657TIP3    H159462   6.166   2.002  14.812 -0.1901  1.0679  1.1413
12657TIP3    H259463   6.298   2.015  14.740  0.1003 -1.4929  1.1099
12658TIP3   OH259464   3.593   5.684  13.732  0.6410 -0.4465  0.4644
12658TIP3    H159465   3.637   5.710  13.651 -1.5304  0.5906 -0.4443
12658TIP3    H259466   3.624   5.595  13.748  0.8587 -0.8231 -1.7023
12659TIP3   OH259467   5.909   6.065   1.031  0.3622 -0.0493  0.2227
12659TIP3    H159468   5.870   6.063   0.943  0.5140 -1.3795  0.1728
12659TIP3    H259469   5.922   6.158   1.049 -0.3723  0.2803 -0.8542
12660TIP3   OH259470   5.756   2.564  14.624  0.1421 -0.0805  0.2209
12660TIP3    H159471   5.818   2.501  14.588 -3.2602 -2.3820 -2.3723
12660TIP3    H259472   5.747   2.630  14.555 -1.0194 -0.4413 -0.0127
12661TIP3   OH259473   2.430   6.504  10.600 -0.6166 -0.0193 -0.5528
12661TIP3    H159474   2.451   6.587  10.558  0.6255 -0.4901 -0.9053
12661TIP3    H259475   2.343   6.483  10.569 -1.0820  1.2987 -0.2177
12662TIP3   OH259476   4.036   1.361  14.636 -0.6094  0.1985 -0.1442
12662TIP3    H159477   4.038   1.282  14.582  0.4149 -0.0460  0.2275
12662TIP3    H259478   4.122   1.364  14.678 -0.9130  1.0940  0.4536
12663TIP3   OH259479   1.859   3.184  13.045  0.3032 -0.0501 -0.7805
12663TIP3    H159480   1.946   3.148  13.028  1.0988  1.6170 -0.4807
12663TIP3    H259481   1.840   3.239  12.969 -0.3662 -0.1446 -0.6927
12664TIP3   OH259482   5.501   6.782  11.129  0.0292 -0.0791  0.2182
12664TIP3    H159483   5.551   6.702  11.146  2.5395  0.6678 -2.7291
12664TIP3    H259484   5.409   6.754  11.131  0.7674 -2.7781  0.3476
12665TIP3   OH259485   2.984   4.078  15.381 -0.4707  0.0462  0.4236
12665TIP3    H159486   2.890   4.096  15.382 -0.5772 -0.3321 -0.9054
12665TIP3    H259487   3.023   4.154  15.423 -1.2380  1.2224 -0.9021
12666TIP3   OH259488   6.341   1.576  15.828 -0.0416  0.1018  0.1819
12666TIP3    H159489   6.302   1.659  15.802 -0.3805  0.3120  1.2974
12666TIP3    H259490   6.408   1.600  15.893 -0.4117 -0.5115  0.8052
12667TIP3   OH259491   5.220   5.611  16.621  0.0936 -0.5102  0.0718
12667TIP3    H159492   5.224   5.635  16.714 -0.4250  0.3460 -0.1074
12667TIP3    H259493   5.269   5.681  16.577 -0.0662 -0.6543 -0.3336
12668TIP3   OH259494   3.876   4.626  16.296 -0.0779 -0.6819  0.2761
12668TIP3    H159495   3.827   4.669  16.366 -0.8988  0.8477 -1.1694
12668TIP3    H259496   3.876   4.689  16.224  0.2301 -2.4150 -1.3270
12669TIP3   OH259497   2.050   0.866  15.180 -0.3502 -0.1933  0.5510
12669TIP3    H159498   2.105   0.852  15.103 -1.6692 -0.9863 -0.2916
12669TIP3    H259499   1.995   0.942  15.157 -0.4047 -0.1172  0.9205
12670TIP3   OH259500   1.938   5.454  14.693 -0.3594 -0.9195  0.2122
12670TIP3    H159501   1.965   5.367  14.722 -0.1964 -0.6827  0.7857
12670TIP3    H259502   1.896   5.439  14.608 -1.2892 -1.6873  0.7840
12671TIP3   OH259503   2.774   6.067  15.256  0.1485  0.3238  0.0804
12671TIP3    H159504   2.837   6.065  15.184  1.0755  0.8405  0.8435
12671TIP3    H259505   2.706   6.004  15.231 -0.1131  1.2826 -1.7086
12672TIP3   OH259506   2.426   5.248   5.915 -0.0138 -0.2502 -0.3399
12672TIP3    H159507   2.357   5.182   5.915 -1.3848  1.1056  0.6424
12672TIP3    H259508   2.500   5.206   5.959  0.0074 -1.8862 -1.8089
12673TIP3   OH259509   2.306   4.540  15.273 -0.2801  0.1347 -0.2866
12673TIP3    H159510   2.295   4.547  15.368  0.7921 -1.7760  0.0244
12673TIP3    H259511   2.368   4.611  15.252 -0.0304  0.1869  0.5476
12674TIP3   OH259512   5.350   3.811  12.879  0.2185 -0.5681 -0.0518
12674TIP3    H159513   5.266   3.847  12.850  0.2597  0.4231  0.9948
12674TIP3    H259514   5.413   3.882  12.864  0.2502 -0.0188  2.3312
12675TIP3   OH259515   1.645   4.188  12.007  0.5060 -0.2845  0.4602
12675TIP3    H159516   1.610   4.123  12.068  1.4696  0.6818  2.1284
12675TIP3    H259517   1.720   4.144  11.966 -0.1910 -0.9674 -0.1197
12676TIP3   OH259518   0.779   2.837   2.090 -0.4243 -0.2699 -0.4378
12676TIP3    H159519   0.766   2.885   2.008 -0.8143 -0.4245 -0.4721
12676TIP3    H259520   0.808   2.750   2.062 -0.3732 -0.2628 -0.4055
12677TIP3   OH259521   1.481   3.257  14.030 -0.0228  0.4457  0.2301
12677TIP3    H159522   1.388   3.238  14.025  0.3130 -1.0116 -1.7546
12677TIP3    H259523   1.524   3.180  13.992  2.0888  0.5312  2.2089
12678TIP3   OH259524   5.878   4.893  13.962  0.1563 -0.4788  0.7095
12678TIP3    H159525   5.823   4.930  13.893 -0.9605  0.0036  1.8334
12678TIP3    H259526   5.877   4.958  14.032  2.3620 -0.3404  0.6989
12679TIP3   OH259527   3.360   2.044  14.191  0.6280 -0.1202 -0.2430
12679TIP3    H159528   3.382   2.120  14.136  1.6658  0.2057  0.6034
12679TIP3    H259529   3.428   1.980  14.173 -0.1499 -0.8152 -0.8206
12680TIP3   OH259530   1.082   0.982  12.514  0.0301  0.0535  0.3406
12680TIP3    H159531   1.064   1.001  12.606 -2.4027 -1.9663  0.3938
12680TIP3    H259532   1.176   0.996  12.505  0.2688  0.7810  2.9979
12681TIP3   OH259533   6.502   0.676   5.561 -0.4071 -0.2326  0.3223
12681TIP3    H159534   6.465   0.638   5.641  1.8377  1.8513  2.5225
12681TIP3    H259535   6.520   0.767   5.584  1.9319  0.0033 -1.9774
12682TIP3   OH259536   6.556   3.594   2.990  0.2955 -0.0334  0.1996
12682TIP3    H159537   6.469   3.592   3.030 -0.7597 -0.5115 -1.9806
12682TIP3    H259538   6.608   3.651   3.047 -1.8921  1.5679  0.6953
12683TIP3   OH259539   4.724   4.162  14.909  0.3623  0.2331 -0.7269
12683TIP3    H159540   4.675   4.231  14.864 -0.1819 -1.2313 -2.5415
12683TIP3    H259541   4.658   4.116  14.961 -0.0679 -1.0723 -2.3310
12684TIP3   OH259542   1.533   2.704  11.068  0.6248 -0.0584  0.0847
12684TIP3    H159543   1.565   2.735  10.983 -0.2457  1.5577  0.3104
12684TIP3    H259544   1.489   2.621  11.048  0.3290  0.3599 -1.0783
12685TIP3   OH259545   3.896   0.493   6.169 -0.2564 -0.5896  0.4904
12685TIP3    H159546   3.927   0.462   6.084 -0.4841 -0.1292  0.2373
12685TIP3    H259547   3.940   0.436   6.232  3.0002  1.4509  0.3308
12686TIP3   OH259548   0.887   2.285   2.190  0.0582  0.3293  0.2512
12686TIP3    H159549   0.846   2.199   2.178 -1.5427  0.6983  2.4301
12686TIP3    H259550   0.914   2.312   2.102 -0.2444 -1.9732 -0.6103
12687TIP3   OH259551   5.200   2.122   5.753 -0.2090 -0.2509  0.1455
12687TIP3    H159552   5.274   2.061   5.751  0.2448  0.2337  1.2498
12687TIP3    H259553   5.130   2.077   5.706  0.6449 -0.9108 -0.5174
12688TIP3   OH259554   0.215   6.636  14.459  0.0874  0.2175 -0.1870
12688TIP3    H159555   0.160   6.631  14.537  0.6743  0.0952  0.2304
12688TIP3    H259556   0.156   6.661  14.389 -0.3849  0.6829  0.3708
12689TIP3   OH259557   1.084   0.876  13.566 -0.3689 -0.4021  0.5255
12689TIP3    H159558   1.153   0.883  13.500 -1.3530  0.0655 -0.4682
12689TIP3    H259559   1.050   0.965  13.575 -0.6306 -0.5702  1.2484
12690TIP3   OH259560   6.312   6.469   2.962  0.2292 -0.6935  0.1192
12690TIP3    H159561   6.225   6.485   2.927  0.7863 -1.7717 -1.9197
12690TIP3    H259562   6.370   6.524   2.909  0.9426 -1.1957  0.3591
12691TIP3   OH259563   3.707   5.968   5.509  0.5298  0.9976 -0.0323
12691TIP3    H159564   3.617   5.971   5.542  0.4939 -0.6122  0.0892
12691TIP3    H259565   3.699   5.936   5.419  0.9634  1.1475 -0.1287
12692TIP3   OH259566   5.990   5.352   4.337  0.7531  0.0593  0.4068
12692TIP3    H159567   6.002   5.265   4.298 -1.9411  0.4661 -1.6206
12692TIP3    H259568   6.011   5.413   4.266 -0.8364  0.9075  0.6096
12693TIP3   OH259569   4.593   3.132   3.582 -0.2260 -0.3492 -0.2504
12693TIP3    H159570   4.550   3.086   3.510  1.4519 -0.8891 -0.9392
12693TIP3    H259571   4.673   3.082   3.599  0.1738  0.6443  0.9706
12694TIP3   OH259572   1.766   0.937  10.464 -0.7101 -0.6773 -0.2072
12694TIP3    H159573   1.771   0.949  10.369 -2.1354 -0.4758 -0.2852
12694TIP3    H259574   1.680   0.897  10.479  0.0162 -1.8866  0.8993
12695TIP3   OH259575   2.293   1.093  10.950  0.1313  0.8086  0.2227
12695TIP3    H159576   2.242   1.070  10.873  2.4917  0.3928 -1.3239
12695TIP3    H259577   2.294   1.189  10.951  1.9947  0.8780 -1.7247
12696TIP3   OH259578   1.053   5.507  11.166  0.1229  0.2552  0.1159
12696TIP3    H159579   1.046   5.482  11.074 -1.2708 -0.8601  0.4912
12696TIP3    H259580   0.963   5.527  11.192  0.0712 -1.7779  1.8234
12697TIP3   OH259581   5.958   5.348  11.885 -0.2667 -0.1580 -0.0035
12697TIP3    H159582   5.955   5.421  11.823 -1.1648  0.4698  0.7600
12697TIP3    H259583   5.871   5.309  11.880 -0.8675  0.7958  1.8830
12698TIP3   OH259584   1.277   0.438  16.416 -0.1797 -0.3143  0.0446
12698TIP3    H159585   1.203   0.386  16.448  0.5022 -3.0709 -2.4996
12698TIP3    H259586   1.244   0.480  16.337  0.6061 -0.5792 -0.4275
12699TIP3   OH259587   2.866   0.990  15.320  0.3995  0.0832  0.0226
12699TIP3    H159588   2.800   1.031  15.375  0.8076 -0.3817  0.8901
12699TIP3    H259589   2.841   0.897  15.318 -0.4347  0.2999 -1.7911
12700TIP3   OH259590   4.134   5.223  11.682  0.5701 -0.0228 -0.4275
12700TIP3    H159591   4.186   5.300  11.658  0.1437 -0.2013 -2.0319
12700TIP3    H259592   4.183   5.149  11.647  0.4354 -0.4028  0.1675
12701TIP3   OH259593   5.266   0.153  15.323  0.0279 -0.5715  0.7943
12701TIP3    H159594   5.306   0.080  15.276  0.5015 -1.2414  2.1880
12701TIP3    H259595   5.287   0.230  15.271  3.0890 -0.8888  1.3902
12702TIP3   OH259596   3.859   1.440   1.726  0.1550  0.4490 -0.2178
12702TIP3    H159597   3.838   1.467   1.815  0.3240 -0.4021  0.0848
12702TIP3    H259598   3.914   1.510   1.692 -0.1212  0.9040  0.2508
12703TIP3   OH259599   2.276   5.847   5.684 -0.8637 -0.1876 -0.7291
12703TIP3    H159600   2.329   5.913   5.729  0.4309  0.8321 -3.5453
12703TIP3    H259601   2.304   5.764   5.723  1.5396  0.4899 -0.8355
12704TIP3   OH259602   4.623   6.745  11.734 -0.5146  0.7514  0.2745
12704TIP3    H159603   4.663   6.769  11.817  0.1937  2.1656 -0.4398
12704TIP3    H259604   4.673   6.669  11.704 -0.1676  0.8097  0.7006
12705TIP3   OH259605   2.189   6.452   6.017 -0.1682  0.4326 -0.6707
12705TIP3    H159606   2.223   6.435   5.929  0.2200 -0.0246 -0.4334
12705TIP3    H259607   2.143   6.371   6.041  1.0769 -0.0397  0.1761
12706TIP3   OH259608   0.685   0.024  12.107  0.2354  0.1763 -0.6397
12706TIP3    H159609   0.592   0.046  12.114  0.0027 -0.4719 -1.5191
12706TIP3    H259610   0.730   0.107  12.121 -0.4124  0.2810  1.0604
12707TIP3   OH259611   4.776   1.734   2.465  0.2323  0.3935  0.7605
12707TIP3    H159612   4.824   1.810   2.500  1.1990 -0.1047  0.5298
12707TIP3    H259613   4.798   1.663   2.525  0.5029 -0.0522  0.1296
12708TIP3   OH259614   5.942   2.905  16.706  0.2285 -0.2558 -0.3337
12708TIP3    H159615   5.909   2.815  16.707 -0.4884 -0.0089  1.5504
12708TIP3    H259616   5.990   2.911  16.623 -1.1761 -1.8223 -1.3469
12709TIP3   OH259617   5.788   0.917  15.702 -0.0209 -0.6555  0.1242
12709TIP3    H159618   5.814   0.946  15.614  0.0322 -3.7925 -1.0395
12709TIP3    H259619   5.716   0.975  15.726  1.5232  1.8522 -0.8690
12710TIP3   OH259620   0.254   2.973  11.077  0.1582 -0.1635  0.1529
12710TIP3    H159621   0.267   3.039  11.009  0.7684  0.2411  0.6501
12710TIP3    H259622   0.186   2.916  11.042  0.6865 -0.1467 -0.9337
12711TIP3   OH259623   2.412   3.971  15.799 -0.6796  0.3061  0.7947
12711TIP3    H159624   2.424   3.926  15.716 -0.3841  1.5975  0.1159
12711TIP3    H259625   2.354   4.045  15.779 -1.3764  0.1003  1.9345
12712TIP3   OH259626   2.255   2.422   1.562  0.1658 -0.2302 -0.6271
12712TIP3    H159627   2.210   2.380   1.489 -0.5605 -0.5422 -0.0026
12712TIP3    H259628   2.300   2.351   1.608  0.3492 -0.0790 -0.5680
12713TIP3   OH259629   5.163   0.227   1.399  0.2520 -0.1428 -0.5953
12713TIP3    H159630   5.232   0.228   1.332  1.7958  0.0462  0.9433
12713TIP3    H259631   5.143   0.134   1.411  1.5407 -0.3378  0.2052
12714TIP3   OH259632   1.077   2.724   3.717 -0.1590 -0.1645  0.5290
12714TIP3    H159633   1.128   2.775   3.780  0.4564 -1.5006  1.1525
12714TIP3    H259634   0.996   2.773   3.706 -0.4482 -0.0727  2.6749
12715TIP3   OH259635   0.765   2.444  15.955  0.1572 -0.5196  0.1215
12715TIP3    H159636   0.859   2.456  15.946  0.4699 -2.4106  0.3592
12715TIP3    H259637   0.727   2.499  15.886  1.4564 -0.1917 -0.3669
12716TIP3   OH259638   3.701   0.774  14.651  0.0474 -0.5072 -0.1817
12716TIP3    H159639   3.791   0.768  14.682 -0.1830  0.5493  0.7907
12716TIP3    H259640   3.655   0.818  14.722 -1.6690 -2.7353  0.1863
12717TIP3   OH259641   0.801   3.570   0.318  0.1653 -0.1779 -0.4505
12717TIP3    H159642   0.722   3.572   0.371  0.0036  0.2479 -0.6964
12717TIP3    H259643   0.778   3.515   0.243  0.5529 -1.1827  0.1545
12718TIP3   OH259644   2.406   0.480   2.630 -0.0779 -0.5819 -0.0447
12718TIP3    H159645   2.431   0.547   2.566  1.3524 -1.9501 -0.9970
12718TIP3    H259646   2.389   0.529   2.711  3.3099  0.8129  0.0006
12719TIP3   OH259647   3.863   5.848   3.522 -0.0425 -0.0544 -0.4645
12719TIP3    H159648   3.809   5.876   3.595  1.7830 -1.5980  1.6012
12719TIP3    H259649   3.803   5.800   3.464 -1.2752  0.0279  0.7126
12720TIP3   OH259650   0.924   4.157  10.370  0.4364 -0.4693 -0.2359
12720TIP3    H159651   0.917   4.094  10.442 -2.8115  1.5871  1.5124
12720TIP3    H259652   0.864   4.125  10.304 -1.3387  0.6634  0.7196
12721TIP3   OH259653   1.764   1.642   3.838  0.4581  0.1812 -0.0675
12721TIP3    H159654   1.855   1.652   3.808  0.4523 -0.8997 -0.4612
12721TIP3    H259655   1.733   1.562   3.797 -0.8396  0.7750 -0.2990
12722TIP3   OH259656   5.238   1.463  13.176 -0.2848 -0.0951 -0.1961
12722TIP3    H159657   5.235   1.547  13.131 -2.7275 -0.3406 -0.6390
12722TIP3    H259658   5.163   1.415  13.142  0.4640 -2.0886  0.7903
12723TIP3   OH259659   6.726   5.208   5.048  0.2815 -0.2389 -0.1293
12723TIP3    H159660   6.700   5.195   5.139 -2.8490 -0.7234 -0.9637
12723TIP3    H259661   6.700   5.127   5.004  1.0590  0.2687 -1.5819
12724TIP3   OH259662   2.159   1.569  16.373  0.0456 -0.9518  0.4724
12724TIP3    H159663   2.169   1.496  16.312 -0.4511  0.2483 -1.1335
12724TIP3    H259664   2.247   1.583  16.409  0.6353 -0.9487 -0.8977
12725TIP3   OH259665   0.235   1.392   3.943 -0.5946 -0.3847  0.1633
12725TIP3    H159666   0.288   1.445   4.003 -0.8952  1.3065 -0.9848
12725TIP3    H259667   0.145   1.409   3.968 -0.6986 -0.2345 -0.2890
12726TIP3   OH259668   4.517   4.984  13.638  0.1305  0.0058 -0.2812
12726TIP3    H159669   4.484   4.986  13.548 -0.5185 -0.5484 -0.0610
12726TIP3    H259670   4.600   4.936  13.632 -0.9274 -1.9058 -0.2768
12727TIP3   OH259671   4.892   2.870   5.929 -0.0404 -0.2124 -0.3969
12727TIP3    H159672   4.813   2.827   5.897 -1.6067  2.3421 -0.2519
12727TIP3    H259673   4.882   2.869   6.025  1.4960 -2.2273 -0.1971
12728TIP3   OH259674   0.003   3.967  16.243 -0.5008 -0.1547 -0.2720
12728TIP3    H159675  -0.056   4.004  16.176  0.4712 -0.3551 -1.2671
12728TIP3    H259676  -0.047   3.895  16.281 -1.0367 -0.1143 -0.8709
12729TIP3   OH259677   5.570   5.604   0.291  0.1988 -0.4236 -0.3025
12729TIP3    H159678   5.561   5.544   0.365 -1.4293 -1.9856 -1.6591
12729TIP3    H259679   5.494   5.584   0.235  1.7719  0.0935 -2.7799
12730TIP3   OH259680   0.684   5.826   2.692 -0.2302  0.3216 -0.4249
12730TIP3    H159681   0.733   5.788   2.765 -0.2002 -0.9491 -1.0698
12730TIP3    H259682   0.651   5.909   2.726 -0.5348 -0.4067  1.1555
12731TIP3   OH259683   1.313   5.643  16.129  0.2443 -0.2969 -0.0968
12731TIP3    H159684   1.360   5.722  16.155  0.0630 -0.1644 -0.1706
12731TIP3    H259685   1.286   5.603  16.212  0.3113 -0.2667 -0.0610
12732TIP3   OH259686   5.312   4.487  13.713 -0.8734  0.2384  0.5833
12732TIP3    H159687   5.254   4.424  13.672 -1.7068  2.2790 -1.6163
12732TIP3    H259688   5.397   4.444  13.717 -1.7364 -1.5280  0.5981
12733TIP3   OH259689   5.373   2.446   4.823 -0.6811 -0.3178 -0.0482
12733TIP3    H159690   5.412   2.521   4.779 -0.2004 -1.4713 -1.6979
12733TIP3    H259691   5.402   2.370   4.772 -2.3643 -1.5075  0.6451
12734TIP3   OH259692   0.998   2.396   2.684  0.1897  0.0454  0.1257
12734TIP3    H159693   0.966   2.452   2.613 -0.1292 -0.3050 -0.0086
12734TIP3    H259694   0.958   2.311   2.667  0.8595 -0.2876  0.1934
12735TIP3   OH259695   3.055   4.351  15.637  0.2990  0.4275  0.2096
12735TIP3    H159696   2.982   4.357  15.699  1.4200  3.0175  1.4181
12735TIP3    H259697   3.015   4.367  15.552 -0.4685  3.2052  0.9809
12736TIP3   OH259698   5.039   3.088  15.560 -0.3960  0.1493 -0.4910
12736TIP3    H159699   5.075   3.023  15.500  2.6211  1.4002 -0.2408
12736TIP3    H259700   5.018   3.163  15.504 -1.2571 -0.0457 -0.4397
12737TIP3   OH259701   2.271   3.695  11.978 -0.4483 -0.3748  0.6432
12737TIP3    H159702   2.188   3.649  11.983 -0.7988  0.3018  1.4359
12737TIP3    H259703   2.316   3.658  11.902 -1.6162 -0.5016 -0.0017
12738TIP3   OH259704   0.605   0.387  14.386  0.2355  0.3357  0.5441
12738TIP3    H159705   0.647   0.412  14.304 -0.6368  3.2838  0.8792
12738TIP3    H259706   0.530   0.334  14.360  0.6156  0.2749 -0.4577
12739TIP3   OH259707   6.699   6.455   4.408 -0.1723 -0.3804  0.2398
12739TIP3    H159708   6.700   6.550   4.423  1.0518 -0.1461 -1.0857
12739TIP3    H259709   6.775   6.422   4.456 -1.1430 -0.8587  1.4984
12740TIP3   OH259710   5.447   5.781  11.996 -0.4858 -0.5520  0.2447
12740TIP3    H159711   5.537   5.799  12.024 -0.7369 -0.7966  1.2771
12740TIP3    H259712   5.425   5.853  11.937  0.4062 -0.5246 -0.0686
12741TIP3   OH259713   2.511   2.269   1.298  0.2218 -0.9205 -0.3298
12741TIP3    H159714   2.518   2.363   1.283 -0.3501 -0.6059  1.1778
12741TIP3    H259715   2.547   2.229   1.219  2.9064  0.5323  0.0613
12742TIP3   OH259716   2.387   6.810   2.734 -0.5619 -0.3919 -0.3523
12742TIP3    H159717   2.404   6.865   2.658 -2.6278  0.8907  0.0209
12742TIP3    H259718   2.315   6.752   2.706  0.5612 -1.8986 -0.2472
12743TIP3   OH259719   0.015   2.372  15.080 -0.1285  0.2386 -0.2441
12743TIP3    H159720  -0.065   2.333  15.045 -0.7292 -0.0573  1.3558
12743TIP3    H259721  -0.008   2.463  15.096 -0.1824  0.1342  0.2919
12744TIP3   OH259722   2.498   3.805   4.325 -0.2853  0.1995  0.2176
12744TIP3    H159723   2.537   3.727   4.283 -0.5131  0.0536  0.2795
12744TIP3    H259724   2.561   3.875   4.306  0.0174 -0.0387  0.3267
12745TIP3   OH259725   6.320   6.194   1.810 -0.2746  0.1277 -0.2014
12745TIP3    H159726   6.237   6.206   1.856  0.9543 -0.4353  2.2959
12745TIP3    H259727   6.330   6.099   1.803  0.0443  0.1943 -0.7381
12746TIP3   OH259728   6.024   5.720  10.530 -0.6783 -0.6697 -0.1931
12746TIP3    H159729   5.934   5.701  10.554 -0.7686 -0.4185 -0.3217
12746TIP3    H259730   6.077   5.668  10.590 -0.9107 -1.0480 -0.3130
12747TIP3   OH259731   6.618   0.190   5.510  0.0886  0.4039  0.6519
12747TIP3    H159732   6.710   0.206   5.488 -0.6073  2.1536 -1.4245
12747TIP3    H259733   6.585   0.139   5.436 -0.6348 -0.1374  1.3377
12748TIP3   OH259734   4.164   6.262  16.044 -0.2294  0.3064  0.5354
12748TIP3    H159735   4.232   6.204  16.009 -2.3299 -0.3040 -3.0343
12748TIP3    H259736   4.086   6.207  16.049 -1.6275  2.1083 -0.2544
12749TIP3   OH259737   4.456   1.549   5.544  0.0981 -0.1207 -0.7136
12749TIP3    H159738   4.470   1.643   5.555 -1.6999  0.3325 -1.8349
12749TIP3    H259739   4.369   1.534   5.581 -0.6370 -0.8822 -2.6530
12750TIP3   OH259740   0.313   5.295  13.725 -0.3673  0.4811 -0.0608
12750TIP3    H159741   0.311   5.199  13.731 -1.0027  0.4843 -0.1004
12750TIP3    H259742   0.221   5.321  13.732 -0.2335  1.0680 -0.4018
12751TIP3   OH259743   0.830   6.541  14.205 -0.6391 -0.5410  0.4605
12751TIP3    H159744   0.870   6.605  14.147  0.8067 -1.3535  0.4958
12751TIP3    H259745   0.834   6.581  14.292 -0.3327 -0.4193  0.3908
12752TIP3   OH259746   4.900   2.700  11.117 -0.1084 -0.5568 -0.3689
12752TIP3    H159747   4.838   2.700  11.044 -2.1988  2.3069  1.2147
12752TIP3    H259748   4.891   2.613  11.156 -2.0637 -0.7253 -1.0978
12753TIP3   OH259749   3.542   5.912   2.881  0.2680  0.1084  0.3255
12753TIP3    H159750   3.456   5.916   2.923 -0.3846 -0.9250 -0.8595
12753TIP3    H259751   3.542   5.985   2.819  0.8502  1.0318  1.3886
12754TIP3   OH259752   5.864   1.777   0.231  0.3426  0.9099  0.2280
12754TIP3    H159753   5.853   1.738   0.318 -0.1860  0.0353 -0.2095
12754TIP3    H259754   5.774   1.790   0.200  0.5318  0.9758 -0.2851
12755TIP3   OH259755   2.397   4.111  15.437 -0.1868 -0.4185 -0.2855
12755TIP3    H159756   2.349   4.144  15.361  1.7444  1.4837 -0.7920
12755TIP3    H259757   2.460   4.049  15.401  0.7703  0.5296 -0.2760
12756TIP3   OH259758   4.480   0.261  13.473  0.2753  0.2243 -0.8312
12756TIP3    H159759   4.415   0.231  13.410 -0.5402 -0.6932  0.3906
12756TIP3    H259760   4.563   0.225  13.442 -0.4498 -2.2157 -0.1937
12757TIP3   OH259761   6.105   3.016  15.841 -0.0192 -0.1481 -0.1010
12757TIP3    H159762   6.056   2.989  15.763  0.6640 -1.1798 -0.1837
12757TIP3    H259763   6.180   3.065  15.807 -0.1752  0.1253 -0.0506
12758TIP3   OH259764   6.321   5.626  14.564  0.2657  0.7698  0.6047
12758TIP3    H159765   6.279   5.711  14.554 -0.0404  0.4675 -0.8294
12758TIP3    H259766   6.308   5.582  14.480  0.6283 -0.6032  1.2321
12759TIP3   OH259767   0.674   4.379  12.677 -0.3424  0.1828  0.6785
12759TIP3    H159768   0.686   4.320  12.751 -1.4808 -0.9922 -0.0216
12759TIP3    H259769   0.593   4.426  12.695  0.3195  1.2215  1.0127
12760TIP3   OH259770   0.205   5.303  16.237  0.1209  0.6208  0.3202
12760TIP3    H159771   0.164   5.353  16.307 -0.5885  1.3457 -0.6053
12760TIP3    H259772   0.143   5.306  16.164 -0.4599 -2.4956  0.5384
12761TIP3   OH259773   4.410   2.584  14.434 -0.2441  0.0664  0.0918
12761TIP3    H159774   4.491   2.549  14.396  0.0489 -0.0357  0.8097
12761TIP3    H259775   4.412   2.556  14.525 -2.2728 -2.0762 -0.4219
12762TIP3   OH259776   2.344   1.362  11.815 -0.2463 -0.1119 -0.1773
12762TIP3    H159777   2.260   1.404  11.834 -0.3960 -0.1943 -0.6348
12762TIP3    H259778   2.409   1.430  11.830 -0.3584 -0.1611  0.5680
12763TIP3   OH259779   2.197   6.158   5.007  0.2862 -0.3354 -0.0846
12763TIP3    H159780   2.234   6.239   5.042 -0.0352 -0.2846  0.1444
12763TIP3    H259781   2.144   6.187   4.932 -1.2635 -0.1092  1.0483
12764TIP3   OH259782   0.806   5.947   0.972  0.1158 -0.3916 -0.1071
12764TIP3    H159783   0.781   5.858   0.946 -1.2012 -0.3655  0.9628
12764TIP3    H259784   0.809   5.996   0.890  2.0757 -1.6796 -0.8611
12765TIP3   OH259785   1.585   3.202  16.032 -0.3638  0.5321  0.0561
12765TIP3    H159786   1.652   3.202  16.100  0.4694  0.8021 -0.7536
12765TIP3    H259787   1.590   3.115  15.992 -1.1798  0.2026  0.6368
12766TIP3   OH259788   6.660   1.980   0.609 -0.0596  0.0605  0.2167
12766TIP3    H159789   6.651   2.032   0.529 -1.0463 -1.1572 -0.5177
12766TIP3    H259790   6.680   2.043   0.677 -1.0052  1.3730 -0.6655
12767TIP3   OH259791   0.075   4.518   6.147  0.7020 -0.1164 -0.0899
12767TIP3    H159792  -0.007   4.544   6.190 -0.7217 -0.5469 -2.3562
12767TIP3    H259793   0.140   4.581   6.178 -1.2473  2.3554 -0.7159
12768TIP3   OH259794   6.458   4.104   0.012  0.2415 -0.5879  0.3608
12768TIP3    H159795   6.400   4.052  -0.043 -0.5630  1.7964 -1.2152
12768TIP3    H259796   6.526   4.135  -0.049 -0.6325  2.0768  0.6308
12769TIP3   OH259797   0.175   1.693   4.454 -0.1491  0.1566 -0.5864
12769TIP3    H159798   0.248   1.754   4.441  0.3198 -0.2674 -0.0223
12769TIP3    H259799   0.191   1.657   4.541 -1.3628  0.4875 -0.2137
12770TIP3   OH259800   4.820   4.602   5.269  0.1385 -0.1088  0.0018
12770TIP3    H159801   4.764   4.589   5.346 -0.4414  0.2780 -0.3415
12770TIP3    H259802   4.909   4.603   5.303 -0.1586  1.0202  0.7994
12771TIP3   OH259803   5.779   2.694   3.645 -0.2561  0.1856 -0.8353
12771TIP3    H159804   5.699   2.667   3.691 -1.0496  1.6891 -1.2610
12771TIP3    H259805   5.795   2.623   3.582  0.4314 -1.5344  1.1534
12772TIP3   OH259806   3.628   1.653   1.096 -0.5990 -0.2153  0.1546
12772TIP3    H159807   3.612   1.575   1.149 -0.1883  0.3855  1.1805
12772TIP3    H259808   3.562   1.649   1.027 -1.4324 -0.7822  0.9597
12773TIP3   OH259809   3.589   0.335  11.806 -0.1081  0.4889  0.3088
12773TIP3    H159810   3.567   0.373  11.721 -0.8326 -0.6448 -0.0430
12773TIP3    H259811   3.677   0.368  11.826  0.1406  0.6303 -0.9622
12774TIP3   OH259812   2.006   0.776   0.295 -0.3652  0.5097 -0.3814
12774TIP3    H159813   1.983   0.701   0.239 -0.4003 -0.7120  1.2014
12774TIP3    H259814   1.926   0.828   0.299 -0.5137  0.3523 -1.0351
12775TIP3   OH259815   5.760   0.368   1.351 -0.6751 -0.0294 -0.1031
12775TIP3    H159816   5.759   0.272   1.349 -0.1007 -0.0230 -1.5469
12775TIP3    H259817   5.702   0.394   1.280 -1.6271  0.7307  0.9093
12776TIP3   OH259818   5.319   3.052   1.077 -0.6433  0.4215 -0.2655
12776TIP3    H159819   5.300   3.095   0.993 -0.1751  0.4990 -0.3360
12776TIP3    H259820   5.354   2.966   1.052  1.1005  1.0722 -0.2187
12777TIP3   OH259821   1.833   1.763   2.464 -0.1680  0.2998  0.6482
12777TIP3    H159822   1.751   1.812   2.466 -0.3692  0.0049 -0.0615
12777TIP3    H259823   1.898   1.824   2.500 -0.6465  0.6202  0.9881
12778TIP3   OH259824   5.566   4.539   3.931  0.1056  0.2698 -0.3004
12778TIP3    H159825   5.632   4.471   3.925  0.5704  0.5419  1.2219
12778TIP3    H259826   5.499   4.514   3.868 -0.1216 -2.0409  0.7573
12779TIP3   OH259827   6.591   5.157  15.491 -0.6561 -0.1020  0.8318
12779TIP3    H159828   6.650   5.146  15.565 -0.0109  1.3192  0.5500
12779TIP3    H259829   6.510   5.192  15.529 -0.4142  0.3894  0.8925
12780TIP3   OH259830   5.845   0.185  14.529 -0.4182  0.3950  0.9722
12780TIP3    H159831   5.845   0.155  14.620 -0.8900  2.6013  1.7620
12780TIP3    H259832   5.937   0.180  14.503 -0.4596 -1.5016  1.0997
12781TIP3   OH259833   5.951   2.557  10.468 -0.3152  0.3435 -0.2719
12781TIP3    H159834   6.041   2.523  10.470  0.1497  1.5322  1.1019
12781TIP3    H259835   5.896   2.479  10.475  0.6666 -0.2931  1.0303
12782TIP3   OH259836   0.340   4.049   2.830  0.5155 -0.0857  0.2707
12782TIP3    H159837   0.344   4.056   2.925  1.3104  0.0844  0.2352
12782TIP3    H259838   0.326   3.956   2.814  0.5744 -0.1445  0.5510
12783TIP3   OH259839   2.163   6.648   2.554  0.1873  0.3884 -0.5165
12783TIP3    H159840   2.069   6.651   2.537  0.1458  0.8111 -0.2354
12783TIP3    H259841   2.172   6.585   2.626 -0.1018  1.7890  0.7933
12784TIP3   OH259842   1.268   5.222  13.466  0.2569  0.0824  0.0119
12784TIP3    H159843   1.231   5.218  13.378  1.4406 -0.3552 -0.4995
12784TIP3    H259844   1.336   5.289  13.461  1.7125 -1.3296  0.0054
12785TIP3   OH259845   4.810   6.737   3.536  0.1381 -0.7972 -0.1605
12785TIP3    H159846   4.902   6.728   3.513  0.0182 -1.5930 -0.3298
12785TIP3    H259847   4.811   6.774   3.625  0.5999  0.8129 -0.8057
12786TIP3   OH259848   1.171   3.321   2.829  0.0780 -0.3864 -0.6874
12786TIP3    H159849   1.181   3.261   2.755 -0.1256 -1.0835 -0.1597
12786TIP3    H259850   1.146   3.405   2.789 -1.9563 -1.2285 -1.2936
12787TIP3   OH259851   4.121   1.485   0.989 -0.2000 -0.1005 -0.1933
12787TIP3    H159852   4.038   1.479   1.037  0.7262 -1.5819  1.3205
12787TIP3    H259853   4.123   1.575   0.956 -1.7145  0.4288  1.0241
12788TIP3   OH259854   2.334   2.227   2.428 -0.2666  0.5223 -0.0535
12788TIP3    H159855   2.318   2.320   2.441  0.7923  0.7581 -0.2977
12788TIP3    H259856   2.380   2.223   2.344 -0.1594 -0.2098  0.0357
12789TIP3   OH259857   2.969   2.253  12.203 -0.1849  0.1866  0.5146
12789TIP3    H159858   2.974   2.161  12.229 -0.1080 -0.0901 -0.4342
12789TIP3    H259859   3.030   2.298  12.261  0.0700 -0.4257  0.7260
12790TIP3   OH259860   1.915   1.516  11.520  0.3490 -0.2252 -0.2585
12790TIP3    H159861   1.887   1.471  11.440  2.9358 -1.2582 -0.6623
12790TIP3    H259862   1.955   1.597  11.489 -0.3223  0.2875  0.1696
12791TIP3   OH259863   0.673   1.730   6.193 -0.1630 -0.1853  0.0989
12791TIP3    H159864   0.737   1.759   6.258  0.6238 -0.0331 -0.7250
12791TIP3    H259865   0.636   1.650   6.230  0.5985 -0.3428  0.5380
12792TIP3   OH259866   0.720   0.164   6.109 -0.4395  0.1977  0.1569
12792TIP3    H159867   0.737   0.249   6.148  1.6658  0.5297 -1.3282
12792TIP3    H259868   0.752   0.101   6.173 -1.2979  0.5220  0.9247
12793TIP3   OH259869   5.499   1.889   2.927  0.3904 -0.4220  0.6180
12793TIP3    H159870   5.577   1.913   2.976  0.5071  0.5184 -0.0159
12793TIP3    H259871   5.427   1.896   2.990  0.4190  1.6270  0.4593
12794TIP3   OH259872   0.199   4.284  11.578 -0.0886  0.2237 -0.2376
12794TIP3    H159873   0.170   4.196  11.556 -0.7869  0.7405 -1.4454
12794TIP3    H259874   0.135   4.342  11.536 -0.3834  1.2976  1.5815
12795TIP3   OH259875   4.096   0.181   5.508 -0.4969 -0.5499  0.0674
12795TIP3    H159876   4.101   0.274   5.484 -0.0659 -0.9110 -1.3047
12795TIP3    H259877   4.182   0.146   5.485 -0.3916 -1.1500  1.2846
12796TIP3   OH259878   0.770   4.964  12.556  0.2116 -0.3230 -0.0907
12796TIP3    H159879   0.792   5.054  12.531 -1.4714  0.0113 -0.4421
12796TIP3    H259880   0.830   4.945  12.628  0.5788  1.0926  0.0150
12797TIP3   OH259881   5.407   0.443  11.360 -0.0005 -0.2273 -0.1575
12797TIP3    H159882   5.452   0.471  11.440 -0.8646 -0.4918  0.4348
12797TIP3    H259883   5.352   0.518  11.336  0.3979 -0.0751 -0.6284
12798TIP3   OH259884   4.037   0.756   1.884  0.7351 -0.2125 -0.1751
12798TIP3    H159885   4.122   0.799   1.880  0.3034  0.6860 -0.1467
12798TIP3    H259886   3.995   0.777   1.800  0.3062 -0.1002  0.0593
12799TIP3   OH259887   5.220   0.291  13.697 -0.0041  0.2059  0.9090
12799TIP3    H159888   5.243   0.264  13.608 -1.3206 -0.5693  0.7636
12799TIP3    H259889   5.239   0.385  13.700  2.7696 -0.2769  0.7626
12800TIP3   OH259890   0.973   4.703  14.287 -0.0922  0.0079  0.1176
12800TIP3    H159891   0.943   4.780  14.335  0.5090  1.7830 -2.1857
12800TIP3    H259892   0.929   4.708  14.203  2.5568 -0.1612 -1.4056
12801TIP3   OH259893   2.309   5.869   3.759 -0.3967 -0.1839 -0.0880
12801TIP3    H159894   2.349   5.930   3.696  1.3400 -1.3212 -0.1730
12801TIP3    H259895   2.219   5.899   3.767 -0.3415  0.7575 -2.1714
12802TIP3   OH259896   2.928   0.566   4.200 -0.1739  0.2004 -0.1552
12802TIP3    H159897   3.006   0.534   4.244  0.7517  0.8863 -1.2444
12802TIP3    H259898   2.888   0.627   4.262 -0.2274 -0.6651  0.6729
12803TIP3   OH259899   4.614   6.812   3.128  0.4649 -0.0265 -0.0219
12803TIP3    H159900   4.666   6.752   3.182 -0.0545  0.4846  1.0975
12803TIP3    H259901   4.572   6.870   3.192 -0.3438  0.4707 -0.9844
12804TIP3   OH259902   1.627   2.182   4.990 -0.3081 -0.0427  0.1601
12804TIP3    H159903   1.670   2.196   4.906  2.1425 -0.9140  1.1951
12804TIP3    H259904   1.625   2.087   5.001  0.5288  0.0841  1.6167
12805TIP3   OH259905   3.341   4.207  15.226 -0.2345  0.2350  0.2440
12805TIP3    H159906   3.354   4.220  15.320  0.0191 -0.2860  0.2887
12805TIP3    H259907   3.327   4.113  15.218 -1.2673  0.4149 -0.1293
12806TIP3   OH259908   1.422   3.044  14.999  0.0286 -0.1785  0.8870
12806TIP3    H159909   1.515   3.062  14.985  0.0865 -0.7792  0.4744
12806TIP3    H259910   1.413   2.950  14.983 -1.2861  0.4181 -2.7378
12807TIP3   OH259911   1.859   3.179   1.451 -0.4020  0.8003  0.0944
12807TIP3    H159912   1.843   3.154   1.541  0.6376  0.9187  0.3324
12807TIP3    H259913   1.784   3.146   1.402  0.3096 -1.7255  0.5713
12808TIP3   OH259914   5.234   1.624  12.428 -0.0463  0.3514 -0.3586
12808TIP3    H159915   5.286   1.700  12.452 -0.5918  1.2918 -1.9631
12808TIP3    H259916   5.164   1.620  12.493  0.0664  1.1438 -0.1844
12809TIP3   OH259917   2.032   4.041  14.138 -0.2112 -0.3300 -0.3439
12809TIP3    H159918   1.977   4.052  14.061  0.1158 -2.3656 -0.9103
12809TIP3    H259919   1.978   3.992  14.200 -0.6164  1.6248  0.9467
12810TIP3   OH259920   0.797   1.931  14.022 -0.5732  0.0918  0.2799
12810TIP3    H159921   0.834   1.893  14.102 -1.2333  2.2595  1.6879
12810TIP3    H259922   0.743   2.003  14.052 -1.6573  0.3684 -2.0993
12811TIP3   OH259923   2.703   2.297  12.635 -0.0410 -0.8854 -0.3091
12811TIP3    H159924   2.631   2.344  12.595 -0.4668 -2.3263 -1.3221
12811TIP3    H259925   2.695   2.314  12.729 -1.5590 -0.8358 -0.4315
12812TIP3   OH259926   1.708   0.660  12.894  0.1598 -0.2198  0.0149
12812TIP3    H159927   1.664   0.618  12.968 -0.8440 -4.0463 -2.4714
12812TIP3    H259928   1.648   0.731  12.869 -0.5725 -0.2749  1.4729
12813TIP3   OH259929   6.190   5.849  16.284  0.4231 -0.7567  0.0562
12813TIP3    H159930   6.204   5.927  16.339  2.0035 -0.5063 -0.6289
12813TIP3    H259931   6.159   5.884  16.201 -2.2266 -1.1558  0.7878
12814TIP3   OH259932   3.095   6.504  13.927 -0.0465 -0.7363 -0.1758
12814TIP3    H159933   3.040   6.571  13.886 -0.1037 -0.5461  0.1993
12814TIP3    H259934   3.068   6.505  14.019 -1.4171 -2.6267 -0.4947
12815TIP3   OH259935   3.632   1.915   1.193  0.6246  0.1947 -0.0140
12815TIP3    H159936   3.627   1.836   1.139  2.2598  1.8365 -2.8062
12815TIP3    H259937   3.554   1.910   1.250 -0.9757 -1.9396 -2.1806
12816TIP3   OH259938   4.755   4.605   1.988 -0.3434  0.0738  0.1498
12816TIP3    H159939   4.777   4.613   2.080 -0.7449 -0.2877  0.2783
12816TIP3    H259940   4.662   4.582   1.986 -0.4439  0.4885 -0.3563
12817TIP3   OH259941   2.007   1.186   3.839 -0.7003  0.3983 -0.4038
12817TIP3    H159942   2.064   1.152   3.770 -0.8817 -0.2723 -0.2280
12817TIP3    H259943   1.965   1.108   3.877 -2.4513  0.9179 -1.1604
12818TIP3   OH259944   2.051   6.190  14.912 -0.4301  0.3991  0.4882
12818TIP3    H159945   1.968   6.232  14.888 -0.2013  0.6008  0.0231
12818TIP3    H259946   2.115   6.261  14.908 -0.2482  0.2564  0.9094
12819TIP3   OH259947   4.276   5.170  12.096  0.0899 -0.0019  0.1770
12819TIP3    H159948   4.278   5.137  12.185 -2.4849 -1.8161 -0.3295
12819TIP3    H259949   4.364   5.152  12.061  1.1571  0.7938  2.2688
12820TIP3   OH259950   1.119   2.516  14.755  0.4298  0.2642 -0.0014
12820TIP3    H159951   1.091   2.436  14.799 -0.0620  0.1108 -0.5759
12820TIP3    H259952   1.213   2.505  14.742  0.5091  0.1476  0.6678
12821TIP3   OH259953   5.886   0.789  16.898 -0.8411  0.0058 -0.0677
12821TIP3    H159954   5.980   0.808  16.900 -0.5224 -1.3519 -0.6986
12821TIP3    H259955   5.864   0.787  16.805 -1.3405 -0.3796  0.0566
12822TIP3   OH259956   5.947   1.746   4.791  0.6737 -0.2929  0.4294
12822TIP3    H159957   5.861   1.738   4.749  0.9954 -3.2008  0.0816
12822TIP3    H259958   5.949   1.835   4.825 -1.6274  0.5596 -1.3505
12823TIP3   OH259959   1.335   0.628   2.963  0.0476  0.0721 -0.0589
12823TIP3    H159960   1.377   0.700   3.011  1.4008 -0.9727  0.3691
12823TIP3    H259961   1.393   0.553   2.976 -1.4116 -1.1546 -0.3705
12824TIP3   OH259962   2.699   0.517   0.861 -0.0226 -0.1051 -0.1088
12824TIP3    H159963   2.619   0.486   0.818  0.9501 -2.8170 -0.1515
12824TIP3    H259964   2.680   0.509   0.955 -0.4922  1.2986 -0.0579
12825TIP3   OH259965   0.157   3.395  12.421 -0.4366 -0.4570  0.6508
12825TIP3    H159966   0.073   3.429  12.450 -0.6106  0.2725 -0.6327
12825TIP3    H259967   0.181   3.450  12.346  0.2832 -1.8315 -0.1684
12826TIP3   OH259968   6.825   4.846   6.238 -0.1053 -0.3482  0.3029
12826TIP3    H159969   6.886   4.804   6.298  0.2028  0.2818  0.4327
12826TIP3    H259970   6.739   4.809   6.261  0.1273 -0.7087  0.5911
12827TIP3   OH259971   3.891   1.556  13.224  0.4756  0.2527  0.4919
12827TIP3    H159972   3.856   1.636  13.185 -0.0806  0.0415  0.5565
12827TIP3    H259973   3.860   1.557  13.315 -1.1692 -0.9860 -0.0174
12828TIP3   OH259974   4.285   4.666   5.351  0.4539 -0.8609  0.0651
12828TIP3    H159975   4.345   4.710   5.411 -0.1067 -0.5421  0.3946
12828TIP3    H259976   4.254   4.590   5.401  0.6621 -1.0850 -0.1444
12829TIP3   OH259977   4.300   5.811  11.186  0.1770  0.3679  0.1000
12829TIP3    H159978   4.237   5.879  11.164  0.9439  0.7581 -0.9732
12829TIP3    H259979   4.251   5.729  11.177  0.4757  0.4495 -3.5356
12830TIP3   OH259980   3.110   0.685   2.853  0.2258 -0.1227  0.4397
12830TIP3    H159981   3.111   0.651   2.942  0.5304  0.0772  0.5138
12830TIP3    H259982   3.184   0.746   2.849  0.0730  0.0470  0.1199
12831TIP3   OH259983   1.449   1.364   3.745  0.4031  0.2945  0.3160
12831TIP3    H159984   1.524   1.308   3.765  1.4060  1.2000 -0.7712
12831TIP3    H259985   1.486   1.439   3.698 -1.3528 -0.0727 -1.8308
12832TIP3   OH259986   4.455   3.665  10.771 -0.4803  0.1855 -0.5006
12832TIP3    H159987   4.512   3.698  10.840 -0.0403 -1.2588 -0.1575
12832TIP3    H259988   4.419   3.744  10.731  2.5653  1.2354 -1.4472
12833TIP3   OH259989   1.053   2.862   1.916  0.0108  0.4352  0.7160
12833TIP3    H159990   0.981   2.869   1.854  0.8013  1.1769 -0.1593
12833TIP3    H259991   1.064   2.951   1.949  1.7860  0.8114 -0.6849
12834TIP3   OH259992   5.382   3.153   1.433  0.4995  0.0145  0.4083
12834TIP3    H159993   5.370   3.245   1.411  0.8695  0.1816  0.8907
12834TIP3    H259994   5.298   3.113   1.414 -0.1197  0.7224  1.5314
12835TIP3   OH259995   3.742   2.802   4.592  0.1678 -0.2416  0.6242
12835TIP3    H159996   3.738   2.722   4.644 -0.0712 -0.5683  0.1061
12835TIP3    H259997   3.668   2.796   4.532  0.0626  0.4368  0.6784
12836TIP3   OH259998   3.036   3.781  13.735 -0.1119  0.7750 -0.0843
12836TIP3    H159999   3.108   3.735  13.779 -1.1438  0.0354  0.9195
12836TIP3    H260000   2.963   3.719  13.738 -0.4060  0.9101 -2.4233
12837TIP3   OH260001   3.355   1.011  11.446 -0.2173  0.3364  0.3099
12837TIP3    H160002   3.401   1.095  11.432  0.0588 -0.1067 -1.8513
12837TIP3    H260003   3.420   0.945  11.423 -1.3358 -0.3628 -0.9692
12838TIP3   OH260004   5.715   3.150  13.892  0.6531 -0.1966  0.1108
12838TIP3    H160005   5.712   3.241  13.921  1.6882 -0.0838 -0.0872
12838TIP3    H260006   5.737   3.100  13.970 -0.6955 -0.3764  0.3871
12839TIP3   OH260007   0.822   2.812   3.703 -0.3130 -0.0405  0.1650
12839TIP3    H160008   0.733   2.846   3.701  0.5541  2.4739 -1.4662
12839TIP3    H260009   0.859   2.849   3.784 -0.5691 -0.6881  0.5911
12840TIP3   OH260010   3.916   4.673   4.431  0.4357  1.0042 -0.2908
12840TIP3    H160011   3.879   4.646   4.347  1.2105  3.8393 -1.6576
12840TIP3    H260012   3.876   4.613   4.495 -2.1409  0.3552 -2.3363
12841TIP3   OH260013   6.850   2.622   2.026 -0.1374  0.5832  0.2731
12841TIP3    H160014   6.922   2.563   2.046  0.3489  1.0712 -0.0029
12841TIP3    H260015   6.809   2.639   2.111 -1.1087 -1.1537  0.2017
12842TIP3   OH260016   4.567   1.944   0.486  0.1881 -0.3359 -0.6577
12842TIP3    H160017   4.662   1.951   0.495 -0.0174  0.5681  1.4158
12842TIP3    H260018   4.539   2.034   0.465 -0.1862 -0.7098 -1.8420
12843TIP3   OH260019   5.259   0.062  12.113  0.3205 -0.2102  0.4557
12843TIP3    H160020   5.258  -0.023  12.157  0.1633 -0.6191 -0.3221
12843TIP3    H260021   5.171   0.097  12.125  1.0878  1.0513  3.0337
12844TIP3   OH260022   2.367   4.493   3.958  0.3215 -0.0798  0.7991
12844TIP3    H160023   2.429   4.432   3.998  2.4947 -0.8830 -3.1785
12844TIP3    H260024   2.282   4.450   3.966  0.9262 -1.0353  2.6559
12845TIP3   OH260025   1.089   5.610   3.122 -0.1186 -0.7196 -0.0711
12845TIP3    H160026   1.140   5.672   3.173 -1.1679  1.0737 -1.0683
12845TIP3    H260027   1.112   5.630   3.031 -1.8664 -0.4580 -0.4939
12846TIP3   OH260028   2.885   5.721   0.045  0.2236 -0.3360  0.0951
12846TIP3    H160029   2.947   5.649   0.054  0.1191 -0.2720  1.6884
12846TIP3    H260030   2.891   5.768   0.128 -2.5600 -0.8219  0.6671
12847TIP3   OH260031   4.589   4.021   3.556  0.4906  0.1804 -0.2550
12847TIP3    H160032   4.533   3.992   3.484 -1.3038 -1.0677  1.5255
12847TIP3    H260033   4.575   4.116   3.560 -0.9400  0.0072 -0.3651
12848TIP3   OH260034   2.082   0.555  12.614 -0.3216  0.3649  0.3233
12848TIP3    H160035   2.012   0.573  12.550 -1.4796 -0.5745  1.2730
12848TIP3    H260036   2.148   0.621  12.596 -0.5458  0.0583 -1.9331
12849TIP3   OH260037   0.282   2.313   3.077  0.1532 -0.4462  0.1314
12849TIP3    H160038   0.313   2.356   3.157 -0.7011 -0.4144  0.4503
12849TIP3    H260039   0.352   2.329   3.014 -0.0987  1.3523  0.2571
12850TIP3   OH260040   2.785   4.960   5.875 -0.1329  0.2666  0.5843
12850TIP3    H160041   2.871   4.936   5.841  0.2126 -0.5641  1.9680
12850TIP3    H260042   2.785   4.927   5.965 -1.7508  0.6149  0.7345
12851TIP3   OH260043   2.457   0.893  10.460  0.8144 -0.9166 -0.2468
12851TIP3    H160044   2.441   0.985  10.437 -0.2765 -0.5500  1.7355
12851TIP3    H260045   2.466   0.848  10.376  0.0329  0.7721 -1.2850
12852TIP3   OH260046   0.025   2.790   4.527  0.0527  0.4713  0.0605
12852TIP3    H160047   0.027   2.698   4.501  2.0749  0.7106 -0.8068
12852TIP3    H260048   0.051   2.790   4.619 -0.1109  0.1605  0.1063
12853TIP3   OH260049   0.157   1.422  16.103 -0.1188  0.2686  0.3208
12853TIP3    H160050   0.071   1.459  16.083 -0.3225 -0.6867 -0.6557
12853TIP3    H260051   0.186   1.383  16.021 -0.3047 -2.5136  1.4657
12854TIP3   OH260052   6.546   4.750   4.810 -0.4280  0.3345  0.5865
12854TIP3    H160053   6.467   4.789   4.772  0.0449  0.6005 -0.1372
12854TIP3    H260054   6.594   4.824   4.846  0.4415  0.4407 -0.7359
12855TIP3   OH260055   4.857   4.908   4.159  0.5501  0.4471 -0.4713
12855TIP3    H160056   4.813   4.987   4.125  0.4122  1.8125  2.5797
12855TIP3    H260057   4.930   4.894   4.099  0.0076  2.3144 -1.6700
12856TIP3   OH260058   5.086   6.547   2.851  0.2206  0.4113 -0.3788
12856TIP3    H160059   5.004   6.526   2.896  0.7121 -1.5485 -0.3066
12856TIP3    H260060   5.058   6.593   2.772 -0.8642  0.9713  0.3027
12857TIP3   OH260061   3.434   1.084  12.149  0.1578 -0.0369 -0.5745
12857TIP3    H160062   3.429   0.990  12.166  0.7458  0.1488  0.7921
12857TIP3    H260063   3.504   1.115  12.206  0.7886  1.0557 -1.8679
12858TIP3   OH260064   2.121   3.367  11.482  0.6235 -0.2185 -0.0576
12858TIP3    H160065   2.194   3.428  11.465  0.2950  0.3505  0.5312
12858TIP3    H260066   2.156   3.281  11.458  1.3458  0.1008 -0.1948
12859TIP3   OH260067   3.047   0.580   2.105 -0.2757  0.1850  0.6541
12859TIP3    H160068   3.102   0.543   2.174  1.1858  0.2892 -0.4062
12859TIP3    H260069   3.108   0.624   2.046 -1.3523 -0.5787 -1.1423
12860TIP3   OH260070   1.424   4.701  15.580  0.7696  0.2392  0.1415
12860TIP3    H160071   1.455   4.776  15.632  2.6186 -0.6817  0.4778
12860TIP3    H260072   1.495   4.685  15.518  0.6921 -1.5903  0.4785
12861TIP3   OH260073   5.603   3.369   3.804  0.7716  0.1501  0.2412
12861TIP3    H160074   5.660   3.424   3.859 -0.2261  0.8875  0.5628
12861TIP3    H260075   5.602   3.413   3.719  0.2001  0.4835  0.4157
12862TIP3   OH260076   6.679   1.220   1.817  0.0813  0.1647  0.4512
12862TIP3    H160077   6.667   1.144   1.760  0.5380  0.3009  0.1764
12862TIP3    H260078   6.595   1.266   1.813 -1.1382 -1.6402  2.5817
12863TIP3   OH260079   1.678   1.861   5.891  0.1413  0.1372 -0.3470
12863TIP3    H160080   1.597   1.828   5.852 -2.3110  1.1910  3.3549
12863TIP3    H260081   1.660   1.954   5.908  0.9440 -0.2169  3.0570
12864TIP3   OH260082   6.633   0.333   3.567  0.1055  0.1135  0.1330
12864TIP3    H160083   6.694   0.379   3.625 -2.2617 -0.0440  3.0320
12864TIP3    H260084   6.646   0.373   3.481  3.6878  0.5296  0.7146
12865TIP3   OH260085   5.843   3.057   5.309  0.5100  0.6492 -0.2579
12865TIP3    H160086   5.791   2.979   5.330 -0.2820  0.9620 -1.0131
12865TIP3    H260087   5.920   3.023   5.264 -0.5587  0.3888 -1.9589
12866TIP3   OH260088   5.446   1.768   2.029  0.8305 -0.0104  0.0153
12866TIP3    H160089   5.536   1.754   2.058  0.6504 -1.0673  0.1127
12866TIP3    H260090   5.403   1.809   2.104  1.1780  0.3067  0.0437
12867TIP3   OH260091   2.388   3.362   0.116 -0.3207 -0.7044 -0.1252
12867TIP3    H160092   2.309   3.362   0.061  0.4686  0.6397 -1.3178
12867TIP3    H260093   2.373   3.430   0.181  0.8834  1.4509 -1.9925
12868TIP3   OH260094   3.793   0.924  13.168  0.1627 -0.6414 -0.1362
12868TIP3    H160095   3.794   0.830  13.150 -0.3614 -1.0827  1.8867
12868TIP3    H260096   3.884   0.951  13.162  0.2457 -1.1397 -1.3235
12869TIP3   OH260097   3.161   1.191  11.706  0.3040 -0.1020 -0.2420
12869TIP3    H160098   3.255   1.188  11.687  0.5957 -0.3417  1.1504
12869TIP3    H260099   3.119   1.164  11.624  1.4273  0.3428 -0.9879
12870TIP3   OH260100   4.547   3.626  16.132 -0.1713 -0.8586  0.2699
12870TIP3    H160101   4.610   3.664  16.194 -1.2434  2.7728 -0.6345
12870TIP3    H260102   4.462   3.638  16.174 -0.8332  0.8253 -1.4525
12871TIP3   OH260103   5.121   4.207   5.709  0.3125  0.1636  0.8667
12871TIP3    H160104   5.166   4.244   5.633 -1.4677  1.9695  0.6133
12871TIP3    H260105   5.114   4.279   5.771  0.1100 -0.7936  1.9886
12872TIP3   OH260106   0.430   1.200   1.864 -0.4558 -0.0042  0.7685
12872TIP3    H160107   0.401   1.154   1.942 -0.4236  1.7954  1.9075
12872TIP3    H260108   0.351   1.213   1.812 -0.7194 -0.0292  1.1615
12873TIP3   OH260109   1.670   6.152  17.099 -0.0650 -0.0860  0.8337
12873TIP3    H160110   1.735   6.198  17.047  1.6601 -0.7844  2.2712
12873TIP3    H260111   1.592   6.150  17.044  0.7787  1.7069 -0.5282
12874TIP3   OH260112   0.347   3.998  11.702  0.4704  0.0886  0.2330
12874TIP3    H160113   0.284   4.055  11.657  0.8119 -0.2325 -0.6833
12874TIP3    H260114   0.412   4.057  11.739 -1.1894  0.5678  2.6109
12875TIP3   OH260115   3.252   3.887   3.732  0.5514  0.2821 -0.0602
12875TIP3    H160116   3.261   3.846   3.646 -1.1543 -0.2090 -0.0241
12875TIP3    H260117   3.322   3.953   3.734  1.5038 -0.6497 -1.2512
12876TIP3   OH260118   1.173   6.221   2.011 -0.8880 -0.0065 -0.1397
12876TIP3    H160119   1.242   6.156   2.000 -0.3117  0.1513  1.9824
12876TIP3    H260120   1.219   6.303   2.023 -1.5435  0.4680 -0.7650
12877TIP3   OH260121   6.774   2.773  16.330 -0.3523  0.0581  0.4142
12877TIP3    H160122   6.783   2.793  16.423 -1.7047 -1.0713  0.8338
12877TIP3    H260123   6.820   2.690  16.318 -0.7310 -0.1299  0.2288
12878TIP3   OH260124   6.846   2.406  15.981  0.2271 -0.1161 -0.1902
12878TIP3    H160125   6.772   2.435  16.034  1.3640  1.4478  0.6173
12878TIP3    H260126   6.888   2.338  16.033  1.1992  1.2481  0.8594
12879TIP3   OH260127   0.402   6.051  14.659 -0.7671  0.5408 -0.2488
12879TIP3    H160128   0.338   6.122  14.665 -1.3549 -0.0014  0.0748
12879TIP3    H260129   0.352   5.976  14.627 -0.2727  0.1384 -0.0950
12880TIP3   OH260130   1.532   3.366  11.338 -0.4222  0.0554  0.1177
12880TIP3    H160131   1.550   3.360  11.432 -0.9088  0.8154  0.2670
12880TIP3    H260132   1.578   3.445  11.310  2.4919 -1.8458 -0.9845
12881TIP3   OH260133   0.544   1.470   5.280  0.1572  0.3877 -0.3502
12881TIP3    H160134   0.577   1.554   5.312  3.2873 -0.7488 -0.2265
12881TIP3    H260135   0.525   1.485   5.187  0.7210  1.2349 -0.3362
12882TIP3   OH260136   3.862   0.073   0.187 -0.2229  0.7820 -0.3573
12882TIP3    H160137   3.900   0.077   0.274 -2.4383 -0.8375  0.7689
12882TIP3    H260138   3.890  -0.012   0.152 -0.8589  0.6036 -0.4482
12883TIP3   OH260139   5.938   6.405  15.981 -0.6607  0.4236 -0.3434
12883TIP3    H160140   5.875   6.477  15.979  0.0890  1.1562  0.8598
12883TIP3    H260141   6.015   6.443  16.023  0.1444 -0.7940 -0.6826
12884TIP3   OH260142   4.632   2.729  13.982 -0.2979  0.0901 -0.2336
12884TIP3    H160143   4.558   2.668  13.976 -2.2281  2.4050 -1.6143
12884TIP3    H260144   4.607   2.803  13.928  2.4464  1.6533  0.4342
12885TIP3   OH260145   4.378   3.144   0.033  0.1913  1.2067 -0.1366
12885TIP3    H160146   4.435   3.136   0.109  0.5178  1.8055 -0.3064
12885TIP3    H260147   4.429   3.107  -0.039  0.4943  1.9951 -0.3432
12886TIP3   OH260148   2.721   2.148  15.213 -0.1231  0.5277 -0.1615
12886TIP3    H160149   2.741   2.207  15.285  1.1547  0.5320 -0.4891
12886TIP3    H260150   2.796   2.156  15.154  0.2696 -1.6525 -0.0524
12887TIP3   OH260151   0.454   3.261  14.586 -0.5363 -0.1195  0.1613
12887TIP3    H160152   0.409   3.278  14.503  1.0407  0.3087 -0.6456
12887TIP3    H260153   0.524   3.200  14.562  0.9182  1.2188  0.8539
12888TIP3   OH260154   1.395   2.510  10.682 -0.4420  0.6325 -0.6496
12888TIP3    H160155   1.455   2.531  10.610  1.0171  0.7671  0.5600
12888TIP3    H260156   1.327   2.577  10.677  0.5414  1.6465 -0.8967
12889TIP3   OH260157   0.614   5.337   4.688  0.7764 -0.1861 -0.7081
12889TIP3    H160158   0.562   5.293   4.755 -1.2090  0.2410 -1.8545
12889TIP3    H260159   0.611   5.278   4.613 -1.6906  1.6169 -2.1709
12890TIP3   OH260160   6.099   3.699  13.693  0.2700 -0.8984  0.1817
12890TIP3    H160161   6.157   3.627  13.716 -0.2934 -2.0138 -1.7067
12890TIP3    H260162   6.118   3.717  13.601  0.5239  1.5219  0.6445
12891TIP3   OH260163   0.395   5.859   2.112 -0.5382  0.5537  0.3143
12891TIP3    H160164   0.429   5.839   2.199  0.5672 -0.5729 -0.3426
12891TIP3    H260165   0.470   5.893   2.064 -0.7048 -0.4245 -0.6825
12892TIP3   OH260166   2.691   2.546   5.331  0.6327  0.3828 -0.3666
12892TIP3    H160167   2.701   2.452   5.346  0.3141  0.1576 -1.4388
12892TIP3    H260168   2.618   2.572   5.389  2.1418  0.4563  1.6001
12893TIP3   OH260169   2.810   1.732   4.791  0.3053 -0.5044  0.1084
12893TIP3    H160170   2.727   1.685   4.799 -0.6617  0.6531 -2.1988
12893TIP3    H260171   2.788   1.824   4.806  0.8820 -0.0129 -1.8401
12894TIP3   OH260172   2.789   5.615   5.273  0.0517 -0.7197 -0.0380
12894TIP3    H160173   2.817   5.661   5.194  0.2488  0.6386  0.7861
12894TIP3    H260174   2.812   5.523   5.258 -2.1723 -0.9823 -2.5897
12895TIP3   OH260175   3.453   5.484   5.401 -0.4547  0.4713  0.0471
12895TIP3    H160176   3.369   5.455   5.367 -0.5192  1.2690 -0.5073
12895TIP3    H260177   3.495   5.405   5.433 -0.3101 -0.3616 -2.0617
12896TIP3   OH260178   2.971   5.204   1.800 -0.1901  0.5377  0.5469
12896TIP3    H160179   2.911   5.270   1.835 -2.4007 -2.3569  2.6831
12896TIP3    H260180   3.043   5.201   1.862 -0.7047  0.1318  1.1365
12897TIP3   OH260181   4.905   3.426   2.352 -0.5195  0.3198 -0.1451
12897TIP3    H160182   4.817   3.395   2.372 -0.2342 -0.2318  0.2962
12897TIP3    H260183   4.932   3.374   2.276  0.4755 -1.5641  1.4089
12898TIP3   OH260184   4.402   5.059  15.527 -0.0023 -0.1818 -0.4546
12898TIP3    H160185   4.334   5.125  15.533 -0.2544 -0.4004 -0.8715
12898TIP3    H260186   4.355   4.976  15.517  0.2948 -0.4986  0.5594
12899TIP3   OH260187   5.988   2.582  15.225 -0.2321  0.3435  0.5457
12899TIP3    H160188   6.073   2.553  15.192 -0.6545  1.1345 -1.3665
12899TIP3    H260189   5.925   2.519  15.191 -0.7013  1.2726 -0.3615
12900TIP3   OH260190   6.551   5.516   5.883 -0.1584  0.3493  0.3400
12900TIP3    H160191   6.485   5.451   5.905  0.5961 -0.4551  0.2625
12900TIP3    H260192   6.608   5.519   5.960 -0.7533  1.6497  0.7518
12901TIP3   OH260193   3.874   1.612  10.492 -0.5370 -0.1070 -0.3795
12901TIP3    H160194   3.881   1.521  10.520 -1.0019 -0.3089 -0.9001
12901TIP3    H260195   3.806   1.649  10.548 -2.1417 -0.7609 -1.8000
12902TIP3   OH260196   3.028   3.489   1.289  0.0598  0.6289  0.4694
12902TIP3    H160197   3.016   3.573   1.334 -0.7456  0.8732 -0.1730
12902TIP3    H260198   3.109   3.500   1.238 -0.3392  1.2370 -0.0569
12903TIP3   OH260199   0.199   6.251  14.990 -0.0646  0.0354 -0.1546
12903TIP3    H160200   0.221   6.240  15.083  0.7977 -0.2501 -0.3828
12903TIP3    H260201   0.212   6.344  14.973 -2.3093  0.5289  0.5128
12904TIP3   OH260202   1.904   6.309   3.921 -0.5767 -0.2864 -0.4222
12904TIP3    H160203   1.926   6.402   3.921  1.3321 -0.7026  0.3817
12904TIP3    H260204   1.865   6.293   4.007  2.0576 -0.8283  0.7416
12905TIP3   OH260205   3.577   4.597  16.425 -0.2000  0.1215 -0.8173
12905TIP3    H160206   3.647   4.654  16.459 -2.3325  0.7403  3.1028
12905TIP3    H260207   3.532   4.650  16.359 -1.1843  2.5772  1.6433
12906TIP3   OH260208   1.706   6.481  15.847  0.1591 -0.0362 -0.0192
12906TIP3    H160209   1.694   6.473  15.941 -0.2646  0.8513  0.0136
12906TIP3    H260210   1.635   6.539  15.818  0.3989 -0.1365 -0.8505
12907TIP3   OH260211   1.979   6.663  17.074  0.1537 -0.0456  0.3958
12907TIP3    H160212   2.065   6.626  17.092 -0.1174 -0.4411  0.9043
12907TIP3    H260213   1.918   6.601  17.113 -0.3548  0.3414  0.2249
12908TIP3   OH260214   4.230   3.204   3.360 -0.0679  0.1555  0.4113
12908TIP3    H160215   4.212   3.116   3.395 -0.6557  0.9067  2.1093
12908TIP3    H260216   4.151   3.228   3.312 -1.4344  1.1370  2.9811
12909TIP3   OH260217   2.974   3.705   1.419  0.2928 -0.8204  0.3214
12909TIP3    H160218   2.899   3.756   1.451  0.0031 -0.9676 -0.1163
12909TIP3    H260219   3.050   3.752   1.453  0.2782  2.2558 -3.1726
12910TIP3   OH260220   0.821   6.473  11.806  0.3423  0.7203 -0.1826
12910TIP3    H160221   0.799   6.508  11.892 -0.1546  0.9667 -0.4090
12910TIP3    H260222   0.797   6.380  11.812  0.8455  0.6058  0.1287
12911TIP3   OH260223   4.174   0.422  15.251 -0.1426 -0.2124 -0.1993
12911TIP3    H160224   4.169   0.430  15.346 -0.2800 -2.0922 -0.0097
12911TIP3    H260225   4.218   0.502  15.222  0.1429  0.2661  1.4567
12912TIP3   OH260226   0.749   4.031  16.052  0.1561 -0.5037  0.1415
12912TIP3    H160227   0.706   4.115  16.066  0.6822  0.3653 -2.7594
12912TIP3    H260228   0.842   4.050  16.055  0.2984 -1.1841  0.3820
12913TIP3   OH260229   3.940   6.018  12.664 -0.1749 -0.4115  0.5517
12913TIP3    H160230   3.980   5.955  12.724  0.0063  0.0140  0.8770
12913TIP3    H260231   3.849   5.988  12.655  0.1794 -1.3268 -0.1175
12914TIP3   OH260232   1.824   2.835  14.685  0.4990  0.0878 -0.3288
12914TIP3    H160233   1.760   2.892  14.642  0.0426  0.5588  0.9377
12914TIP3    H260234   1.787   2.747  14.677 -0.8782  0.4625  1.2723
12915TIP3   OH260235   5.154   2.701   0.317 -0.2382 -0.0786 -0.4347
12915TIP3    H160236   5.120   2.772   0.263  0.5849  1.2249  0.6995
12915TIP3    H260237   5.127   2.621   0.271  0.7917  0.9385 -3.0278
12916TIP3   OH260238   5.111   1.790   1.574 -0.0355 -0.3883 -0.6302
12916TIP3    H160239   5.075   1.774   1.661  1.3026  0.7733  0.1872
12916TIP3    H260240   5.041   1.835   1.527 -0.4909 -0.2905  0.1234
12917TIP3   OH260241   4.764   2.981   5.262  0.2146  0.4377  0.2586
12917TIP3    H160242   4.833   2.991   5.197  0.9230 -0.4565  0.8402
12917TIP3    H260243   4.727   2.895   5.245 -1.8088  1.4927 -0.9974
12918TIP3   OH260244   2.869   3.606   3.147 -0.2511 -0.1131  0.0591
12918TIP3    H160245   2.822   3.625   3.066 -0.1969 -0.6266 -0.0978
12918TIP3    H260246   2.814   3.642   3.216 -0.0849  0.7122 -0.2345
12919TIP3   OH260247   4.234   3.880   5.270  0.6616 -0.3634  0.0533
12919TIP3    H160248   4.214   3.787   5.280 -0.2958 -0.1958 -0.1968
12919TIP3    H260249   4.170   3.912   5.206  0.7515  0.5449  0.3919
12920TIP3   OH260250   5.507   6.466   1.839  0.3649  0.3416  0.0897
12920TIP3    H160251   5.510   6.434   1.749  0.7395 -0.1745  0.2790
12920TIP3    H260252   5.523   6.389   1.893  0.4800  0.7047  0.5888
12921TIP3   OH260253   6.575   4.420   4.344  0.0646  0.2762 -0.4261
12921TIP3    H160254   6.626   4.465   4.277  0.8011  0.2385  0.1000
12921TIP3    H260255   6.582   4.476   4.421  1.3988 -0.9612  0.3795
12922TIP3   OH260256   2.558   1.168  12.859 -0.3751  0.0778 -0.0303
12922TIP3    H160257   2.531   1.184  12.768 -2.3512 -2.5901 -0.0396
12922TIP3    H260258   2.503   1.227  12.911 -1.3401 -0.4284 -0.4521
12923TIP3   OH260259   0.161   4.289  14.162 -0.4551 -0.6571 -0.7152
12923TIP3    H160260   0.165   4.372  14.209 -0.1744 -1.9338  1.6981
12923TIP3    H260261   0.248   4.250  14.174 -0.4812 -1.1946 -2.0581
12924TIP3   OH260262   0.813   1.692  12.748 -0.3226 -0.2528 -0.2016
12924TIP3    H160263   0.900   1.693  12.708 -0.5275  1.2683 -0.6503
12924TIP3    H260264   0.755   1.662  12.678 -0.2075 -1.1323  0.0579
12925TIP3   OH260265   4.693   2.683   3.230 -0.0097  0.4125 -0.3443
12925TIP3    H160266   4.749   2.761   3.233 -2.5275  2.3464 -0.5941
12925TIP3    H260267   4.655   2.683   3.142 -1.3243 -0.1365  0.1951
12926TIP3   OH260268   3.986   0.210  15.826 -0.1324 -0.4509 -0.3058
12926TIP3    H160269   4.042   0.171  15.759 -1.6283 -2.1234 -0.6906
12926TIP3    H260270   3.898   0.176  15.806 -1.3018  1.9729  0.2966
12927TIP3   OH260271   0.115   1.378  12.932 -0.0573 -0.2062 -0.6762
12927TIP3    H160272   0.044   1.315  12.928 -2.7626  2.5368 -5.3122
12927TIP3    H260273   0.091   1.438  13.002 -1.2692 -0.4275 -0.8867
12928TIP3   OH260274   6.306   6.690  12.427 -0.0304  0.0533  0.4974
12928TIP3    H160275   6.261   6.639  12.359  0.9970 -0.2949  0.0541
12928TIP3    H260276   6.236   6.735  12.473 -0.8931 -0.9428  0.2192
12929TIP3   OH260277   6.284   0.599  10.771  0.2371  0.4890  0.1464
12929TIP3    H160278   6.261   0.506  10.769  2.1422 -0.0786 -3.2279
12929TIP3    H260279   6.377   0.601  10.792  0.1928  1.6674  0.3136
12930TIP3   OH260280   5.690   1.004   3.112 -0.1942  0.0431  0.8306
12930TIP3    H160281   5.607   1.014   3.065  0.0845  0.4517  0.4226
12930TIP3    H260282   5.665   1.002   3.205 -0.3526  5.0528  1.1389
12931TIP3   OH260283   0.894   5.622  12.794  0.1314  0.3293  0.4489
12931TIP3    H160284   0.846   5.693  12.838 -1.8812 -1.2994  1.0292
12931TIP3    H260285   0.880   5.639  12.701 -0.6424  0.4993  0.5894
12932TIP3   OH260286   1.411   3.176  16.814  0.1305 -0.7075 -0.1828
12932TIP3    H160287   1.487   3.215  16.771 -0.9597  0.5455 -1.0520
12932TIP3    H260288   1.391   3.099  16.761  0.2561 -0.5424 -0.4733
12933TIP3   OH260289   3.772   4.789  14.566  0.0402 -0.1356 -0.2895
12933TIP3    H160290   3.839   4.797  14.635 -0.4627 -1.2148  0.3513
12933TIP3    H260291   3.757   4.879  14.537  0.5752  0.3010  0.7252
12934TIP3   OH260292   3.583   2.732   0.931 -0.4972  0.7443 -0.4907
12934TIP3    H160293   3.523   2.761   0.999 -1.7902 -0.5990 -1.0053
12934TIP3    H260294   3.547   2.649   0.900  1.8429 -0.3341 -0.5708
12935TIP3   OH260295   2.655   6.839  11.178  0.7321  0.0923  0.6938
12935TIP3    H160296   2.574   6.848  11.127  0.0942 -2.3578  1.1600
12935TIP3    H260297   2.653   6.914  11.238 -1.6884 -0.3400  1.2841
12936TIP3   OH260298   0.570   4.562  13.592 -0.6094  0.3983  0.4743
12936TIP3    H160299   0.492   4.508  13.608 -0.9460  0.5269 -0.6616
12936TIP3    H260300   0.564   4.632  13.657 -0.1708 -0.8907  1.9813
12937TIP3   OH260301   5.864   4.009  12.956  0.0747  0.4328 -0.4862
12937TIP3    H160302   5.845   3.924  12.916 -0.3346  1.2550 -2.1025
12937TIP3    H260303   5.787   4.062  12.936  0.6560  1.4196 -0.1421
12938TIP3   OH260304   1.964   0.256   3.600  0.3047  0.0553  0.3951
12938TIP3    H160305   1.888   0.224   3.552 -0.6970  0.6217  1.5449
12938TIP3    H260306   2.032   0.190   3.586 -0.3308 -0.3558 -0.8154
12939TIP3   OH260307   5.864   6.032   3.561 -0.0577  0.3353 -0.2701
12939TIP3    H160308   5.891   5.959   3.505 -0.5535 -0.7385  0.8382
12939TIP3    H260309   5.881   6.001   3.650  1.5388  2.3228  0.1915
12940TIP3   OH260310   0.481   3.112  15.502  0.5348 -0.9010 -0.0147
12940TIP3    H160311   0.391   3.133  15.477  0.6817 -1.2080 -0.8126
12940TIP3    H260312   0.473   3.032  15.554  0.2510 -0.3645  0.7954
12941TIP3   OH260313   3.744   5.478  12.566  0.1220 -0.0101  0.0604
12941TIP3    H160314   3.746   5.570  12.593  1.7158  0.4404 -1.4534
12941TIP3    H260315   3.799   5.433  12.630  0.2520  0.2717  0.1475
12942TIP3   OH260316   6.007   1.684   2.590 -0.0165 -0.5681 -0.2437
12942TIP3    H160317   6.011   1.674   2.685 -0.4804  0.4233 -0.1073
12942TIP3    H260318   5.919   1.654   2.567 -0.8305  1.4811 -0.0252
12943TIP3   OH260319   3.431   6.202  13.668  0.2378 -0.1587  0.2588
12943TIP3    H160320   3.360   6.265  13.658 -0.3453 -0.9409 -0.7535
12943TIP3    H260321   3.487   6.239  13.736 -0.3906  1.1583  0.0899
12944TIP3   OH260322   6.112   4.498   2.320 -0.2807 -0.5032 -0.1991
12944TIP3    H160323   6.028   4.544   2.324  0.2942  0.6848 -1.0470
12944TIP3    H260324   6.102   4.424   2.379 -1.7476 -0.0889  0.1096
12945TIP3   OH260325   2.850   3.511  16.623  0.0663 -0.1965  0.1436
12945TIP3    H160326   2.936   3.547  16.605  1.1751 -1.8870  1.6345
12945TIP3    H260327   2.802   3.581  16.667  0.7523  0.7002 -0.5277
12946TIP3   OH260328   3.980   2.208   5.625  0.1450 -0.4111  0.9124
12946TIP3    H160329   3.916   2.279   5.619  0.1748 -0.4984 -1.4686
12946TIP3    H260330   3.926   2.129   5.638 -0.5278 -0.6983 -2.5925
12947TIP3   OH260331   3.649   4.002   5.041  0.4400  0.5998  0.1188
12947TIP3    H160332   3.618   4.073   4.985  0.3630  1.5979  1.3914
12947TIP3    H260333   3.611   3.923   5.002  0.4628  1.2380 -1.2754
12948TIP3   OH260334   0.355   2.489   5.479  0.3678  0.3204 -0.6010
12948TIP3    H160335   0.392   2.567   5.438  0.0078  0.2935 -0.9894
12948TIP3    H260336   0.285   2.462   5.419 -0.0589  0.1836 -0.0511
12949TIP3   OH260337   6.118   3.326  12.893 -0.2479 -0.5000 -0.3028
12949TIP3    H160338   6.096   3.410  12.853  0.1191 -0.3671 -0.2274
12949TIP3    H260339   6.084   3.331  12.982  0.3918 -0.1536 -0.0688
12950TIP3   OH260340   0.692   1.180  15.640  0.3182 -0.2976  0.1601
12950TIP3    H160341   0.764   1.211  15.695  1.2193 -0.3258 -0.9644
12950TIP3    H260342   0.700   1.084  15.643  0.7574 -0.2873 -0.4979
12951TIP3   OH260343   1.938   6.580  11.026 -0.3332 -0.6102  0.0285
12951TIP3    H160344   1.954   6.661  11.075  0.5510 -0.2862 -0.7507
12951TIP3    H260345   1.946   6.606  10.934 -1.9172 -1.2055 -0.3114
12952TIP3   OH260346   6.212   3.769  13.442  0.5220 -0.3521 -0.6324
12952TIP3    H160347   6.173   3.797  13.359 -0.1434  0.0624 -0.1849
12952TIP3    H260348   6.285   3.829  13.455  1.1065 -0.8880 -1.2763
12953TIP3   OH260349   5.892   5.221   5.237 -0.6826  0.6405  0.5454
12953TIP3    H160350   5.832   5.276   5.188 -0.3830 -0.1496 -0.7708
12953TIP3    H260351   5.835   5.168   5.294 -1.1682  0.4922 -0.0683
12954TIP3   OH260352   0.947   6.611   5.113 -0.7527 -0.2642 -0.4854
12954TIP3    H160353   1.029   6.576   5.080 -1.3878  0.1312 -2.6520
12954TIP3    H260354   0.960   6.705   5.116 -1.4887 -0.0595 -2.1599
12955TIP3   OH260355   3.191   6.028   2.720 -0.1132 -0.2402  0.2173
12955TIP3    H160356   3.186   6.104   2.779 -0.2818 -1.7202  2.1858
12955TIP3    H260357   3.102   5.991   2.721 -0.5608  0.5358 -2.2379
12956TIP3   OH260358   6.427   2.328   2.876  0.4871  0.3821 -0.1254
12956TIP3    H160359   6.490   2.399   2.891  1.4114 -0.5219  0.4513
12956TIP3    H260360   6.447   2.264   2.944 -0.8601 -0.0885 -0.1450
12957TIP3   OH260361   1.582   0.607  14.951 -0.3711 -0.7149 -0.0671
12957TIP3    H160362   1.630   0.611  14.869 -0.0234  0.0816  0.1573
12957TIP3    H260363   1.493   0.585  14.926 -0.2088 -0.7496 -0.6308
12958TIP3   OH260364   1.200   2.391   4.727 -0.1877  0.0007 -0.2732
12958TIP3    H160365   1.162   2.310   4.762 -0.2566 -0.0433 -0.4463
12958TIP3    H260366   1.129   2.429   4.675  0.9718 -1.7560 -3.3860
12959TIP3   OH260367   1.036   0.995   5.010  0.5249 -0.3190 -0.1103
12959TIP3    H160368   1.018   0.939   5.085 -2.0580  2.2952  1.4177
12959TIP3    H260369   1.091   1.066   5.045  0.2774  0.3120 -0.9511
12960TIP3   OH260370   5.491   3.016  11.827  0.0191  0.2415 -0.1863
12960TIP3    H160371   5.496   3.105  11.864 -3.1286  0.7225 -0.5999
12960TIP3    H260372   5.491   3.030  11.732 -1.7605  0.0068 -0.2641
12961TIP3   OH260373   2.241   5.408  15.933  0.9946  0.7992 -0.5857
12961TIP3    H160374   2.314   5.446  15.884  0.0898  2.8665 -0.4163
12961TIP3    H260375   2.168   5.408  15.872  0.1933  2.2051  0.3079
12962TIP3   OH260376   3.759   6.281  12.726  0.1558 -0.1168 -0.0109
12962TIP3    H160377   3.824   6.210  12.725 -0.0082 -0.3059 -1.9294
12962TIP3    H260378   3.694   6.254  12.790  0.8151 -1.0204  0.2965
12963TIP3   OH260379   5.256   5.356   2.699 -0.4443  0.2648 -0.3089
12963TIP3    H160380   5.322   5.303   2.654 -0.1481  0.4404 -0.0853
12963TIP3    H260381   5.216   5.296   2.762 -1.5045 -0.2451 -1.4095
12964TIP3   OH260382   1.162   4.637  14.808  0.1694 -0.0228  1.0374
12964TIP3    H160383   1.188   4.604  14.722  0.6964  0.4299  1.0198
12964TIP3    H260384   1.066   4.640  14.804  0.1582 -0.5830  0.6878
12965TIP3   OH260385   4.919   0.869   2.461 -0.6262  0.2482  0.0195
12965TIP3    H160386   4.971   0.870   2.541 -1.4274  1.4699  0.5565
12965TIP3    H260387   4.831   0.895   2.489 -0.8536  0.9756 -1.2793
12966TIP3   OH260388   6.017   4.992  15.265 -0.6590  0.0410 -0.3607
12966TIP3    H160389   5.999   4.899  15.258 -2.0690  0.4054 -1.9960
12966TIP3    H260390   6.030   5.022  15.175 -1.6052  1.6711 -0.0033
12967TIP3   OH260391   1.485   6.449  13.270  0.0685  0.4556 -0.0623
12967TIP3    H160392   1.530   6.485  13.193 -0.6054 -0.3787 -0.8707
12967TIP3    H260393   1.407   6.504  13.280 -1.1675 -0.9414 -1.5344
12968TIP3   OH260394   4.506   4.255   6.220 -0.0268 -0.4746 -0.5882
12968TIP3    H160395   4.507   4.348   6.195  1.4797 -0.0321  0.9198
12968TIP3    H260396   4.587   4.220   6.182  1.7263 -0.0542  2.3842
12969TIP3   OH260397   3.222   3.083   0.062 -0.5567  0.2516 -0.3542
12969TIP3    H160398   3.277   3.118   0.132  0.2079 -1.1268 -0.2142
12969TIP3    H260399   3.208   2.991   0.087 -0.1928 -0.2935 -2.0493
12970TIP3   OH260400   4.969   2.721  15.017  0.1722  0.1872 -0.0399
12970TIP3    H160401   5.026   2.712  15.093 -0.1895  1.8778  0.4763
12970TIP3    H260402   4.920   2.639  15.013  1.5019 -0.6539  0.4313
12971TIP3   OH260403   5.187   2.941  11.513 -0.2449  0.4351  0.2807
12971TIP3    H160404   5.198   2.999  11.438  0.7146 -0.2903 -0.1577
12971TIP3    H260405   5.245   2.867  11.495 -0.2637  0.0843  1.5749
12972TIP3   OH260406   1.210   2.824  12.371  0.2905 -0.3271 -0.0097
12972TIP3    H160407   1.299   2.800  12.397  0.8879  1.8658  0.1440
12972TIP3    H260408   1.215   2.917  12.350 -1.8497 -0.2898 -0.6031
12973TIP3   OH260409   5.252   5.104   4.643 -0.3778 -1.2603 -0.3331
12973TIP3    H160410   5.273   5.108   4.549  0.0001 -1.6052 -0.2668
12973TIP3    H260411   5.336   5.088   4.685 -0.1967  0.8537  0.2393
12974TIP3   OH260412   0.216   5.543  16.422  0.2510 -0.4609  0.1156
12974TIP3    H160413   0.194   5.476  16.487 -1.3493  0.8227  0.9847
12974TIP3    H260414   0.203   5.626  16.468  0.7861  0.4772 -1.3450
12975TIP3   OH260415   5.405   1.312  11.823 -0.0493  0.3629 -0.2596
12975TIP3    H160416   5.399   1.232  11.875 -1.0277  0.1794 -0.6276
12975TIP3    H260417   5.476   1.362  11.864 -0.9300  0.3396  1.4194
12976TIP3   OH260418   5.295   4.231   3.248  0.3002  0.3024 -0.4884
12976TIP3    H160419   5.207   4.204   3.275  0.8038  1.7508  3.1787
12976TIP3    H260420   5.337   4.151   3.217 -1.7026 -0.7708 -0.6097
12977TIP3   OH260421   1.926   3.611   0.390 -0.0095  0.4279 -0.2684
12977TIP3    H160422   1.872   3.612   0.311 -1.0169 -0.9030  0.3697
12977TIP3    H260423   2.016   3.604   0.357 -0.1650  2.7667 -1.3407
12978TIP3   OH260424   2.038   2.977  12.919 -0.5732 -0.2158  0.0167
12978TIP3    H160425   2.126   2.980  12.956 -0.9096 -0.0280  0.8181
12978TIP3    H260426   2.041   3.038  12.845 -0.3646  0.7198  0.7800
12979TIP3   OH260427   5.968   1.474  16.438  0.7931 -0.0536 -0.4674
12979TIP3    H160428   6.020   1.492  16.360  2.8420 -1.0763  0.5811
12979TIP3    H260429   5.932   1.386  16.423 -1.0297  0.7961 -1.3502
12980TIP3   OH260430   5.629   4.501  12.272 -0.1376 -0.6416 -0.1299
12980TIP3    H160431   5.715   4.530  12.243  0.9902 -4.3536 -1.0919
12980TIP3    H260432   5.586   4.471  12.192 -2.2806  0.8251  0.3844
12981TIP3   OH260433   3.316   6.590   4.675 -0.0134  0.5963 -0.1851
12981TIP3    H160434   3.385   6.630   4.621  1.0039 -0.1755  0.5114
12981TIP3    H260435   3.350   6.594   4.764 -0.1654 -1.2276 -0.0237
12982TIP3   OH260436   0.335   5.877   3.964 -0.5004  0.0043 -0.2324
12982TIP3    H160437   0.327   5.888   3.869 -1.2811  1.5583 -0.0179
12982TIP3    H260438   0.269   5.811   3.986 -3.9078  3.0421 -0.2539
12983TIP3   OH260439   4.343   0.372   2.862  0.0042 -0.1512  0.6944
12983TIP3    H160440   4.396   0.432   2.914  0.6774  2.0507 -2.2222
12983TIP3    H260441   4.253   0.405   2.872 -0.0552 -0.5353  1.4437
12984TIP3   OH260442   4.574   6.356   1.928  0.2943  0.1923 -0.3930
12984TIP3    H160443   4.608   6.431   1.976  0.9423 -0.4740  0.2110
12984TIP3    H260444   4.652   6.313   1.893  0.1247 -1.3169  0.9510
12985TIP3   OH260445   4.629   2.693   4.371 -0.5418  0.0308 -0.1026
12985TIP3    H160446   4.617   2.633   4.445  0.0512  0.4164  0.3183
12985TIP3    H260447   4.672   2.769   4.409 -0.1345  0.1917 -0.8717
12986TIP3   OH260448   3.933   4.824   0.529 -0.1155  0.6825 -0.3251
12986TIP3    H160449   3.974   4.868   0.455 -0.5743  0.2513 -0.8408
12986TIP3    H260450   3.887   4.750   0.490 -2.2797  1.7388  0.0898
12987TIP3   OH260451   3.816   2.765  15.823 -1.1380  0.5186 -0.3876
12987TIP3    H160452   3.852   2.792  15.908 -0.0898  0.3552 -0.7625
12987TIP3    H260453   3.750   2.831  15.803 -0.3845  1.3894 -0.1069
12988TIP3   OH260454   1.548   1.202  16.729 -0.3838  0.1572 -0.3344
12988TIP3    H160455   1.577   1.197  16.638  1.7401  1.8973  0.1600
12988TIP3    H260456   1.625   1.234  16.777 -1.7266  0.2217  1.9279
12989TIP3   OH260457   4.896   0.311   5.422 -0.5292  0.5026  0.2677
12989TIP3    H160458   4.849   0.390   5.395 -0.5471  0.5358  0.3951
12989TIP3    H260459   4.878   0.303   5.516 -1.5205 -0.3300  0.0292
12990TIP3   OH260460   2.583   0.087  12.976 -0.0166  0.6880 -0.7631
12990TIP3    H160461   2.592   0.132  12.892  0.7124 -1.3682 -1.8866
12990TIP3    H260462   2.673   0.065  13.001 -0.1953  1.5686  0.7681
12991TIP3   OH260463   1.751   1.157   1.003 -0.4060  1.1643  0.9888
12991TIP3    H160464   1.659   1.180   1.020 -0.5238  0.0388  2.0381
12991TIP3    H260465   1.801   1.222   1.052 -0.7152  0.1721  2.7367
12992TIP3   OH260466   5.197   4.291  16.121  0.1846 -0.0258 -0.1575
12992TIP3    H160467   5.200   4.196  16.111  1.5196  0.0140 -0.3319
12992TIP3    H260468   5.105   4.314  16.107 -0.6271 -1.5171  2.1683
12993TIP3   OH260469   5.638   3.209   5.559  0.1069  0.3436  0.2432
12993TIP3    H160470   5.731   3.218   5.580  0.1829 -0.2239  0.1615
12993TIP3    H260471   5.621   3.278   5.495  0.6178  0.0494 -0.2114
12994TIP3   OH260472   4.021   6.655   5.354 -0.6818  0.5413  1.2091
12994TIP3    H160473   3.927   6.673   5.351 -0.7619  0.6444  3.1261
12994TIP3    H260474   4.050   6.696   5.435  0.7470 -0.7124  1.3598
12995TIP3   OH260475   3.772   2.396   6.452  0.4961 -0.1922 -0.0486
12995TIP3    H160476   3.844   2.379   6.392  0.1788 -1.0896 -0.1907
12995TIP3    H260477   3.760   2.313   6.498  0.1580  0.2297  0.6245
12996TIP3   OH260478   1.284   3.318   4.652 -0.5025  0.2812  0.5669
12996TIP3    H160479   1.258   3.407   4.676  0.2026  0.8456 -0.6609
12996TIP3    H260480   1.379   3.323   4.640 -0.1115 -1.1508  2.5421
12997TIP3   OH260481   3.669   2.541  16.882 -0.1900 -0.0877 -0.4699
12997TIP3    H160482   3.708   2.626  16.900 -0.5150 -0.2952  1.5086
12997TIP3    H260483   3.739   2.491  16.840 -0.1465  1.2561 -2.0937
12998TIP3   OH260484   6.097   6.222  13.767 -0.1909 -0.2019 -1.0487
12998TIP3    H160485   6.177   6.273  13.774  1.1389 -2.0563 -1.7721
12998TIP3    H260486   6.087   6.182  13.853  0.3704 -0.9031 -1.2937
12999TIP3   OH260487   2.440   3.101   0.045 -0.0971  0.2463  0.7005
12999TIP3    H160488   2.417   3.194   0.046  0.5403  0.5094 -2.0349
12999TIP3    H260489   2.529   3.098   0.011 -1.1500 -1.4290 -2.3498
13000TIP3   OH260490   0.044   2.101   2.282 -0.2684  0.2840  0.0527
13000TIP3    H160491   0.102   2.103   2.206 -1.1346 -1.1335 -0.6903
13000TIP3    H260492   0.083   2.163   2.344  2.1218 -0.7146 -0.3448
13001TIP3   OH260493   1.875   2.477   2.668  0.1829  0.5336  0.5542
13001TIP3    H160494   1.911   2.522   2.744 -0.5136 -0.4431  1.4977
13001TIP3    H260495   1.780   2.489   2.677  0.1089  0.6503 -0.3231
13002TIP3   OH260496   0.494   4.280  14.841  0.0277 -0.1174  0.3533
13002TIP3    H160497   0.505   4.339  14.766  1.5464  1.3042  1.6125
13002TIP3    H260498   0.410   4.305  14.878  0.6843  1.4066  0.9182
13003TIP3   OH260499   5.694   2.691   2.764 -0.3549  0.7080  0.4679
13003TIP3    H160500   5.664   2.726   2.681  0.6134  0.7278  0.1190
13003TIP3    H260501   5.676   2.760   2.828 -2.7622  0.0207  0.6367
13004TIP3   OH260502   0.124   2.796   5.273 -0.1327  0.0368  0.5045
13004TIP3    H160503   0.065   2.844   5.332  0.7920  1.7134  0.1036
13004TIP3    H260504   0.115   2.704   5.301  0.5343  0.7774  3.5399
13005TIP3   OH260505   6.159   1.472   0.549  0.2639 -0.8692 -0.2146
13005TIP3    H160506   6.094   1.484   0.619 -2.1432 -1.1861 -2.2514
13005TIP3    H260507   6.217   1.548   0.557 -1.9933  0.9457  0.0900
13006TIP3   OH260508   5.505   5.834  13.942  0.0483  0.1241  0.2725
13006TIP3    H160509   5.524   5.918  13.900  1.5551  0.7875  2.1500
13006TIP3    H260510   5.552   5.838  14.025 -1.2118 -1.9238  1.1456
13007TIP3   OH260511   0.178   3.041  14.772  0.3565  0.0679  0.1567
13007TIP3    H160512   0.237   3.056  14.698 -0.9563  0.3902 -0.8567
13007TIP3    H260513   0.199   3.110  14.834 -0.0432  1.1654 -0.9008
13008TIP3   OH260514   2.108   3.321   1.468 -0.2653  0.1073 -0.1266
13008TIP3    H160515   2.178   3.282   1.522 -0.1464  0.5125  0.0101
13008TIP3    H260516   2.040   3.253   1.466  0.3760 -0.5419 -0.7604
13009TIP3   OH260517   3.482   5.595   3.201  0.9274 -0.4531 -0.0793
13009TIP3    H160518   3.467   5.673   3.255 -0.7085 -0.3910 -0.5538
13009TIP3    H260519   3.425   5.529   3.239 -0.7678 -0.2155 -2.0624
13010TIP3   OH260520   5.069   0.590   4.168 -0.4992  0.5442 -0.4763
13010TIP3    H160521   5.095   0.585   4.076 -0.1720 -1.1824 -0.3131
13010TIP3    H260522   5.078   0.683   4.190  4.0271  0.4426 -0.9093
13011TIP3   OH260523   1.079   1.584  10.980 -0.3023  0.7242  0.4447
13011TIP3    H160524   1.051   1.493  10.987  0.5871  0.3698 -0.5207
13011TIP3    H260525   1.044   1.625  11.060  0.1414 -0.6774  1.3999
13012TIP3   OH260526   4.426   6.256   5.668  0.2542 -0.0981 -0.1009
13012TIP3    H160527   4.489   6.223   5.731  1.2886 -1.0504 -1.5638
13012TIP3    H260528   4.437   6.199   5.591 -2.7322 -0.6541 -0.2439
13013TIP3   OH260529   3.849   1.414   0.891 -0.1272 -0.6392 -0.5809
13013TIP3    H160530   3.790   1.486   0.871 -0.2336 -0.9900 -1.5610
13013TIP3    H260531   3.888   1.390   0.807  0.9184 -0.8458 -0.0496
13014TIP3   OH260532   5.149   2.918  13.539  0.1723  0.4852  0.2740
13014TIP3    H160533   5.189   2.995  13.499  0.7316  0.4612  0.7764
13014TIP3    H260534   5.116   2.949  13.623  0.8396  0.0679  0.6984
13015TIP3   OH260535   5.192   4.437  13.374  0.3535 -0.1757  0.4968
13015TIP3    H160536   5.181   4.527  13.343  0.8469 -0.3083 -0.0717
13015TIP3    H260537   5.285   4.418  13.361  1.1511  0.5117  4.0642
13016TIP3   OH260538   5.117   0.865   5.615  0.1305  0.4804  0.4552
13016TIP3    H160539   5.083   0.940   5.567  0.1226  0.9184  1.1356
13016TIP3    H260540   5.203   0.848   5.576 -0.0690  0.5406 -0.0142
13017TIP3   OH260541   1.159   1.105  12.010 -0.2847 -0.2291  0.2185
13017TIP3    H160542   1.103   1.157  12.067 -2.2955 -1.8390 -0.1852
13017TIP3    H260543   1.189   1.032  12.065  1.1976  0.4310  0.3349
13018TIP3   OH260544   4.159   6.669   2.657  0.1247 -0.3699 -0.5045
13018TIP3    H160545   4.139   6.637   2.569  0.3492  0.7946 -0.9954
13018TIP3    H260546   4.126   6.758   2.658 -0.0704 -0.4451  0.6756
13019TIP3   OH260547   0.562   1.864   2.544  0.1136 -0.5873 -0.3784
13019TIP3    H160548   0.542   1.796   2.608  0.4587 -1.1456 -0.8544
13019TIP3    H260549   0.493   1.929   2.556  0.0160 -0.8187  0.3639
13020TIP3   OH260550   6.498   5.423   5.261 -0.0476  0.4481 -0.4623
13020TIP3    H160551   6.562   5.400   5.328 -0.7851 -0.7442 -0.1276
13020TIP3    H260552   6.434   5.352   5.265 -1.6313  1.8288 -0.4808
13021TIP3   OH260553   6.260   0.521  15.465 -0.0980  0.1581  0.1227
13021TIP3    H160554   6.195   0.519  15.536 -0.1894 -0.3783  0.0320
13021TIP3    H260555   6.294   0.610  15.466 -0.3215  0.2438  0.6427
13022TIP3   OH260556   4.755   3.517  12.665  0.1843 -0.2327  0.0071
13022TIP3    H160557   4.698   3.592  12.650 -1.8245 -1.7077 -0.0641
13022TIP3    H260558   4.728   3.482  12.750  2.0236 -0.1067  0.6881
13023TIP3   OH260559   4.623   4.144   2.032  0.9949 -0.1078  0.3822
13023TIP3    H160560   4.582   4.179   2.111 -1.8717  0.5395 -1.2754
13023TIP3    H260561   4.688   4.210   2.008 -1.9920  2.6789 -0.8025
13024TIP3   OH260562   0.581   5.472  12.496 -0.2120  0.6649  0.3426
13024TIP3    H160563   0.586   5.448  12.588 -1.7424  0.2697  0.3496
13024TIP3    H260564   0.557   5.391  12.451 -1.6289  1.3066 -0.1197
13025TIP3   OH260565   2.240   1.113   1.570  0.3334  0.0080 -1.0631
13025TIP3    H160566   2.321   1.155   1.601 -0.7646  2.3013 -1.0836
13025TIP3    H260567   2.265   1.022   1.555  2.5813  0.3411  0.1508
13026TIP3   OH260568   4.390   5.642   2.275  0.0329  0.0303  0.3187
13026TIP3    H160569   4.458   5.581   2.303 -0.9102 -0.6864  1.1443
13026TIP3    H260570   4.345   5.597   2.204  0.2670  0.3950 -0.0606
13027TIP3   OH260571   5.276   4.467  11.349  0.0660  0.1282 -0.1450
13027TIP3    H160572   5.236   4.403  11.408  1.5361 -0.3725  0.3539
13027TIP3    H260573   5.224   4.461  11.269 -1.0311 -0.2691  0.5587
13028TIP3   OH260574   0.942   1.642  15.260  0.0720 -0.4040 -0.0221
13028TIP3    H160575   0.899   1.674  15.339  1.6702  1.0940  0.3141
13028TIP3    H260576   0.889   1.676  15.188 -1.3960 -1.7734  0.3611
13029TIP3   OH260577   1.040   4.898  12.677 -0.2609  0.2040 -0.2958
13029TIP3    H160578   1.109   4.832  12.680  0.1345  0.3646 -3.0106
13029TIP3    H260579   1.069   4.967  12.736  2.1421  0.4492 -1.6650
13030TIP3   OH260580   6.221   4.676  14.532  0.7006 -0.0131  0.2636
13030TIP3    H160581   6.129   4.674  14.558  1.0226 -1.5422  1.4639
13030TIP3    H260582   6.255   4.757  14.571 -0.4482  1.4283 -1.5621
13031TIP3   OH260583   6.631   1.440  15.891 -0.0954  0.1136 -0.1903
13031TIP3    H160584   6.680   1.396  15.960  0.0541  0.1147 -0.2944
13031TIP3    H260585   6.541   1.444  15.924  0.1951  1.1639  0.5174
13032TIP3   OH260586   6.000   3.817  11.896  0.3327 -0.4440  0.2028
13032TIP3    H160587   6.037   3.869  11.968  0.1051 -2.4643  1.8527
13032TIP3    H260588   5.908   3.807  11.918  0.2519 -1.0640 -0.3799
13033TIP3   OH260589   4.133   4.120  12.274  0.4622  0.3501 -0.4814
13033TIP3    H160590   4.085   4.103  12.355  0.0331  0.4087 -0.7235
13033TIP3    H260591   4.204   4.055  12.275  1.0153  0.9515  0.3883
13034TIP3   OH260592   1.029   4.765  16.499  0.1695 -0.2245 -0.1639
13034TIP3    H160593   1.121   4.790  16.500 -0.1223  0.8659  0.9802
13034TIP3    H260594   0.986   4.835  16.449 -0.1806 -0.2246  0.1371
13035TIP3   OH260595   4.481   1.137  13.910 -0.1955  0.1244 -0.1417
13035TIP3    H160596   4.404   1.178  13.949  0.8992  2.0827  0.0819
13035TIP3    H260597   4.521   1.088  13.981 -1.8450 -1.9701 -0.5550
13036TIP3   OH260598   2.794   1.277   5.556  0.4122 -0.2275  0.9933
13036TIP3    H160599   2.870   1.299   5.501 -1.9014 -0.6093 -2.6885
13036TIP3    H260600   2.773   1.358   5.602  1.3872  0.6927 -0.1137
13037TIP3   OH260601   0.397   6.387  11.440 -0.5933 -0.3123  0.4957
13037TIP3    H160602   0.343   6.457  11.476  1.0218  1.6510 -0.6827
13037TIP3    H260603   0.431   6.423  11.358  2.6728 -1.3065  1.2802
13038TIP3   OH260604   6.228   6.389   4.264 -0.0329 -0.6275 -0.3088
13038TIP3    H160605   6.255   6.407   4.174  0.5567 -0.0460 -0.0230
13038TIP3    H260606   6.309   6.364   4.308 -0.0273  0.6052  0.4299
13039TIP3   OH260607   1.272   4.165   5.419  0.3008  0.0093  0.1164
13039TIP3    H160608   1.322   4.087   5.444 -1.7027 -0.9581  1.3571
13039TIP3    H260609   1.190   4.158   5.468 -1.1787  1.4090 -1.9679
13040TIP3   OH260610   5.697   0.524   5.530 -0.7500 -0.4472  0.2502
13040TIP3    H160611   5.637   0.589   5.492 -0.1806 -0.4518 -0.6867
13040TIP3    H260612   5.760   0.506   5.460 -0.4403 -1.4335  0.7713
13041TIP3   OH260613   2.968   2.390  13.235  0.7438 -0.1082  0.5650
13041TIP3    H160614   2.895   2.452  13.230  3.0547  2.6974 -0.9831
13041TIP3    H260615   2.964   2.343  13.151 -0.5842 -1.7459  1.4575
13042TIP3   OH260616   0.813   5.435   5.518  0.1697  0.2144  0.1349
13042TIP3    H160617   0.894   5.421   5.470  0.2791  1.3161 -0.0462
13042TIP3    H260618   0.842   5.460   5.606  0.0464  0.8072  0.0143
13043TIP3   OH260619   6.692   6.176  11.099  0.9064 -0.1031  0.1365
13043TIP3    H160620   6.754   6.186  11.028  2.0995 -0.2120  1.1310
13043TIP3    H260621   6.630   6.248  11.088  0.1581 -0.9941 -1.8742
13044TIP3   OH260622   0.649   1.305   6.083  0.3149 -0.2836  0.1435
13044TIP3    H160623   0.708   1.316   6.157 -0.4656 -2.2354  1.1410
13044TIP3    H260624   0.568   1.349   6.109 -0.3338 -1.8906  0.9872
13045TIP3   OH260625   4.427   1.617   1.596 -0.1613  1.3874 -0.0045
13045TIP3    H160626   4.449   1.638   1.505 -0.5932  1.9180  0.0072
13045TIP3    H260627   4.438   1.700   1.643 -2.4177  1.7708 -0.0595
13046TIP3   OH260628   1.039   2.986   2.464  0.0685  0.2851  0.1089
13046TIP3    H160629   0.962   2.932   2.449  0.7425 -0.2739 -1.5338
13046TIP3    H260630   1.110   2.941   2.419  1.1578  1.3214  0.7134
13047TIP3   OH260631   1.403   0.622  10.687 -0.2752 -0.6332  0.2843
13047TIP3    H160632   1.438   0.696  10.636 -1.7182  0.0733  0.2749
13047TIP3    H260633   1.476   0.560  10.691  0.4895  0.1195 -1.0112
13048TIP3   OH260634   4.105   4.109  12.753 -0.3761  0.0997 -0.3942
13048TIP3    H160635   4.130   4.017  12.749 -0.7947 -0.0480  0.3076
13048TIP3    H260636   4.091   4.134  12.661 -0.1164 -0.4892 -0.5980
13049TIP3   OH260637   3.983   0.595   4.916 -0.0407 -0.0085  0.4383
13049TIP3    H160638   3.978   0.571   4.823 -0.9943 -1.2334  0.7686
13049TIP3    H260639   4.067   0.638   4.925 -0.0371  0.3702 -1.0471
13050TIP3   OH260640   1.453   5.568  15.330  0.6085 -0.2210  0.3994
13050TIP3    H160641   1.393   5.522  15.272  2.2571 -0.4982 -1.1842
13050TIP3    H260642   1.433   5.660  15.317  0.9789 -0.2764 -0.6909
13051TIP3   OH260643   6.649   2.921  10.806  0.0140 -0.1092 -0.3101
13051TIP3    H160644   6.564   2.894  10.842 -0.5154 -0.3606 -1.7088
13051TIP3    H260645   6.632   3.009  10.771  0.6306  0.2943  0.3638
13052TIP3   OH260646   4.127   0.873   3.892  0.0013 -0.1744 -0.0096
13052TIP3    H160647   4.080   0.789   3.891 -1.1632  0.4010 -3.0785
13052TIP3    H260648   4.202   0.859   3.834 -1.0923  1.3016 -1.8711
13053TIP3   OH260649   2.949   6.782   1.315 -0.5725 -0.0496 -0.3067
13053TIP3    H160650   2.942   6.738   1.230 -1.0898  1.2184 -0.9386
13053TIP3    H260651   3.041   6.768   1.341 -0.4302 -0.5119 -1.0248
13054TIP3   OH260652   3.408   0.689  10.509 -0.7013  0.4669 -0.8630
13054TIP3    H160653   3.446   0.602  10.499 -1.3667 -0.1247  1.2336
13054TIP3    H260654   3.481   0.745  10.535 -0.5056  0.2651 -0.9755
13055TIP3   OH260655   2.553   0.251  13.468 -0.8125 -0.4261 -0.1301
13055TIP3    H160656   2.499   0.177  13.496 -2.8668  1.3698  0.9910
13055TIP3    H260657   2.491   0.311  13.426  0.8098  0.6173 -1.1424
13056TIP3   OH260658   5.779   2.990  11.261 -0.5609 -0.1895 -0.1099
13056TIP3    H160659   5.785   2.906  11.307 -2.5378  1.0894  2.8179
13056TIP3    H260660   5.685   3.006  11.253 -0.3002  2.5377  1.1607
13057TIP3   OH260661   2.970   3.058   0.335  0.4987 -0.6020 -0.1971
13057TIP3    H160662   2.940   2.974   0.370  0.1027 -0.3099  0.1803
13057TIP3    H260663   3.057   3.071   0.375  0.2634 -0.5085  0.2954
13058TIP3   OH260664   6.184   3.739   1.516 -0.1331 -0.4467  0.2208
13058TIP3    H160665   6.134   3.679   1.461 -2.1930 -0.5747  2.0457
13058TIP3    H260666   6.258   3.688   1.547 -0.6003 -1.3238 -0.0727
13059TIP3   OH260667   6.688   0.325  16.437 -0.5847 -0.1368  0.6555
13059TIP3    H160668   6.638   0.380  16.497  0.2191  1.5507 -0.1851
13059TIP3    H260669   6.769   0.373  16.420 -0.1154 -1.2837 -0.6007
13060TIP3   OH260670   4.467   2.260  14.884 -0.5966 -0.1429  0.1269
13060TIP3    H160671   4.468   2.194  14.953 -0.2238 -0.2402  0.0315
13060TIP3    H260672   4.552   2.251  14.841  0.1043  1.4491  1.0978
13061TIP3   OH260673   4.027   5.649  13.171  0.0198  0.6208 -0.0958
13061TIP3    H160674   4.079   5.708  13.116 -2.1074  1.7677 -1.0070
13061TIP3    H260675   3.948   5.632  13.120 -1.2673  0.3222  1.8841
13062TIP3   OH260676   4.444   2.052   6.016 -0.1518  0.4651 -0.6107
13062TIP3    H160677   4.517   1.991   6.005  0.0404  0.6761 -0.5203
13062TIP3    H260678   4.486   2.139   6.018 -0.2648  0.5128  0.8295
13063TIP3   OH260679   0.391   4.981  14.728 -0.3119 -0.0186 -0.1416
13063TIP3    H160680   0.400   5.070  14.694  0.6706 -0.0525  0.0113
13063TIP3    H260681   0.323   4.942  14.673  0.0925  0.4437 -0.9900
13064TIP3   OH260682   4.896   6.415  16.173 -0.0796  0.6950 -0.0605
13064TIP3    H160683   4.960   6.344  16.174  0.5741  1.1725 -2.2002
13064TIP3    H260684   4.813   6.372  16.155  0.3815  0.4495 -1.8218
13065TIP3   OH260685   3.137   6.587  15.215 -0.3938  0.2110 -0.2378
13065TIP3    H160686   3.207   6.544  15.167 -0.8968 -1.5121  0.5030
13065TIP3    H260687   3.057   6.557  15.171 -0.7941 -0.3200  0.8257
13066TIP3   OH260688   4.490   0.111   3.354  0.1061 -0.2524  0.1856
13066TIP3    H160689   4.556   0.146   3.413 -1.1420  0.3512  1.2695
13066TIP3    H260690   4.430   0.063   3.411 -1.4411  0.8044 -0.4915
13067TIP3   OH260691   3.114   5.906  12.283 -0.0315  0.6885  0.3239
13067TIP3    H160692   3.041   5.876  12.229  0.1469  0.5222  0.1700
13067TIP3    H260693   3.156   5.974  12.231 -1.1296  2.0577  1.1697
13068TIP3   OH260694   6.309   4.006  15.244  0.8209 -0.2875  0.0732
13068TIP3    H160695   6.263   3.977  15.165  0.9804  0.8590 -0.4571
13068TIP3    H260696   6.240   4.039  15.301  0.8314  0.0654 -0.1162
13069TIP3   OH260697   6.180   0.614  12.338 -0.6572  0.5502 -0.0750
13069TIP3    H160698   6.148   0.701  12.364  0.4366  0.8369  0.4039
13069TIP3    H260699   6.192   0.567  12.421  1.5360  0.9877 -0.0681
13070TIP3   OH260700   0.396   1.686  12.281  0.0242  0.3778  0.1908
13070TIP3    H160701   0.341   1.760  12.307 -0.0159 -0.1309  1.6220
13070TIP3    H260702   0.399   1.630  12.358 -0.3242 -1.3631 -1.0046
13071TIP3   OH260703   6.355   5.474  14.988  0.3893  0.2033 -0.7997
13071TIP3    H160704   6.275   5.504  15.033  0.4094  2.3134 -2.0346
13071TIP3    H260705   6.417   5.546  15.000  2.3841 -1.5838  0.5677
13072TIP3   OH260706   3.493   3.486   0.134 -0.2330 -0.0101 -0.2859
13072TIP3    H160707   3.494   3.408   0.078  0.2381  0.5945 -1.1380
13072TIP3    H260708   3.584   3.513   0.139 -0.5064  1.0768 -0.8548
13073TIP3   OH260709   3.109   1.851  16.680 -0.1814 -0.4752 -0.2402
13073TIP3    H160710   3.074   1.770  16.717 -0.5121  0.4829  1.6783
13073TIP3    H260711   3.032   1.902  16.656 -0.0653  0.1367  0.6083
13074TIP3   OH260712   0.097   6.763   3.673  0.2868 -0.3049 -0.2160
13074TIP3    H160713   0.042   6.828   3.629 -1.7880 -3.5017 -2.7609
13074TIP3    H260714   0.073   6.771   3.766 -1.0212  1.5110 -0.6503
13075TIP3   OH260715   0.973   5.478   5.741 -0.2793  0.5257  0.2703
13075TIP3    H160716   1.049   5.529   5.715 -0.9577  1.2675 -0.3046
13075TIP3    H260717   0.955   5.506   5.831  1.5632 -1.4337  1.3511
13076TIP3   OH260718   0.761   2.817  12.155 -0.3887 -0.5319 -0.0791
13076TIP3    H160719   0.856   2.811  12.168 -0.2755  1.0402  0.0246
13076TIP3    H260720   0.733   2.727  12.141  1.2208 -0.9531 -0.7973
13077TIP3   OH260721   0.989   0.385   0.816 -0.4363  0.5246 -0.4960
13077TIP3    H160722   0.955   0.297   0.800 -1.5533  0.8298  0.1047
13077TIP3    H260723   0.935   0.442   0.761  0.1152  0.8773 -0.6882
13078TIP3   OH260724   3.349   5.686   4.998  0.8922 -0.0815  0.4086
13078TIP3    H160725   3.409   5.761   4.996 -2.0860  2.5714  1.6732
13078TIP3    H260726   3.285   5.709   5.065 -1.3554 -2.8469 -0.6158
13079TIP3   OH260727   4.049   4.944   5.659 -0.3981 -0.0124  0.0640
13079TIP3    H160728   3.977   4.995   5.696 -0.2879 -0.4743  0.9402
13079TIP3    H260729   4.012   4.905   5.580 -1.5177 -1.2229  1.1230
13080TIP3   OH260730   2.000   1.974  13.117  0.0324 -0.4732 -0.0701
13080TIP3    H160731   1.910   1.986  13.148  0.5291 -0.2587  1.3731
13080TIP3    H260732   2.033   1.900  13.168  1.1510  0.4088  0.5388
13081TIP3   OH260733   1.374   6.266   3.689  0.0640  0.5697  0.0632
13081TIP3    H160734   1.396   6.175   3.665  0.4147  0.6355  0.1199
13081TIP3    H260735   1.331   6.301   3.612 -0.0428  0.3622  0.0270
13082TIP3   OH260736   0.908   2.364   5.613  0.0687  0.4629  0.0172
13082TIP3    H160737   0.887   2.391   5.702  0.2558  0.4250  0.0720
13082TIP3    H260738   0.935   2.445   5.570  1.1881  0.2698  0.3410
13083TIP3   OH260739   2.935   0.602   6.290  0.0577 -0.4724  0.4111
13083TIP3    H160740   2.846   0.568   6.299 -0.5726  1.2177  0.9928
13083TIP3    H260741   2.977   0.584   6.374 -0.3762  0.3883  0.8319
13084TIP3   OH260742   5.456   6.286   5.876  0.2131  0.2027 -0.4806
13084TIP3    H160743   5.368   6.323   5.889 -0.3807 -1.1686 -0.3716
13084TIP3    H260744   5.464   6.221   5.946  0.6383 -0.8778 -1.5117
13085TIP3   OH260745   2.993   4.357   5.115  0.4836  0.0425 -0.1490
13085TIP3    H160746   3.011   4.375   5.023 -0.0851 -0.9978 -0.4712
13085TIP3    H260747   2.898   4.359   5.123  0.4207 -1.7252 -0.0017
13086TIP3   OH260748   2.126   3.602   6.538 -0.0979 -0.4610 -0.2989
13086TIP3    H160749   2.180   3.647   6.603  2.3187 -0.7313 -1.9784
13086TIP3    H260750   2.050   3.660   6.526 -2.2066 -1.7284  4.6527
13087TIP3   OH260751   0.591   1.500   4.005 -0.0814  0.4479 -0.0618
13087TIP3    H160752   0.501   1.520   4.031 -0.6683 -0.1736 -1.5026
13087TIP3    H260753   0.583   1.420   3.952  1.2326  0.7108 -0.6820
13088TIP3   OH260754   5.781   4.455  13.958  0.5237 -0.4169  0.4797
13088TIP3    H160755   5.796   4.379  13.901 -3.2287 -1.9295  1.2383
13088TIP3    H260756   5.759   4.418  14.043 -0.8965  1.5028  1.0203
13089TIP3   OH260757   5.122   5.037  13.195 -0.3676  0.7865 -0.5912
13089TIP3    H160758   5.096   5.065  13.283 -0.3587 -3.0779  0.8059
13089TIP3    H260759   5.047   5.059  13.140 -1.4192  1.0408  0.8849
13090TIP3   OH260760   6.082   3.971   2.002  0.2252 -0.1573 -0.0014
13090TIP3    H160761   6.109   3.958   1.911 -1.5627 -0.9615 -0.4575
13090TIP3    H260762   6.144   4.035   2.036 -2.0110  4.4519 -3.3755
13091TIP3   OH260763   4.096   2.069   3.624 -0.0488 -0.3165 -0.5346
13091TIP3    H160764   4.024   2.122   3.659 -1.0146 -2.3717  0.7636
13091TIP3    H260765   4.081   2.070   3.529  0.8255  2.8213 -0.7654
13092TIP3   OH260766   0.734   0.947  11.792 -0.4804  0.1840 -0.4082
13092TIP3    H160767   0.688   0.863  11.801 -0.0077  0.0399  0.9620
13092TIP3    H260768   0.714   0.994  11.873 -1.0390  1.5755 -1.3112
13093TIP3   OH260769   2.742   4.458  16.436 -0.1873 -0.1575 -0.2499
13093TIP3    H160770   2.750   4.540  16.485 -0.3612 -0.3661  0.1249
13093TIP3    H260771   2.777   4.479  16.349  1.7205 -0.2455  0.4510
13094TIP3   OH260772   6.513   5.226   1.827 -0.6616 -0.1551 -0.5371
13094TIP3    H160773   6.493   5.191   1.914 -0.8341 -1.5333 -1.1020
13094TIP3    H260774   6.433   5.212   1.776 -1.2455  2.3620 -0.4661
13095TIP3   OH260775   3.734   1.326  10.378 -0.2305 -0.6672 -0.0904
13095TIP3    H160776   3.763   1.333  10.469  0.8915 -0.2598 -0.4616
13095TIP3    H260777   3.639   1.322  10.383 -0.2196  0.1564  1.0633
13096TIP3   OH260778   2.247   2.476  14.853  0.0270  0.3072  0.3751
13096TIP3    H160779   2.298   2.554  14.829 -1.5809  1.3949  0.2728
13096TIP3    H260780   2.164   2.488  14.807 -0.8560 -0.6427  1.6741
13097TIP3   OH260781   3.190   4.128  16.913  0.9529  0.2000 -0.0123
13097TIP3    H160782   3.214   4.172  16.995 -2.0694  1.6026  0.2472
13097TIP3    H260783   3.146   4.196  16.861 -1.0236 -1.6786 -0.9642
13098TIP3   OH260784   2.133   0.654  13.349  0.1205  0.3903 -0.2657
13098TIP3    H160785   2.063   0.702  13.393  0.1353 -1.5196  2.0404
13098TIP3    H260786   2.090   0.579  13.309  0.7511 -0.8245  1.2042
13099TIP3   OH260787   1.769   2.490  12.995  0.5590  0.3572  0.0724
13099TIP3    H160788   1.825   2.566  13.008 -2.0246  2.0780  2.3130
13099TIP3    H260789   1.717   2.512  12.917 -2.0570  2.3699  2.1760
13100TIP3   OH260790   5.027   5.906   3.541  1.0828  0.4365 -0.4417
13100TIP3    H160791   5.091   5.851   3.495  2.4113  0.4472  1.3091
13100TIP3    H260792   5.020   5.985   3.488  2.7698  0.5606 -0.5208
13101TIP3   OH260793   5.537   4.540   2.842  0.2175 -0.0395 -0.0148
13101TIP3    H160794   5.586   4.472   2.889 -1.2419 -0.0745  1.5409
13101TIP3    H260795   5.537   4.615   2.902 -0.4029  0.4451 -0.6028
13102TIP3   OH260796   1.786   2.652  11.210  0.0905 -0.0847  0.6835
13102TIP3    H160797   1.826   2.616  11.130 -0.0344  0.1352  0.5201
13102TIP3    H260798   1.699   2.680  11.182  0.2411  0.4854  0.7705
13103TIP3   OH260799   6.733   4.618  12.646  0.7424 -0.1273 -0.7448
13103TIP3    H160800   6.776   4.539  12.613  0.5351 -0.3289 -0.5486
13103TIP3    H260801   6.679   4.586  12.719 -0.8249 -0.1314 -1.8388
13104TIP3   OH260802   3.466   0.478  13.138 -0.2379  0.6599  0.4699
13104TIP3    H160803   3.440   0.463  13.048 -0.9897 -1.2614  0.9563
13104TIP3    H260804   3.450   0.395  13.182  0.2618  1.4967  2.3473
13105TIP3   OH260805   5.662   6.325  10.501 -0.2940 -0.6328  0.1019
13105TIP3    H160806   5.570   6.299  10.489 -0.1554 -1.1780  0.1667
13105TIP3    H260807   5.662   6.420  10.492 -0.5302 -0.7894 -2.1958
13106TIP3   OH260808   0.606   1.805  15.856  0.0337 -0.0864 -0.2784
13106TIP3    H160809   0.511   1.812  15.863  0.1112  1.5507 -0.4727
13106TIP3    H260810   0.632   1.750  15.930 -1.1061 -1.2155 -0.6752
13107TIP3   OH260811   2.805   0.857   5.959  0.3460  0.5170 -0.2419
13107TIP3    H160812   2.878   0.806   5.924  0.6930 -0.4953  1.7555
13107TIP3    H260813   2.826   0.867   6.052 -1.3665  1.4424  0.0799
13108TIP3   OH260814   4.216   3.379   3.703  0.2235  0.0119 -0.0362
13108TIP3    H160815   4.229   3.288   3.729  0.9847 -0.0119 -0.4837
13108TIP3    H260816   4.135   3.378   3.652 -1.1340 -0.0019  1.9645
13109TIP3   OH260817   0.531   3.066  16.744 -0.2904  0.1660 -0.0969
13109TIP3    H160818   0.591   3.112  16.802 -2.1637  1.9747  0.5268
13109TIP3    H260819   0.514   3.127  16.673 -0.2169 -0.9315 -1.0970
13110TIP3   OH260820   0.309   4.533   0.762  0.1085  0.5482  0.0132
13110TIP3    H160821   0.355   4.493   0.688  0.1464  0.4548  0.0871
13110TIP3    H260822   0.217   4.532   0.737  0.1699  0.9432 -0.2341
13111TIP3   OH260823   0.457   2.098   0.762  0.2167 -0.5124 -0.0200
13111TIP3    H160824   0.414   2.028   0.712  0.3880 -0.3682 -0.3704
13111TIP3    H260825   0.543   2.106   0.723 -0.1640  0.6091 -0.6627
13112TIP3   OH260826   0.808   4.359  14.877  0.1213  0.0702 -0.3981
13112TIP3    H160827   0.847   4.446  14.869  1.2984 -0.4699 -0.7571
13112TIP3    H260828   0.720   4.368  14.841  0.2894  1.0802 -0.5640
13113TIP3   OH260829   4.059   2.745   0.819 -0.1010 -0.3908 -0.5646
13113TIP3    H160830   4.085   2.654   0.809  0.1680 -0.5585  1.2468
13113TIP3    H260831   4.057   2.780   0.730 -1.8980 -2.6050 -1.4732
13114TIP3   OH260832   3.351   6.364  11.870 -0.4240  0.0840 -0.2447
13114TIP3    H160833   3.442   6.388  11.888 -0.2565 -1.2000  0.7976
13114TIP3    H260834   3.302   6.402  11.942 -0.5555 -0.1938 -0.1872
13115TIP3   OH260835   2.630   0.900   4.768  0.6374 -0.4884 -0.1865
13115TIP3    H160836   2.668   0.891   4.681  1.7459  0.9403  0.1107
13115TIP3    H260837   2.551   0.952   4.754  0.1875 -1.2321 -0.4676
13116TIP3   OH260838   0.207   1.319  15.840  0.0466  0.2075 -0.5181
13116TIP3    H160839   0.157   1.382  15.788 -2.4379 -1.0734  0.1605
13116TIP3    H260840   0.283   1.299  15.786 -0.6830  1.4882 -2.1072
13117TIP3   OH260841   0.658   1.862   4.410 -0.4935 -0.7317  0.1382
13117TIP3    H160842   0.695   1.880   4.324  0.6483  0.5209  0.8602
13117TIP3    H260843   0.609   1.780   4.399  1.2103 -1.6100 -1.2229
13118TIP3   OH260844   5.508   4.430  12.025 -0.2741  0.0754  0.1563
13118TIP3    H160845   5.475   4.504  11.975  1.7521  0.7997 -0.1920
13118TIP3    H260846   5.537   4.367  11.959  1.1459  0.4511  0.4017
13119TIP3   OH260847   0.838   2.523  12.088 -0.8345  0.2117  0.6325
13119TIP3    H160848   0.861   2.459  12.156 -0.9493  1.1917  1.6161
13119TIP3    H260849   0.743   2.530  12.093 -0.7870  0.7648  0.8233
13120TIP3   OH260850   2.478   0.417   0.724  0.4434 -0.2988  0.2399
13120TIP3    H160851   2.510   0.470   0.651  1.0082  0.5068  1.0409
13120TIP3    H260852   2.386   0.402   0.705  0.6734 -0.4324 -0.8214
13121TIP3   OH260853   3.820   1.549  16.038 -0.5099  0.0456  0.1694
13121TIP3    H160854   3.757   1.520  15.972  0.9388  0.6255 -1.5286
13121TIP3    H260855   3.871   1.471  16.059  0.7006  0.3811 -1.3534
13122TIP3   OH260856   2.037   3.308   4.146 -0.9009 -0.5041 -0.5605
13122TIP3    H160857   2.043   3.292   4.052 -1.5278  0.3289 -0.7564
13122TIP3    H260858   2.015   3.401   4.153 -1.7633 -0.7599  0.3828
13123TIP3   OH260859   6.250   0.889   0.224 -0.1658  0.0459 -0.2472
13123TIP3    H160860   6.249   0.973   0.178  0.0907  0.3755  0.3394
13123TIP3    H260861   6.166   0.886   0.269 -0.3191 -0.1719 -0.5417
13124TIP3   OH260862   0.244   3.185  12.114  0.1066 -0.3896 -0.4651
13124TIP3    H160863   0.185   3.246  12.069 -0.0731 -0.1272  0.1156
13124TIP3    H260864   0.314   3.240  12.148 -0.1994 -0.4635  0.2969
13125TIP3   OH260865   4.102   1.898  12.687 -0.1047  0.8904  0.0742
13125TIP3    H160866   4.078   1.936  12.772 -1.3634 -1.5341  0.8945
13125TIP3    H260867   4.189   1.862  12.700 -0.8771 -0.8038  0.8884
13126TIP3   OH260868   0.372   2.301   0.917  0.3020 -0.4233  0.1075
13126TIP3    H160869   0.379   2.264   1.005 -2.6175  0.7994  0.9790
13126TIP3    H260870   0.390   2.228   0.858 -0.5194 -2.0292  1.7580
13127TIP3   OH260871   2.083   6.284   1.496  0.1817 -0.1786  0.1517
13127TIP3    H160872   2.111   6.212   1.552  0.1889 -0.9107 -0.7718
13127TIP3    H260873   2.142   6.356   1.520 -0.0900 -0.3329  1.3661
13128TIP3   OH260874   3.439   3.231  11.871  0.2774  0.4345  0.2325
13128TIP3    H160875   3.430   3.138  11.893  2.1654 -0.0247 -0.7560
13128TIP3    H260876   3.533   3.244  11.856 -0.1211  2.1457 -1.1756
13129TIP3   OH260877   6.321   2.042  15.642  0.0663  0.1123 -0.3692
13129TIP3    H160878   6.295   2.091  15.563 -0.4979  0.4234  0.0029
13129TIP3    H260879   6.330   2.109  15.709  0.1143 -0.2058 -0.0577
13130TIP3   OH260880   4.085   0.237   4.578 -0.2912  0.2742  0.4234
13130TIP3    H160881   4.175   0.220   4.550 -0.8629  1.1114 -2.2168
13130TIP3    H260882   4.041   0.153   4.565 -0.2049  0.2442  0.3193
13131TIP3   OH260883   0.811   4.309   0.402  0.3368 -0.3164 -0.3021
13131TIP3    H160884   0.769   4.382   0.447  0.5919  0.5234 -1.3915
13131TIP3    H260885   0.749   4.237   0.409 -0.7657  0.5578 -0.8574
13132TIP3   OH260886   1.058   4.042   3.399 -0.4009  0.2202  0.0209
13132TIP3    H160887   1.094   4.125   3.367  0.9061 -0.6537 -0.8352
13132TIP3    H260888   1.066   4.048   3.494  0.6742  0.6412 -0.0864
13133TIP3   OH260889   3.566   1.050  15.600  0.0564 -0.4484  0.4394
13133TIP3    H160890   3.640   1.097  15.640  0.2479  0.1564 -0.5699
13133TIP3    H260891   3.542   1.105  15.525 -2.3897  0.1361  1.5755
13134TIP3   OH260892   5.810   3.067   1.429 -0.0425  0.3872  0.0879
13134TIP3    H160893   5.878   3.009   1.395  0.6423  1.0708  0.2565
13134TIP3    H260894   5.741   3.064   1.363 -0.3867 -1.2296  0.4666
13135TIP3   OH260895   1.234   2.764   4.249 -0.1651  0.2585  0.6526
13135TIP3    H160896   1.179   2.835   4.282 -1.1680 -0.5520  0.7695
13135TIP3    H260897   1.240   2.702   4.322 -2.4079 -1.5566 -0.5802
13136TIP3   OH260898   4.218   1.214  11.031 -0.5957 -0.2297  0.4352
13136TIP3    H160899   4.147   1.237  10.972 -1.1641 -0.8218  0.8663
13136TIP3    H260900   4.199   1.261  11.112 -1.1775 -1.3357  0.9592
13137TIP3   OH260901   5.611   5.823   5.556 -0.4944  0.3128  0.1222
13137TIP3    H160902   5.542   5.760   5.575  0.1511 -0.0215  1.4068
13137TIP3    H260903   5.577   5.874   5.482 -1.8528 -0.2380  0.3454
13138TIP3   OH260904   6.692   2.705  14.578 -0.2654 -0.0613  0.7717
13138TIP3    H160905   6.706   2.613  14.600  0.6040 -0.6012 -1.6219
13138TIP3    H260906   6.608   2.727  14.617 -0.8765 -2.1267  0.7582
13139TIP3   OH260907   4.936   3.239  13.024  0.3132  0.1531 -0.1033
13139TIP3    H160908   4.999   3.265  12.957 -0.7506  0.7593 -0.8993
13139TIP3    H260909   4.891   3.163  12.986  0.8645 -0.5774  0.6589
13140TIP3   OH260910   4.026   0.427  13.589  0.0420  0.4687  0.0246
13140TIP3    H160911   4.051   0.370  13.517 -0.8819  1.2922 -0.9756
13140TIP3    H260912   3.978   0.370  13.650 -1.4535  0.2596 -1.2747
13141TIP3   OH260913   1.191   2.728  13.452  0.4410 -0.5877  0.2828
13141TIP3    H160914   1.153   2.812  13.426  0.6156 -0.2801  0.9913
13141TIP3    H260915   1.138   2.662  13.408 -0.2081 -0.1275  0.3682
13142TIP3   OH260916   2.364   0.621   1.314 -0.2812  0.2041  0.0530
13142TIP3    H160917   2.358   0.701   1.261 -0.7477 -0.0206 -0.2472
13142TIP3    H260918   2.276   0.609   1.350 -0.5004 -0.7173 -0.7265
13143TIP3   OH260919   3.987   4.030  15.346 -0.1116 -0.3699  0.0390
13143TIP3    H160920   3.917   3.990  15.295  0.4610 -2.5690  0.8767
13143TIP3    H260921   3.949   4.040  15.434 -0.0365  0.4134 -0.0069
13144TIP3   OH260922   6.642   0.013   5.719  0.7728 -0.2526 -0.3864
13144TIP3    H160923   6.631   0.092   5.666 -0.1263  1.0678  1.6413
13144TIP3    H260924   6.610  -0.058   5.663 -3.1123  1.4390 -0.6160
13145TIP3   OH260925   4.456   0.509   3.692  0.1718 -0.7286 -0.0333
13145TIP3    H160926   4.362   0.495   3.687  0.0970 -0.4823  0.5473
13145TIP3    H260927   4.465   0.588   3.745  0.6596 -0.0151 -1.1473
13146TIP3   OH260928   2.331   4.525  14.009  0.5709  0.4771 -0.1776
13146TIP3    H160929   2.261   4.496  14.067  0.5174  0.1328 -0.4063
13146TIP3    H260930   2.292   4.597  13.959  0.6738  0.8888  0.3297
13147TIP3   OH260931   1.678   4.146   0.364 -0.3772 -0.2132  0.4258
13147TIP3    H160932   1.710   4.067   0.408  2.1226 -0.4045 -1.5170
13147TIP3    H260933   1.663   4.118   0.274  2.6114  1.8424 -0.8842
13148TIP3   OH260934   4.024   3.240   2.254 -0.1536  0.3898 -0.7096
13148TIP3    H160935   3.939   3.225   2.212  0.7719 -2.3368 -1.7984
13148TIP3    H260936   4.084   3.256   2.181  0.7846 -0.6088 -0.1706
13149TIP3   OH260937   6.315   2.528   1.796 -0.5386 -0.2577  0.3469
13149TIP3    H160938   6.403   2.541   1.831  0.4758  0.4380 -2.2269
13149TIP3    H260939   6.319   2.442   1.754 -1.4020 -0.6359  1.0101
13150TIP3   OH260940   0.887   3.233   3.320 -0.1000  0.1675  0.4417
13150TIP3    H160941   0.963   3.187   3.356 -0.7467 -1.2567  0.0490
13150TIP3    H260942   0.813   3.175   3.338 -0.5424 -0.4504 -2.7175
13151TIP3   OH260943   1.793   2.180   4.742 -0.0664 -0.0075 -0.5175
13151TIP3    H160944   1.871   2.213   4.788 -0.0379  1.0503 -1.2905
13151TIP3    H260945   1.810   2.086   4.732  0.3412 -0.0993  0.7967
13152TIP3   OH260946   6.196   3.365   4.486  0.1605  0.4993  0.0573
13152TIP3    H160947   6.252   3.425   4.534  0.1113  0.1359  0.5738
13152TIP3    H260948   6.112   3.411   4.479 -0.0043  0.3274  0.8143
13153TIP3   OH260949   5.878   1.679   0.490  0.2166  0.1480  0.1095
13153TIP3    H160950   5.824   1.662   0.567  0.0678  2.0620  0.4719
13153TIP3    H260951   5.966   1.687   0.524  0.6345 -1.8710 -0.3441
13154TIP3   OH260952   5.237   4.895   5.781 -0.3432  0.1687  0.2763
13154TIP3    H160953   5.151   4.866   5.812  0.2238 -1.3333  0.5465
13154TIP3    H260954   5.218   4.967   5.722 -1.7786 -0.0387  0.4366
13155TIP3   OH260955   5.202   2.422  16.865 -0.4783  0.4999  0.7473
13155TIP3    H160956   5.114   2.442  16.898 -1.0801  0.9321 -1.0181
13155TIP3    H260957   5.230   2.503  16.821 -0.4136 -0.5151 -1.1914
13156TIP3   OH260958   1.713   0.557   5.931 -0.4857  0.1996 -0.4168
13156TIP3    H160959   1.773   0.590   5.997  1.1197 -0.0066 -1.7055
13156TIP3    H260960   1.733   0.463   5.924  0.7942  0.5478 -2.4999
13157TIP3   OH260961   1.644   5.808   4.855 -0.6247 -0.3662 -0.9313
13157TIP3    H160962   1.596   5.883   4.819 -0.6389 -0.7132 -1.6655
13157TIP3    H260963   1.581   5.766   4.913 -0.8080 -0.1332 -0.9554
13158TIP3   OH260964   1.642   0.020   0.834  0.3137 -0.1052  0.6552
13158TIP3    H160965   1.663   0.105   0.874 -1.0102 -0.2508  1.7084
13158TIP3    H260966   1.690  -0.044   0.886  1.2759 -0.0318 -0.1115
13159TIP3   OH260967   3.298   3.804   1.726 -0.2202  0.4687  0.0233
13159TIP3    H160968   3.366   3.745   1.694  0.3797  1.4349 -0.5048
13159TIP3    H260969   3.233   3.807   1.656 -0.2544  0.4408  0.0535
13160TIP3   OH260970   5.265   3.106   5.776 -0.2717 -0.5798  0.0240
13160TIP3    H160971   5.230   3.114   5.864 -1.7192  1.7141 -0.6849
13160TIP3    H260972   5.193   3.068   5.724 -0.2897  0.3034 -0.6202
13161TIP3   OH260973   4.479   5.220   2.916 -0.7776  0.2337 -0.4572
13161TIP3    H160974   4.542   5.192   2.849 -0.2053  0.8245 -0.1733
13161TIP3    H260975   4.449   5.306   2.886  0.0825  0.8620  0.4415
13162TIP3   OH260976   1.515   0.147  15.198  0.3074  0.3270 -0.7702
13162TIP3    H160977   1.572   0.106  15.263  1.1731  0.1656 -1.6039
13162TIP3    H260978   1.525   0.092  15.120 -2.8214 -1.1138 -0.2936
13163TIP3   OH260979   6.782   5.772  16.649 -0.0197 -0.0142 -0.3882
13163TIP3    H160980   6.738   5.856  16.643 -0.2495 -0.2368 -2.2406
13163TIP3    H260981   6.724   5.718  16.703 -1.0171  0.3088 -1.1218
13164TIP3   OH260982   2.609   6.026   0.012 -0.6645  0.2612 -1.0621
13164TIP3    H160983   2.647   5.990  -0.068 -0.7836  1.5964 -1.7582
13164TIP3    H260984   2.662   6.104   0.031 -2.5357  1.7711 -1.6588
13165TIP3   OH260985   3.793   1.362  14.789  0.4402 -0.3607  0.0825
13165TIP3    H160986   3.818   1.402  14.706 -0.4747 -0.6137 -0.3266
13165TIP3    H260987   3.865   1.301  14.809  0.5619 -0.4652 -0.6350
13166TIP3   OH260988   5.274   1.846  11.879  0.7439 -0.0880  0.4156
13166TIP3    H160989   5.345   1.818  11.938  0.5571  2.2341  1.8927
13166TIP3    H260990   5.277   1.942  11.882  0.3693  0.1358 -3.0432
13167TIP3   OH260991   4.750   2.619  13.157 -0.2275 -0.5998 -0.6687
13167TIP3    H160992   4.800   2.549  13.200  0.1254  0.0579  0.0260
13167TIP3    H260993   4.815   2.688  13.143 -1.0022  0.4216  0.6025
13168TIP3   OH260994   5.325   5.437  16.423  0.2728 -0.3746  0.1284
13168TIP3    H160995   5.301   5.501  16.490  2.2691  0.3873  0.1811
13168TIP3    H260996   5.269   5.456  16.349  1.3980  2.0786 -0.1834
13169TIP3   OH260997   2.438   4.896  16.584  0.6693 -0.0079  0.5193
13169TIP3    H160998   2.441   4.888  16.489 -0.7822 -0.9661  0.5145
13169TIP3    H260999   2.434   4.806  16.616 -1.0980  0.3136  1.3436
13170TIP3   OH261000   6.370   2.047  17.097  0.7327  0.1100  0.3364
13170TIP3    H161001   6.303   2.022  17.160 -0.0847  2.2132  0.4092
13170TIP3    H261002   6.412   2.124  17.137 -0.1399  1.8133 -1.8112
13171TIP3   OH261003   1.077   0.217   4.103 -0.6199  0.2896 -0.4365
13171TIP3    H161004   1.158   0.224   4.152 -0.3736  2.1048 -1.0299
13171TIP3    H261005   1.017   0.169   4.161  0.0885  1.1486  1.0381
13172TIP3   OH261006   4.945   2.248   4.486 -0.2335  0.3889 -0.1428
13172TIP3    H161007   5.014   2.244   4.551  2.1257 -0.7931 -2.5267
13172TIP3    H261008   4.944   2.160   4.447 -3.4412  0.2026  0.0521
13173TIP3   OH261009   4.034   1.661   1.587  0.0525 -0.3410  0.4432
13173TIP3    H161010   4.057   1.750   1.558  0.0848 -0.3692  0.3827
13173TIP3    H261011   4.063   1.605   1.516 -2.2671 -0.2022 -0.7004
13174TIP3   OH261012   4.513   2.061   4.692  0.1394  0.0714  0.7167
13174TIP3    H161013   4.504   2.135   4.633  0.1146 -1.2919 -1.0788
13174TIP3    H261014   4.599   2.024   4.671  0.3313 -0.1827  1.8785
13175TIP3   OH261015   3.127   2.307  14.265 -0.4021 -0.1165  0.5080
13175TIP3    H161016   3.218   2.334  14.250 -0.8563  0.2387 -2.1786
13175TIP3    H261017   3.089   2.379  14.316 -0.1690  1.8545 -1.8870
13176TIP3   OH261018   2.802   0.668   2.197 -0.2615 -0.3884  0.3071
13176TIP3    H161019   2.845   0.695   2.278  0.0264 -0.1294  0.0666
13176TIP3    H261020   2.872   0.629   2.145 -0.4740 -0.6720  0.2348
13177TIP3   OH261021   4.899   4.600  12.877  0.2984 -0.1663 -0.3316
13177TIP3    H161022   4.932   4.661  12.944 -0.1320 -0.9022  0.5626
13177TIP3    H261023   4.812   4.634  12.855  0.1543 -0.3211 -0.0047
13178TIP3   OH261024   4.432   3.614   4.548 -0.2353  0.2519 -0.5550
13178TIP3    H161025   4.466   3.594   4.461 -0.3647 -1.0112 -0.3298
13178TIP3    H261026   4.343   3.647   4.533 -0.2381  0.0837 -0.9010
13179TIP3   OH261027   0.014   6.294  13.455  0.8756 -0.4018 -0.3028
13179TIP3    H161028   0.082   6.239  13.416  0.6195 -0.4489 -0.6932
13179TIP3    H261029  -0.047   6.311  13.383  0.6959 -0.0108 -0.0640
13180TIP3   OH261030   6.803   3.841  16.596 -0.2588  0.3882 -0.2594
13180TIP3    H161031   6.798   3.789  16.515  1.1370  0.4718 -0.4261
13180TIP3    H261032   6.715   3.878  16.606 -0.7268 -0.4034 -1.2108
13181TIP3   OH261033   5.323   4.966  11.589 -0.0817 -0.6714 -0.0782
13181TIP3    H161034   5.401   4.972  11.643  0.0538  1.8788 -0.4619
13181TIP3    H261035   5.251   4.991  11.647 -0.3669 -1.0431 -0.2598
13182TIP3   OH261036   0.962   4.517  12.080 -0.4884 -0.0721  0.6195
13182TIP3    H161037   0.871   4.487  12.083 -0.0120 -1.6291  0.2973
13182TIP3    H261038   0.993   4.508  12.170 -0.1205 -1.3373  0.3807
13183TIP3   OH261039   2.534   2.422   0.194  0.5102 -0.0271 -0.2584
13183TIP3    H161040   2.473   2.484   0.234  0.7804 -0.6674  1.1979
13183TIP3    H261041   2.492   2.397   0.111  0.4778  2.1918 -0.9698
13184TIP3   OH261042   6.392   4.112  11.757  0.1862 -0.0115 -0.1545
13184TIP3    H161043   6.339   4.187  11.730  0.7310  0.2015 -0.6618
13184TIP3    H261044   6.466   4.152  11.804 -0.9194 -0.3826  2.0245
13185TIP3   OH261045   1.392   3.075  15.523 -0.4925 -0.7389  0.0950
13185TIP3    H161046   1.344   3.126  15.588  0.6195  0.6385 -0.1273
13185TIP3    H261047   1.342   3.086  15.442 -2.3687 -3.1682  0.8238
13186TIP3   OH261048   1.839   3.932   2.518  0.2111 -1.0669  0.0345
13186TIP3    H161049   1.750   3.953   2.544  0.5597  1.4936 -0.5507
13186TIP3    H261050   1.831   3.896   2.430 -0.2011  0.7829 -0.7400
13187TIP3   OH261051   6.376   4.937   1.951 -0.2459  0.1920 -0.2628
13187TIP3    H161052   6.291   4.981   1.950  1.0223  2.8584 -0.2868
13187TIP3    H261053   6.433   4.998   1.997  1.5422 -1.8172  0.3228
13188TIP3   OH261054   2.193   4.241   3.168 -0.3904 -0.6799  0.0455
13188TIP3    H161055   2.238   4.162   3.197 -1.4105 -1.0566  0.6435
13188TIP3    H261056   2.109   4.210   3.133 -0.7147  0.1101  0.0812
13189TIP3   OH261057   0.331   1.916   3.571  0.1679  0.5114  0.0274
13189TIP3    H161058   0.311   1.982   3.504  1.0324 -0.6842 -1.4585
13189TIP3    H261059   0.245   1.889   3.604 -0.7506 -2.0613 -3.7842
13190TIP3   OH261060   5.074   1.603   0.489 -0.3153  0.2748  0.3566
13190TIP3    H161061   5.084   1.698   0.476 -1.6643  0.3108 -0.5304
13190TIP3    H261062   5.099   1.565   0.405 -2.9331  0.0951 -0.4277
13191TIP3   OH261063   4.626   1.610  12.001 -0.0286  0.2686  0.1734
13191TIP3    H161064   4.598   1.577  11.915  0.3653  1.3304 -0.3873
13191TIP3    H261065   4.544   1.638  12.043 -0.2093 -0.1166  0.0830
13192TIP3   OH261066   4.394   2.846  14.590 -0.1808 -0.0164 -0.2039
13192TIP3    H161067   4.420   2.900  14.665 -0.6108 -2.3063  1.7031
13192TIP3    H261068   4.319   2.796  14.621 -0.5524 -0.8720 -2.2896
13193TIP3   OH261069   5.642   2.689  15.469 -0.4203  0.3202  0.5006
13193TIP3    H161070   5.707   2.619  15.458 -1.4543 -0.8207  1.4666
13193TIP3    H261071   5.592   2.688  15.387  0.4559  0.8941 -0.0590
13194TIP3   OH261072   2.486   5.045  15.463 -0.6666 -0.0801 -0.1578
13194TIP3    H161073   2.475   5.112  15.531 -0.7642 -0.9933  0.7553
13194TIP3    H261074   2.435   4.970  15.495 -0.2079 -0.7464 -0.9484
13195TIP3   OH261075   3.142   3.888   1.518 -0.8004  0.2386 -0.2128
13195TIP3    H161076   3.099   3.968   1.549 -1.1564 -0.1818  0.4014
13195TIP3    H261077   3.190   3.915   1.439 -0.4134  1.1889  0.3344
13196TIP3   OH261078   2.515   3.360  14.601 -0.1667 -0.0319 -0.0083
13196TIP3    H161079   2.489   3.305  14.526  0.0292  1.8933 -1.5691
13196TIP3    H261080   2.432   3.385  14.642 -0.2648 -1.3574  0.6727
13197TIP3   OH261081   3.210   5.204  11.661 -0.2693  0.2216  0.3294
13197TIP3    H161082   3.231   5.111  11.674  2.5779  0.5947 -0.9257
13197TIP3    H261083   3.250   5.248  11.737  2.0190  0.7464 -1.0852
13198TIP3   OH261084   6.656   6.218  14.972  0.4250 -0.5310  0.5101
13198TIP3    H161085   6.709   6.203  14.894 -1.0909  1.4067 -1.0116
13198TIP3    H261086   6.670   6.310  14.993 -2.2039  0.0689  0.0396
13199TIP3   OH261087   4.705   3.848   3.058  0.5395  0.2567 -0.2919
13199TIP3    H161088   4.622   3.824   3.100 -0.1602  1.7749 -0.7115
13199TIP3    H261089   4.771   3.796   3.104 -0.3605  0.7406  1.6885
13200TIP3   OH261090   1.025   4.011  14.229 -0.4730 -0.3915 -0.4079
13200TIP3    H161091   0.938   4.018  14.190  0.4565 -1.3043 -2.8316
13200TIP3    H261092   1.081   3.982  14.157  1.8234  0.0275  1.1154
13201TIP3   OH261093   2.291   2.263  14.530 -0.5182 -0.1481 -0.5462
13201TIP3    H161094   2.251   2.343  14.496  0.8287  0.1211 -1.5751
13201TIP3    H261095   2.353   2.237  14.462  2.6862  0.6836  1.8588
13202TIP3   OH261096   0.684   1.730  15.093  0.4045  0.3717 -0.3711
13202TIP3    H161097   0.636   1.672  15.033  0.6827 -1.0364  0.7143
13202TIP3    H261098   0.693   1.812  15.044 -2.5688  0.5291 -0.8659
13203TIP3   OH261099   5.350   0.670  13.210  0.2908 -0.5816  0.4444
13203TIP3    H161100   5.407   0.627  13.275  1.6094  0.2280 -0.1399
13203TIP3    H261101   5.394   0.752  13.190 -0.9352 -0.0806 -0.2943
13204TIP3   OH261102   0.105   1.228   4.357 -0.2352 -0.6407  0.2318
13204TIP3    H161103   0.167   1.207   4.427  0.0586 -0.2660  0.0911
13204TIP3    H261104   0.107   1.324   4.352 -1.8003 -0.5325  1.1003
13205TIP3   OH261105   2.087   3.689  15.414 -0.3048  0.3784  0.7882
13205TIP3    H161106   2.083   3.731  15.500 -1.2833  1.3081  0.3167
13205TIP3    H261107   2.030   3.612  15.422 -0.4803  0.5219  0.9480
13206TIP3   OH261108   0.083   6.409   1.558 -0.4008 -0.1540 -0.2607
13206TIP3    H161109   0.114   6.500   1.549 -0.6180 -0.0148  0.3295
13206TIP3    H261110   0.124   6.363   1.485 -2.1824  0.9080 -2.0645
13207TIP3   OH261111   1.502   0.485  13.836 -0.0450  0.5798 -0.1106
13207TIP3    H161112   1.524   0.573  13.866  0.9029  0.0932  0.6512
13207TIP3    H261113   1.582   0.453  13.795 -0.5776  0.2871 -0.9628
13208TIP3   OH261114   2.118   0.776  12.391 -0.0298  0.1007 -0.1678
13208TIP3    H161115   2.066   0.848  12.425  1.7874  1.0508  0.7896
13208TIP3    H261116   2.056   0.721  12.344 -1.6393  1.7934 -0.1333
13209TIP3   OH261117   2.756   0.381  16.067 -0.2011 -0.4052 -0.0121
13209TIP3    H161118   2.796   0.420  16.145 -1.4921  1.0233 -0.0316
13209TIP3    H261119   2.734   0.292  16.094  0.2908 -0.2519  0.9304
13210TIP3   OH261120   2.203   1.065  12.708 -0.0495 -0.0550  0.6041
13210TIP3    H161121   2.137   1.094  12.771 -1.1897 -1.1410 -0.0422
13210TIP3    H261122   2.265   1.138  12.702 -0.2402  0.3044  2.5196
13211TIP3   OH261123   6.328   1.474  13.624  0.6756 -0.1275  0.0807
13211TIP3    H161124   6.337   1.569  13.625  1.3197 -0.1891  0.7462
13211TIP3    H261125   6.265   1.454  13.693  0.1096 -0.1582 -0.4284
13212TIP3   OH261126   3.313   4.155   4.394  0.9519 -0.4548 -0.0716
13212TIP3    H161127   3.373   4.137   4.466 -0.1652  0.3134  1.1146
13212TIP3    H261128   3.250   4.217   4.431  0.7347  0.5043 -1.9337
13213TIP3   OH261129   4.870   1.395   0.929  0.2666 -0.2810 -0.3054
13213TIP3    H161130   4.966   1.394   0.920  0.5293  4.5216 -0.5844
13213TIP3    H261131   4.838   1.353   0.849  2.1276 -1.1163 -0.6647
13214TIP3   OH261132   3.063   1.611   1.240  0.0612 -0.0633 -0.2025
13214TIP3    H161133   3.000   1.539   1.230 -0.3709  0.4554 -1.3408
13214TIP3    H261134   3.010   1.690   1.233  0.6506  0.3779  0.2335
13215TIP3   OH261135   1.559   5.373   0.247  0.2535 -0.0908 -0.1180
13215TIP3    H161136   1.581   5.322   0.169 -0.6126  1.7317 -1.6616
13215TIP3    H261137   1.464   5.371   0.252  0.3308 -0.9645  1.4931
13216TIP3   OH261138   5.847   0.724  12.895  0.0378  0.6331  0.3011
13216TIP3    H161139   5.894   0.806  12.908 -0.7164  1.1771 -0.3406
13216TIP3    H261140   5.778   0.723  12.961 -0.3531  0.8169 -0.1032
13217TIP3   OH261141   6.203   2.608  10.671  0.6921  0.2055  0.0929
13217TIP3    H161142   6.227   2.590  10.581 -2.2740 -1.1765 -0.5194
13217TIP3    H261143   6.214   2.525  10.717  2.6038  0.9972  1.1818
13218TIP3   OH261144   0.142   5.330   0.130 -0.2751 -0.2534  0.5475
13218TIP3    H161145   0.218   5.387   0.137 -0.8377  0.4455  1.1752
13218TIP3    H261146   0.156   5.262   0.196 -0.0004 -0.3809  0.3620
13219TIP3   OH261147   1.286   5.540  15.087  0.0566  0.0034  0.2385
13219TIP3    H161148   1.252   5.451  15.074 -3.0779  1.3002 -1.8079
13219TIP3    H261149   1.369   5.541  15.039 -0.8558 -1.3481 -1.5200
13220TIP3   OH261150   1.033   4.696   5.975  0.3789 -0.9144  0.3981
13220TIP3    H161151   1.015   4.784   6.006  1.1367 -1.1625  1.5876
13220TIP3    H261152   1.113   4.705   5.923  0.1793 -0.8228  0.1048
13221TIP3   OH261153   3.828   5.255   2.101 -0.1083  0.5643 -0.4095
13221TIP3    H161154   3.738   5.229   2.079 -0.1027  0.8370 -0.7575
13221TIP3    H261155   3.870   5.270   2.016  0.3268  0.2445 -0.2582
13222TIP3   OH261156   1.269   1.801   3.864  0.4537 -0.0870  0.0120
13222TIP3    H161157   1.289   1.818   3.956  2.3126 -0.0007 -0.3599
13222TIP3    H261158   1.288   1.884   3.820  1.0280 -0.5515 -0.6358
13223TIP3   OH261159   0.378   3.321  12.560 -0.1627  0.1079  0.2906
13223TIP3    H161160   0.311   3.344  12.496 -0.1912 -1.3743 -0.2682
13223TIP3    H261161   0.460   3.353  12.522 -0.2893  0.0149 -0.0614
13224TIP3   OH261162   2.841   5.733   3.115 -0.0429 -0.7275 -0.0253
13224TIP3    H161163   2.838   5.798   3.184 -0.2990  0.7852 -1.3938
13224TIP3    H261164   2.758   5.743   3.069  0.5194 -1.0086 -1.1395
13225TIP3   OH261165   0.414   3.770  12.202 -0.3264 -0.2131  0.1928
13225TIP3    H161166   0.385   3.751  12.291  3.8032 -2.1159  1.3616
13225TIP3    H261167   0.446   3.860  12.206  0.6610 -0.5734  0.9655
13226TIP3   OH261168   2.681   6.780   2.953  0.1757  0.1317  0.3066
13226TIP3    H161169   2.754   6.752   2.898  0.6149 -0.2876  1.0828
13226TIP3    H261170   2.628   6.702   2.965 -0.1920  0.3408  0.0720
13227TIP3   OH261171   2.730   1.999   3.961  0.6743  0.5772 -0.2653
13227TIP3    H161172   2.651   1.961   3.998  1.9190 -1.8533  0.1025
13227TIP3    H261173   2.760   2.062   4.026  0.1522 -0.0283  0.5816
13228TIP3   OH261174   4.995   5.450  12.149  0.3759 -0.8075 -0.2391
13228TIP3    H161175   4.906   5.413  12.151  0.7158 -1.6331  0.7627
13228TIP3    H261176   4.998   5.507  12.226 -0.1578  1.4323 -1.7934
13229TIP3   OH261177   4.947   2.716  12.503 -0.1908  0.1852 -0.0257
13229TIP3    H161178   4.990   2.631  12.500 -1.6112 -0.5614 -0.0450
13229TIP3    H261179   4.944   2.739  12.596 -1.2307 -0.5664  0.1448
13230TIP3   OH261180   1.317   1.896  16.283  0.3519  0.2223 -0.1022
13230TIP3    H161181   1.227   1.886  16.252  0.2033  1.9494 -0.3465
13230TIP3    H261182   1.370   1.899  16.203  0.1877  2.7244 -0.1900
13231TIP3   OH261183   6.778   1.025  12.023  0.2761 -0.1237 -0.2313
13231TIP3    H161184   6.780   1.026  12.119  0.1681 -0.7632 -0.2218
13231TIP3    H261185   6.708   0.964  12.001  0.5849 -0.3073 -0.7185
13232TIP3   OH261186   0.499   0.539   6.092 -0.3387 -0.1522  0.0290
13232TIP3    H161187   0.449   0.586   6.160  0.8630 -0.5428  1.2299
13232TIP3    H261188   0.432   0.504   6.033 -1.3331  3.0310 -0.9720
13233TIP3   OH261189   4.624   5.110  12.161  0.2562  0.1780  0.2968
13233TIP3    H161190   4.647   5.200  12.138  1.9258 -0.3956 -0.4144
13233TIP3    H261191   4.595   5.071  12.078 -4.3284  1.0423  1.2203
13234TIP3   OH261192   6.571   5.857   0.652  0.0765 -0.2885 -0.4460
13234TIP3    H161193   6.576   5.950   0.672 -0.5387  0.0759 -1.8609
13234TIP3    H261194   6.480   5.833   0.669  0.0280 -0.4261 -0.8706
13235TIP3   OH261195   4.864   3.040   5.484 -0.0167  1.0131 -0.1208
13235TIP3    H161196   4.948   3.086   5.481  0.1876  0.6083 -0.8738
13235TIP3    H261197   4.862   2.989   5.403 -0.5674  0.2684  0.3509
13236TIP3   OH261198   6.192   2.568   5.698  0.2278  0.3019  0.0809
13236TIP3    H161199   6.218   2.558   5.790 -0.6159  1.4854  0.4838
13236TIP3    H261200   6.244   2.643   5.667  1.1819 -0.6440 -0.7093
13237TIP3   OH261201   2.816   0.190   2.627  0.3103  1.0405 -0.1294
13237TIP3    H161202   2.899   0.192   2.675  0.2838 -1.1555  0.1263
13237TIP3    H261203   2.839   0.151   2.543 -0.6566 -1.1230  0.5367
13238TIP3   OH261204   2.865   6.311   1.009 -0.6417 -0.5839 -0.7802
13238TIP3    H161205   2.871   6.351   0.922 -0.2774 -1.5891 -1.2309
13238TIP3    H261206   2.780   6.266   1.008 -0.4349 -0.9752 -0.7856
13239TIP3   OH261207   0.270   2.973   0.722 -0.6506 -0.1994 -0.3470
13239TIP3    H161208   0.260   2.923   0.641 -0.6072 -1.3574  0.3447
13239TIP3    H261209   0.187   3.020   0.732 -0.9882 -0.7316 -0.6075
13240TIP3   OH261210   2.102   1.022  11.268 -0.1358  0.4074  0.0202
13240TIP3    H161211   2.099   0.972  11.186  1.1455 -0.8387  0.6798
13240TIP3    H261212   2.120   0.956  11.335 -0.0597  1.5518  1.1584
13241TIP3   OH261213   4.156   4.674  16.452 -0.0951  0.7397  0.6576
13241TIP3    H161214   4.213   4.661  16.377 -1.1055 -0.3425  0.0522
13241TIP3    H261215   4.069   4.649  16.421 -0.8240  1.8267  1.7138
13242TIP3   OH261216   5.897   0.791   0.231  0.2735 -0.5217 -0.2089
13242TIP3    H161217   5.927   0.871   0.275  0.2804 -0.4338 -0.3740
13242TIP3    H261218   5.811   0.774   0.270  0.3998 -0.5994  0.0384
13243TIP3   OH261219   1.646   3.311  13.740  0.0149  0.0409  0.1955
13243TIP3    H161220   1.670   3.261  13.663 -0.5146  0.5500 -0.3089
13243TIP3    H261221   1.557   3.284  13.761 -0.4312  1.0426 -0.3267
13244TIP3   OH261222   1.128   1.538   1.791 -0.1651 -0.1718  0.4455
13244TIP3    H161223   1.143   1.584   1.874  0.7075  2.3141 -0.9850
13244TIP3    H261224   1.100   1.607   1.731  0.2536 -1.7109 -1.5945
13245TIP3   OH261225   3.492   4.371   2.543  0.3567 -0.0337 -0.5570
13245TIP3    H161226   3.518   4.281   2.523  1.4631  0.2292 -0.3812
13245TIP3    H261227   3.574   4.420   2.541  0.0571  0.6130  1.3275
13246TIP3   OH261228   4.863   5.352   1.667 -0.1190  0.3628  0.5626
13246TIP3    H161229   4.816   5.284   1.714 -0.5094  0.3801  0.1985
13246TIP3    H261230   4.937   5.374   1.724 -1.1293  1.0818  1.6143
13247TIP3   OH261231   0.870   1.899   1.515  0.2565  0.1545  0.4045
13247TIP3    H161232   0.825   1.870   1.436  0.2413  2.1829 -0.4023
13247TIP3    H261233   0.824   1.855   1.587 -0.7555 -0.5019 -0.6237
13248TIP3   OH261234   3.351   4.772  14.304 -0.1640  0.1743  0.0388
13248TIP3    H161235   3.327   4.680  14.311 -0.9748  0.4740  1.6102
13248TIP3    H261236   3.338   4.807  14.392  1.9135  1.3759 -0.0583
13249TIP3   OH261237   3.288   2.708   5.640 -0.1490  0.6851 -0.3722
13249TIP3    H161238   3.214   2.692   5.581  1.1230  0.3359 -1.9276
13249TIP3    H261239   3.342   2.772   5.593 -0.3207  2.2986  1.5190
13250TIP3   OH261240   1.112   3.656  13.677  0.1799 -0.0468 -0.1936
13250TIP3    H161241   1.092   3.680  13.768 -0.1394  0.4336 -0.3904
13250TIP3    H261242   1.195   3.608  13.683  0.4522  0.4706  0.2941
13251TIP3   OH261243   5.796   1.505   4.894 -0.0960 -0.2210 -0.5372
13251TIP3    H161244   5.810   1.435   4.830  0.5909 -0.3867 -0.2148
13251TIP3    H261245   5.879   1.553   4.897 -0.2840  0.0932 -0.1364
13252TIP3   OH261246   2.524   0.121   5.424 -0.2981 -0.6010 -0.0272
13252TIP3    H161247   2.455   0.125   5.491 -0.3595  1.6348 -0.1509
13252TIP3    H261248   2.492   0.177   5.353  1.1597 -0.3888 -0.5487
13253TIP3   OH261249   6.416   3.349   5.899  0.1318 -0.5845  0.6452
13253TIP3    H161250   6.511   3.339   5.897  0.0731 -1.1573  0.2780
13253TIP3    H261251   6.390   3.310   5.982  0.1450 -1.2472  0.3495
13254TIP3   OH261252   1.252   1.634  12.608  0.1949 -0.0693  0.5908
13254TIP3    H161253   1.300   1.660  12.686  0.3689  1.0229  0.1340
13254TIP3    H261254   1.183   1.699  12.599  1.3442  0.9950 -1.2186
13255TIP3   OH261255   1.400   5.324  16.550  0.4819  0.0833  0.3358
13255TIP3    H161256   1.493   5.349  16.553  0.4319  0.1735  1.6697
13255TIP3    H261257   1.401   5.228  16.551  0.5574  0.0846  1.2052
13256TIP3   OH261258   0.049   1.814  12.567 -0.0975  0.1595  0.4361
13256TIP3    H161259  -0.021   1.749  12.562  0.8602 -0.9237  0.6910
13256TIP3    H261260   0.053   1.838  12.659 -0.7467  0.9162  0.2681
13257TIP3   OH261261   6.009   5.588  14.253  0.7970 -0.0751  0.0115
13257TIP3    H161262   5.976   5.663  14.204  0.9071 -0.1501 -0.1817
13257TIP3    H261263   5.984   5.605  14.344 -0.7638 -0.6815 -0.2863
13258TIP3   OH261264   6.643   2.861  11.108  0.0649  0.2389 -0.1319
13258TIP3    H161265   6.551   2.866  11.081 -0.2520 -4.5307 -0.7449
13258TIP3    H261266   6.639   2.848  11.203 -0.1199 -2.0372 -0.4118
13259TIP3   OH261267   5.061   2.591   4.823 -0.1903  0.4177  0.0672
13259TIP3    H161268   5.135   2.627   4.775 -0.1240 -1.5631 -1.4197
13259TIP3    H261269   5.092   2.584   4.913  1.3509 -0.1592 -0.4818
13260TIP3   OH261270   3.662   0.266   4.980 -0.2853  0.5785 -0.0152
13260TIP3    H161271   3.661   0.320   5.059  0.3532  0.4045  0.1169
13260TIP3    H261272   3.755   0.255   4.960 -0.3295 -1.4388  0.6320
13261TIP3   OH261273   1.472   5.404  14.334 -0.3196 -0.3582  0.1021
13261TIP3    H161274   1.486   5.494  14.365 -0.5410 -0.4432  0.4528
13261TIP3    H261275   1.379   5.400  14.313 -0.4097 -0.6492  0.5521
13262TIP3   OH261276   1.659   0.429  11.581 -0.3608  0.3269 -0.3330
13262TIP3    H161277   1.619   0.396  11.662 -1.9779  0.2445 -1.1205
13262TIP3    H261278   1.748   0.393  11.581 -0.4756 -0.0158  1.1860
13263TIP3   OH261279   1.010   6.788  16.533  0.2936 -0.3222 -0.3280
13263TIP3    H161280   1.025   6.733  16.610  1.4471  2.1561  1.3255
13263TIP3    H261281   1.074   6.858  16.540 -2.6723  2.7010 -0.8931
13264TIP3   OH261282   5.266   5.809   1.127 -0.0903 -0.3523  0.7162
13264TIP3    H161283   5.229   5.895   1.146  0.8504  0.4696 -0.9534
13264TIP3    H261284   5.358   5.817   1.150 -0.1348 -1.1316  1.1752
13265TIP3   OH261285   6.652   4.936   6.036 -0.9114 -0.0277 -0.4147
13265TIP3    H161286   6.740   4.934   6.073 -1.8942 -2.0932  2.1052
13265TIP3    H261287   6.598   4.975   6.106 -2.4518 -1.7247 -0.5781
13266TIP3   OH261288   0.662   3.570  16.751  0.2835 -0.1216  0.4692
13266TIP3    H161289   0.703   3.652  16.777 -1.7393  1.0613  0.1754
13266TIP3    H261290   0.611   3.593  16.673 -1.6983 -1.1940  1.3708
13267TIP3   OH261291   6.454   2.911   5.926  0.5179  0.4394 -0.5727
13267TIP3    H161292   6.540   2.953   5.923  1.2771 -0.7549  1.8137
13267TIP3    H261293   6.420   2.931   6.014  0.0474 -2.1329 -0.0705
13268TIP3   OH261294   4.243   4.365  12.280  0.2173  0.4292  0.1455
13268TIP3    H161295   4.222   4.279  12.241 -1.0545  0.8617 -0.1771
13268TIP3    H261296   4.318   4.396  12.229  1.2788 -0.8545  0.8446
13269TIP3   OH261297   6.141   5.565   1.405  0.2045  0.0506  0.3051
13269TIP3    H161298   6.180   5.489   1.448 -0.4002  0.0337  0.8267
13269TIP3    H261299   6.216   5.620   1.380  0.6228 -0.5440  0.2351
13270TIP3   OH261300   2.548   2.261   0.401 -0.0471 -0.5826 -0.2714
13270TIP3    H161301   2.633   2.282   0.441  0.4394 -3.2488  0.2428
13270TIP3    H261302   2.549   2.309   0.318  1.1853  0.8233  0.4915
13271TIP3   OH261303   6.191   4.408  14.475  0.0262 -0.1323 -0.0814
13271TIP3    H161304   6.250   4.481  14.498  0.0898  0.0580 -0.8100
13271TIP3    H261305   6.227   4.375  14.392 -0.7958 -0.1162 -0.4477
13272TIP3   OH261306   1.837   6.401  16.552  0.1273 -0.5809  0.1345
13272TIP3    H161307   1.805   6.439  16.634  0.2791  1.2883 -0.6310
13272TIP3    H261308   1.817   6.307  16.560  1.4774 -0.7432  2.9257
13273TIP3   OH261309   3.863   1.663  16.288 -0.0145 -0.3310 -0.6924
13273TIP3    H161310   3.789   1.617  16.329 -0.3936  0.2848 -0.6715
13273TIP3    H261311   3.840   1.668  16.195 -0.6974  1.1191 -0.4760
13274TIP3   OH261312   3.589   2.497  11.804 -0.0380 -0.0121  0.2192
13274TIP3    H161313   3.605   2.431  11.872  0.0218  0.9472  1.1590
13274TIP3    H261314   3.638   2.574  11.833 -1.1118  0.8552 -0.2076
13275TIP3   OH261315   6.820   0.214   4.746  0.7614 -0.0693 -0.3264
13275TIP3    H161316   6.736   0.261   4.743  2.7402  4.0634  1.2437
13275TIP3    H261317   6.823   0.178   4.835 -0.0270 -1.8353 -0.9761
13276TIP3   OH261318   3.015   3.212   1.613 -0.6427  0.1497 -0.2882
13276TIP3    H161319   2.993   3.300   1.583 -1.7040 -0.0143 -0.0438
13276TIP3    H261320   2.933   3.178   1.650  0.3877  0.0381  2.0512
13277TIP3   OH261321   0.052   1.495  16.672 -0.2171 -0.0943  0.4165
13277TIP3    H161322   0.104   1.438  16.728 -0.5912  0.5720  1.4648
13277TIP3    H261323  -0.036   1.490  16.707 -0.4907  0.2183 -0.2076
13278TIP3   OH261324   4.803   5.258   1.368 -0.8282  0.1057 -0.0689
13278TIP3    H161325   4.837   5.343   1.397 -0.1431 -0.1846  0.0164
13278TIP3    H261326   4.838   5.195   1.432  0.3767 -0.4994 -1.2541
13279TIP3   OH261327   4.628   3.650   2.743  0.4722 -0.0204 -0.3266
13279TIP3    H161328   4.700   3.656   2.805  0.0156  2.4650  0.0659
13279TIP3    H261329   4.554   3.618   2.795  0.7665 -0.5987 -0.2569
13280TIP3   OH261330   1.790   4.441  14.681 -0.9630 -0.4952  0.5187
13280TIP3    H161331   1.885   4.430  14.679 -1.0618 -1.8749 -2.6726
13280TIP3    H261332   1.765   4.422  14.772  1.7346 -0.5480  1.3175
13281TIP3   OH261333   5.511   2.357   3.725 -0.1244  0.6064  0.5634
13281TIP3    H161334   5.551   2.443   3.738 -0.8987  0.9287  0.8609
13281TIP3    H261335   5.470   2.362   3.638  0.5295  0.2466  0.2210
13282TIP3   OH261336   4.760   6.784  14.035 -0.0044 -0.1054  0.1156
13282TIP3    H161337   4.698   6.715  14.059  0.1305 -0.4800 -0.5730
13282TIP3    H261338   4.753   6.848  14.105 -0.5570 -0.5460  0.4743
13283TIP3   OH261339   1.672   4.204  16.192  0.7545 -0.4969  0.5810
13283TIP3    H161340   1.659   4.135  16.258 -1.2261  0.7803  1.6450
13283TIP3    H261341   1.583   4.225  16.163  1.3636  1.1829 -0.1645
13284TIP3   OH261342   6.822   1.954  14.456  0.3074 -0.0592  0.5415
13284TIP3    H161343   6.870   1.961  14.539  0.3120  1.7677  0.4239
13284TIP3    H261344   6.885   1.981  14.390 -0.2589  0.3343  0.1581
13285TIP3   OH261345   2.411   5.630  12.810 -0.0342  0.4543  0.7596
13285TIP3    H161346   2.440   5.574  12.882 -0.2962  0.3276  0.7638
13285TIP3    H261347   2.318   5.613  12.801 -0.0470  0.6336  0.5336
13286TIP3   OH261348   6.313   4.532   0.410 -0.1426 -0.6385 -0.3506
13286TIP3    H161349   6.397   4.566   0.440 -0.5618  0.0770  0.0550
13286TIP3    H261350   6.257   4.610   0.404 -1.5456 -1.3469  1.9909
13287TIP3   OH261351   4.062   0.068   2.590  0.3968  0.2320  0.1763
13287TIP3    H161352   4.053   0.043   2.498  0.7851  0.6503  0.0179
13287TIP3    H261353   4.106   0.153   2.587 -0.7393  0.8629  0.7012
13288TIP3   OH261354   1.170   1.924  13.989 -1.0722 -0.1628  0.1852
13288TIP3    H161355   1.194   1.833  13.972 -0.3464  0.0684 -0.0421
13288TIP3    H261356   1.156   1.928  14.083  0.1800 -0.2047  0.3791
13289TIP3   OH261357   3.025   0.469   3.052 -0.9253 -0.2922 -0.3178
13289TIP3    H161358   2.940   0.453   3.011 -0.6495 -0.3477 -0.8815
13289TIP3    H261359   3.039   0.392   3.108 -0.9743 -0.5854 -0.6980
13290TIP3   OH261360   0.118   1.146   1.433 -0.1685 -0.7575  0.5978
13290TIP3    H161361   0.048   1.089   1.401 -1.1868  0.0555  1.2954
13290TIP3    H261362   0.072   1.222   1.470  1.1167  0.1757  0.3664
13291TIP3   OH261363   5.543   0.070  14.900  0.0913  0.1713  0.5833
13291TIP3    H161364   5.534   0.142  14.837  0.2303 -0.5143 -0.2402
13291TIP3    H261365   5.547  -0.009  14.845 -3.2072 -0.8126  1.5113
13292TIP3   OH261366   4.477   4.044   5.053 -0.0761  0.3676 -0.4037
13292TIP3    H161367   4.555   3.990   5.045  0.4126  0.2498  3.2295
13292TIP3    H261368   4.404   3.985   5.032  0.6615 -0.2944 -1.1572
13293TIP3   OH261369   0.683   1.265   3.057 -0.2153  0.1550 -0.1852
13293TIP3    H161370   0.588   1.265   3.050 -0.2886  0.0570  0.6142
13293TIP3    H261371   0.700   1.244   3.149  0.6272 -2.6268 -0.8592
13294TIP3   OH261372   3.340   0.957   1.035 -0.1478  0.0749 -0.3687
13294TIP3    H161373   3.422   0.933   0.991  0.9216  1.5587  0.7274
13294TIP3    H261374   3.361   0.955   1.128 -0.5324  3.0304 -0.1258
13295TIP3   OH261375   6.512   1.540   2.370 -0.2589  0.1156 -0.0036
13295TIP3    H161376   6.456   1.473   2.408 -0.5277  0.2163 -0.2193
13295TIP3    H261377   6.452   1.608   2.340  0.0292  0.5500  0.4040
13296TIP3   OH261378   5.060   2.230  12.347  0.2898 -0.1729 -0.2587
13296TIP3    H161379   4.979   2.214  12.298  1.2168 -3.4268 -1.0019
13296TIP3    H261380   5.117   2.277  12.286 -0.1150 -0.2254 -0.6781
13297TIP3   OH261381   1.503   4.742   4.112 -0.3004  0.0564 -0.4281
13297TIP3    H161382   1.502   4.805   4.184 -1.4991 -0.3709 -0.0571
13297TIP3    H261383   1.543   4.664   4.148 -0.0061  0.1632 -0.5171
13298TIP3   OH261384   6.556   2.290  12.450  0.0168 -0.4746  0.2246
13298TIP3    H161385   6.595   2.203  12.447 -0.1750 -0.5996  1.0307
13298TIP3    H261386   6.601   2.339  12.381  1.8404 -0.5132  1.3125
13299TIP3   OH261387   0.240   2.450   2.739  0.2703 -0.5811  1.1037
13299TIP3    H161388   0.300   2.377   2.748  1.6948  0.3523 -0.2926
13299TIP3    H261389   0.250   2.479   2.648 -1.2430  0.5176  1.2353
13300TIP3   OH261390   3.034   4.867   5.762  0.0927  0.4342 -0.2446
13300TIP3    H161391   3.064   4.915   5.685 -0.4928  1.4795  0.1553
13300TIP3    H261392   2.975   4.800   5.727 -0.7173  1.3391 -0.6746
13301TIP3   OH261393   2.910   5.332   4.739  0.3209  0.5148  0.3831
13301TIP3    H161394   2.829   5.369   4.774 -0.2853 -1.1594  0.8379
13301TIP3    H261395   2.890   5.316   4.646  0.1471  0.1878  0.4741
13302TIP3   OH261396   2.219   3.144   4.239 -0.1850 -0.0075 -0.4754
13302TIP3    H161397   2.149   3.203   4.213 -0.8978  0.0997  1.5402
13302TIP3    H261398   2.226   3.082   4.167 -2.2028  0.1010 -0.8192
13303TIP3   OH261399   3.544   5.531   2.700 -0.1519 -0.2020  0.0882
13303TIP3    H161400   3.536   5.556   2.792  0.5613 -1.3284  0.4760
13303TIP3    H261401   3.508   5.443   2.695  1.3981 -0.8398 -0.3555
13304TIP3   OH261402   1.237   3.827  17.014 -0.0142 -0.1710 -0.0178
13304TIP3    H161403   1.235   3.887  16.940  1.4506 -3.3055 -2.8993
13304TIP3    H261404   1.328   3.797  17.019 -0.1970 -0.5605  2.7070
13305TIP3   OH261405   1.043   0.188  14.500 -0.0975 -0.3589 -0.1062
13305TIP3    H161406   1.020   0.279  14.521 -0.7147 -0.3405 -0.8324
13305TIP3    H261407   1.128   0.194  14.456  0.6867 -0.3025  1.3325
13306TIP3   OH261408   1.877   3.022   0.582  0.1364  0.5639  0.1253
13306TIP3    H161409   1.843   2.963   0.649  0.3114 -0.1504 -0.4003
13306TIP3    H261410   1.969   3.035   0.605  0.1391  0.4983  0.1513
13307TIP3   OH261411   4.076   2.790  11.569 -0.0317 -0.2609  0.0283
13307TIP3    H161412   4.165   2.816  11.548 -0.0579  0.0618  0.3075
13307TIP3    H261413   4.079   2.766  11.662 -0.4893  0.9098  0.3601
13308TIP3   OH261414   5.529   4.333  13.765  0.3179  0.4793 -0.3036
13308TIP3    H161415   5.524   4.278  13.843  1.3379  2.4849  1.2534
13308TIP3    H261416   5.619   4.322  13.734 -0.0774 -0.2956 -1.2224
13309TIP3   OH261417   2.463   3.027   3.474  0.0180  0.1109 -0.3059
13309TIP3    H161418   2.525   3.019   3.546 -0.1376 -0.1521 -0.1994
13309TIP3    H261419   2.496   3.100   3.422 -1.5801  2.4585  1.7368
13310TIP3   OH261420   3.206   2.794   4.476 -0.1701  0.0680  0.7114
13310TIP3    H161421   3.195   2.814   4.382 -2.0144 -0.2719  0.8075
13310TIP3    H261422   3.182   2.876   4.520 -0.4247 -0.1167  0.9165
13311TIP3   OH261423   2.877   4.056  15.708 -0.0855  0.9222 -0.3873
13311TIP3    H161424   2.840   4.126  15.654 -0.1047  0.6413 -0.7436
13311TIP3    H261425   2.847   4.076  15.797 -0.5634  1.0513 -0.5741
13312TIP3   OH261426   1.910   1.024  16.776  0.7223 -0.8423  0.0633
13312TIP3    H161427   2.003   1.013  16.796  1.0990 -2.3150 -2.1149
13312TIP3    H261428   1.873   0.937  16.792 -0.0592 -0.5410 -0.0956
13313TIP3   OH261429   2.562   1.234   0.268 -0.4425 -0.1606  0.5786
13313TIP3    H161430   2.638   1.176   0.273 -0.0660  0.3275  0.6007
13313TIP3    H261431   2.598   1.319   0.245 -1.3872 -0.7954 -4.4573
13314TIP3   OH261432   0.840   2.955  14.629  0.2230  0.4952  0.0347
13314TIP3    H161433   0.911   2.949  14.565  0.0187 -2.3565 -0.0249
13314TIP3    H261434   0.856   2.884  14.691 -0.3070  2.3724  2.4727
13315TIP3   OH261435   3.102   3.399   4.821  0.2007  0.1381 -0.1748
13315TIP3    H161436   3.090   3.304   4.815  0.1640  0.2082 -1.6629
13315TIP3    H261437   3.134   3.424   4.735  0.3522  1.4687  0.2513
13316TIP3   OH261438   4.465   3.569  14.375 -0.1182 -0.2109 -0.3841
13316TIP3    H161439   4.398   3.503  14.356  0.7215 -1.1983  0.0395
13316TIP3    H261440   4.444   3.599  14.464  0.5757 -1.2578  0.1549
13317TIP3   OH261441   0.379   2.839   4.159  0.6042 -0.4786  0.8954
13317TIP3    H161442   0.470   2.837   4.190  0.4559 -0.9216  1.3182
13317TIP3    H261443   0.359   2.748   4.139  0.5502 -0.2552 -0.0957
13318TIP3   OH261444   5.661   6.464  11.660  0.2859 -0.1547 -0.2007
13318TIP3    H161445   5.688   6.451  11.751 -2.7925  1.4421  1.0780
13318TIP3    H261446   5.590   6.528  11.665  1.3289  1.5537 -3.9784
13319TIP3   OH261447   3.365   5.128  12.573  0.1605 -0.4456 -0.3784
13319TIP3    H161448   3.364   5.219  12.541  1.2632  0.7337  2.5592
13319TIP3    H261449   3.445   5.123  12.625 -0.5221 -2.7554  0.5349
13320TIP3   OH261450   4.705   4.804   4.713 -0.0851  0.5833 -0.5984
13320TIP3    H161451   4.701   4.793   4.808 -1.1525  1.4427 -0.5251
13320TIP3    H261452   4.679   4.895   4.699 -0.1820  0.3900 -1.7306
13321TIP3   OH261453   3.402   6.623   1.640 -0.0260  0.6516  0.1411
13321TIP3    H161454   3.468   6.684   1.606 -0.4468  0.7622 -0.4960
13321TIP3    H261455   3.436   6.537   1.615 -0.6778  0.7694 -1.2067
13322TIP3   OH261456   1.635   3.386  13.200 -0.0504 -0.0639  0.6258
13322TIP3    H161457   1.542   3.370  13.216  0.1681  1.2231  4.1233
13322TIP3    H261458   1.676   3.373  13.286  3.1675 -1.2617 -0.9324
13323TIP3   OH261459   0.797   5.318  12.387  0.2373 -0.3795  0.0022
13323TIP3    H161460   0.749   5.388  12.432 -0.3466 -0.6443 -0.2021
13323TIP3    H261461   0.857   5.284  12.453 -0.0925 -0.2735  0.3594
13324TIP3   OH261462   5.882   0.219  12.192 -0.9281 -0.4552 -0.1858
13324TIP3    H161463   5.883   0.220  12.096  2.2881 -0.5282 -0.2728
13324TIP3    H261464   5.949   0.155  12.215 -0.6743  0.5426  2.1018
13325TIP3   OH261465   5.974   1.883  14.665  0.1445 -0.0111  0.5836
13325TIP3    H161466   5.914   1.818  14.627 -1.3602  1.3946  0.4223
13325TIP3    H261467   6.061   1.855  14.638 -0.5009 -1.7183  0.1780
13326TIP3   OH261468   2.166   2.711  11.940 -0.4800  0.2434  0.2500
13326TIP3    H161469   2.222   2.713  11.863  2.0356  0.0185  1.9714
13326TIP3    H261470   2.155   2.804  11.964  0.6933  0.2233  0.9232
13327TIP3   OH261471   4.989   6.137  16.206 -0.4491  0.1434  0.1545
13327TIP3    H161472   5.033   6.100  16.129 -0.0895 -0.7373  0.7716
13327TIP3    H261473   4.906   6.090  16.211 -0.6437  0.4771  0.0853
13328TIP3   OH261474   4.703   2.511   0.251 -0.5366  0.1937 -0.0153
13328TIP3    H161475   4.630   2.573   0.240 -1.3986 -0.4336  1.7090
13328TIP3    H261476   4.708   2.464   0.168 -0.9591  1.4226 -0.7616
13329TIP3   OH261477   1.828   1.926  13.699 -0.6323  0.0321  0.2306
13329TIP3    H161478   1.816   1.875  13.779 -0.7180 -2.0388 -1.0305
13329TIP3    H261479   1.799   1.868  13.628 -0.6750  1.8261 -1.3206
13330TIP3   OH261480   3.667   0.911  15.150 -0.4967  0.0109 -0.0169
13330TIP3    H161481   3.723   0.837  15.174 -1.1644 -0.7040 -0.6261
13330TIP3    H261482   3.726   0.987  15.153  0.0827 -0.4486  1.1049
13331TIP3   OH261483   5.348   1.533   6.254 -0.9985 -0.0580 -0.1085
13331TIP3    H161484   5.347   1.465   6.321  1.2879  1.5175  1.6794
13331TIP3    H261485   5.425   1.513   6.200 -2.0711 -0.5546 -1.5339
13332TIP3   OH261486   6.303   4.609   5.941 -0.0210 -0.0375  0.7490
13332TIP3    H161487   6.380   4.660   5.917 -1.5268  1.6283 -0.9047
13332TIP3    H261488   6.309   4.598   6.035  2.7571 -0.9238  0.5620
13333TIP3   OH261489   6.335   0.164   0.495  0.8957 -0.2122  0.3484
13333TIP3    H161490   6.330   0.114   0.577  0.8800 -0.3438  0.2677
13333TIP3    H261491   6.275   0.118   0.436  0.5654  0.1436  0.3992
13334TIP3   OH261492   0.837   5.506  15.169  0.1752 -0.7387 -0.3293
13334TIP3    H161493   0.798   5.583  15.128 -2.5247 -0.5169  2.3312
13334TIP3    H261494   0.785   5.433  15.136 -1.2684 -0.6751  1.6340
13335TIP3   OH261495   5.553   0.880   5.722  0.0383  0.0659 -0.1875
13335TIP3    H161496   5.558   0.911   5.813 -0.4760  0.7643 -0.3869
13335TIP3    H261497   5.615   0.807   5.718 -0.5625 -0.5337  0.9438
13336TIP3   OH261498   3.118   1.557   4.038 -0.4790  0.0270  0.3646
13336TIP3    H161499   3.085   1.508   3.963  3.2342  0.3936 -1.7281
13336TIP3    H261500   3.130   1.646   4.006  0.3024  0.4345  1.7006
13337TIP3   OH261501   2.424   0.890  14.824  0.2977  0.5583 -0.8635
13337TIP3    H161502   2.370   0.954  14.778  0.0639  0.0841 -1.2633
13337TIP3    H261503   2.459   0.834  14.755 -0.0357 -0.1457 -0.4784
13338TIP3   OH261504   1.448   4.846   3.135 -0.0053  0.5300  0.5883
13338TIP3    H161505   1.416   4.815   3.050 -1.2716 -0.5730  1.4285
13338TIP3    H261506   1.528   4.796   3.150  0.0575  0.5090  0.2109
13339TIP3   OH261507   5.213   4.417   2.491  0.1841  0.1608 -0.5011
13339TIP3    H161508   5.227   4.438   2.583  1.3873 -1.7594 -0.1881
13339TIP3    H261509   5.301   4.412   2.454 -0.1088 -1.9841 -1.0198
13340TIP3   OH261510   0.553   4.112   3.615  0.4725 -0.0131  0.6437
13340TIP3    H161511   0.489   4.091   3.547 -0.5480  0.5985  1.3853
13340TIP3    H261512   0.637   4.112   3.570  0.0117 -1.2647 -0.2714
13341TIP3   OH261513   6.709   3.455  14.070 -0.3386 -0.2097  0.6202
13341TIP3    H161514   6.763   3.455  13.991  1.3619 -1.8326  1.6873
13341TIP3    H261515   6.634   3.400  14.049 -0.1115 -0.2862  0.0051
13342TIP3   OH261516   6.644   2.065   3.679  0.1354 -0.4350  0.5212
13342TIP3    H161517   6.614   1.974   3.671  1.0647 -0.8040  1.0033
13342TIP3    H261518   6.571   2.111   3.720  0.1007 -1.2443  1.4126
13343TIP3   OH261519   5.403   2.119  11.160  0.4026 -0.3071 -0.0009
13343TIP3    H161520   5.325   2.094  11.110  0.7698 -0.6756 -0.3928
13343TIP3    H261521   5.468   2.140  11.093  0.1595  1.5759  0.2953
13344TIP3   OH261522   3.454   4.321  11.787 -0.0245 -0.1955 -0.1313
13344TIP3    H161523   3.376   4.373  11.807 -0.7932 -0.6008 -1.9205
13344TIP3    H261524   3.437   4.284  11.701  1.8909 -0.8277 -0.2819
13345TIP3   OH261525   4.572   5.061  11.718  0.3581  0.6498 -0.1454
13345TIP3    H161526   4.593   5.153  11.732 -1.7010  1.0951  0.3044
13345TIP3    H261527   4.511   5.039  11.789 -0.3635 -0.6227 -1.1131
13346TIP3   OH261528   2.194   6.181   2.855  0.0603 -0.6408  0.1288
13346TIP3    H161529   2.181   6.089   2.830 -2.6785 -0.4544  0.5284
13346TIP3    H261530   2.142   6.191   2.935  1.1611  1.0274  0.6672
13347TIP3   OH261531   3.788   0.466  11.913  0.7836  0.0537 -0.2867
13347TIP3    H161532   3.801   0.415  11.994 -0.2269 -1.8307 -1.2354
13347TIP3    H261533   3.749   0.548  11.943 -1.1400 -1.2543  1.0765
13348TIP3   OH261534   1.498   2.228  14.138  0.0589 -0.0366 -0.4376
13348TIP3    H161535   1.409   2.262  14.146 -0.3860 -1.3591  0.6432
13348TIP3    H261536   1.497   2.174  14.059 -0.1043 -0.0174 -0.4484
13349TIP3   OH261537   5.292   1.520   2.176 -0.0822 -0.1911 -0.5730
13349TIP3    H161538   5.344   1.584   2.224 -0.7061  1.0390 -1.4990
13349TIP3    H261539   5.202   1.538   2.200 -0.2955 -0.4759 -1.1427
13350TIP3   OH261540   3.732   2.345   3.470  0.0956 -0.5714 -0.3632
13350TIP3    H161541   3.702   2.305   3.551 -0.7569 -0.4100 -0.5902
13350TIP3    H261542   3.759   2.272   3.415 -0.5429 -0.7689 -0.4151
13351TIP3   OH261543   2.715   2.382   4.930 -0.0447 -0.5945 -0.6282
13351TIP3    H161544   2.721   2.293   4.894  0.3197 -0.9134  0.1993
13351TIP3    H261545   2.798   2.395   4.975 -0.9831 -0.7283  1.2414
13352TIP3   OH261546   0.833   6.428   1.829  0.2167 -0.3379  0.2634
13352TIP3    H161547   0.894   6.483   1.780 -0.9100  0.9080  0.1938
13352TIP3    H261548   0.818   6.476   1.911  0.3742 -1.2962  0.8632
13353TIP3   OH261549   5.789   5.110  13.450 -0.2287 -0.0867 -0.1014
13353TIP3    H161550   5.697   5.133  13.460 -0.1645 -0.4125  1.3787
13353TIP3    H261551   5.837   5.192  13.465 -0.3057  0.5826 -2.9306
13354TIP3   OH261552   3.601   4.682   4.478  0.3358  0.0613  0.0048
13354TIP3    H161553   3.669   4.653   4.539  1.0680  1.7853  0.0571
13354TIP3    H261554   3.580   4.604   4.427  0.5345 -1.1267  1.6601
13355TIP3   OH261555   2.525   6.243   5.367 -0.2283  0.0917 -0.0411
13355TIP3    H161556   2.541   6.234   5.461 -0.8900  0.5679  0.1257
13355TIP3    H261557   2.547   6.157   5.330 -0.5950 -0.2972  0.6418
13356TIP3   OH261558   1.149   0.671  10.567 -0.1075  0.6330  0.4152
13356TIP3    H161559   1.165   0.756  10.526 -1.6283  0.8511  0.2084
13356TIP3    H261560   1.234   0.643  10.599  0.9258  1.0254 -1.8248
13357TIP3   OH261561   4.782   5.727  11.731  0.0140 -0.3140 -0.1234
13357TIP3    H161562   4.768   5.659  11.664 -1.0659 -0.2256  0.0030
13357TIP3    H261563   4.736   5.804  11.697  1.9868  0.6804 -0.7086
13358TIP3   OH261564   0.048   2.319  12.126 -0.3303 -0.1524 -0.2306
13358TIP3    H161565   0.084   2.402  12.096  1.3360 -0.9636 -0.5904
13358TIP3    H261566   0.071   2.256  12.058  1.7380 -1.6174  1.6683
13359TIP3   OH261567   4.339   1.975  11.594 -0.2590 -0.3289 -0.4691
13359TIP3    H161568   4.250   1.966  11.559 -1.4010  0.8855  1.8884
13359TIP3    H261569   4.334   1.938  11.682  1.3397  0.6112  0.0576
13360TIP3   OH261570   2.167   5.544   4.705  0.0840  0.1517  0.8964
13360TIP3    H161571   2.215   5.487   4.645  0.4417  0.2218  1.1101
13360TIP3    H261572   2.084   5.561   4.661  0.5441  0.6294  0.1750
13361TIP3   OH261573   1.896   5.663   3.241 -0.0406 -0.1690 -0.2791
13361TIP3    H161574   1.831   5.659   3.170 -0.5453 -2.4049  0.2480
13361TIP3    H261575   1.869   5.595   3.302  0.7863  1.2385  1.7586
13362TIP3   OH261576   1.551   2.887  16.640  0.9749 -0.5889  0.1135
13362TIP3    H161577   1.510   2.816  16.688  0.2375 -0.4271 -0.2722
13362TIP3    H261578   1.617   2.921  16.700  0.7020 -0.9927  0.6507
13363TIP3   OH261579   4.447   0.784   2.575 -0.1657  0.2730 -0.4693
13363TIP3    H161580   4.383   0.810   2.641  0.0923 -2.3970  0.9786
13363TIP3    H261581   4.400   0.722   2.519  1.2120 -2.5674  1.2432
13364TIP3   OH261582   1.985   5.513   1.172  0.8482 -0.4484 -0.3875
13364TIP3    H161583   1.991   5.427   1.130 -0.7114 -0.7585 -0.0382
13364TIP3    H261584   1.996   5.495   1.265 -0.8678 -0.4738 -0.1756
13365TIP3   OH261585   3.728   0.574   3.565 -0.2744 -0.1069 -0.1081
13365TIP3    H161586   3.687   0.500   3.609  0.4127 -2.3163 -2.8861
13365TIP3    H261587   3.656   0.619   3.521 -0.5194  0.1160  0.5052
13366TIP3   OH261588   4.670   6.791  13.760  0.4040 -0.0503 -0.7482
13366TIP3    H161589   4.747   6.834  13.723  0.0040  0.7124 -0.7117
13366TIP3    H261590   4.684   6.794  13.855 -0.1425  1.0179 -0.6883
13367TIP3   OH261591   5.504   0.608  11.040  0.0791 -0.0656  0.0559
13367TIP3    H161592   5.434   0.671  11.020 -0.1428 -0.4694 -0.4559
13367TIP3    H261593   5.568   0.659  11.090 -0.1577  0.5417 -0.2407
13368TIP3   OH261594   3.775   4.917  11.648  0.5664  0.0548 -0.5391
13368TIP3    H161595   3.704   4.911  11.585  1.4680 -2.9482 -1.4256
13368TIP3    H261596   3.842   4.969  11.604  0.0030  0.5778 -0.7942
13369TIP3   OH261597   5.475   2.959   5.053  0.1326  0.1152 -0.0534
13369TIP3    H161598   5.462   2.909   5.134  1.3135  0.7748  0.5853
13369TIP3    H261599   5.461   3.050   5.080 -0.4459  0.2676 -0.8376
13370TIP3   OH261600   5.864   2.027   4.800  0.4834 -0.8078 -0.4343
13370TIP3    H161601   5.919   2.055   4.873  0.9180 -1.2566 -0.5829
13370TIP3    H261602   5.783   1.997   4.840 -0.3939  1.4907 -0.3131
13371TIP3   OH261603   1.834   0.957   5.833  0.3651 -0.4527 -0.3467
13371TIP3    H161604   1.837   0.948   5.928  0.9627 -0.3599 -0.3510
13371TIP3    H261605   1.741   0.959   5.811  0.2222  0.1957  0.2986
13372TIP3   OH261606   3.407   0.233   3.377 -0.5061 -0.1490  0.5028
13372TIP3    H161607   3.374   0.154   3.334  2.4398 -0.9146 -0.5749
13372TIP3    H261608   3.419   0.207   3.468  0.8498 -1.1256  0.0679
13373TIP3   OH261609   1.486   2.735  13.268  0.2008  0.0342  0.5957
13373TIP3    H161610   1.448   2.798  13.206  0.4730 -0.1210  0.2671
13373TIP3    H261611   1.477   2.650  13.223 -0.1428 -0.1622  1.0239
13374TIP3   OH261612   1.505   4.372   4.073 -0.8116  0.0758 -0.4697
13374TIP3    H161613   1.528   4.439   4.138 -0.6007  0.7277 -1.1940
13374TIP3    H261614   1.530   4.289   4.113  1.4342  0.6254 -0.5936
13375TIP3   OH261615   1.301   3.669  11.012  0.7818 -0.0579 -0.4275
13375TIP3    H161616   1.269   3.581  10.994  0.3302 -0.0028  0.0875
13375TIP3    H261617   1.232   3.710  11.064  1.6453  0.0829  0.6443
13376TIP3   OH261618   0.665   5.193  15.621 -0.0235  0.1513 -0.7224
13376TIP3    H161619   0.648   5.177  15.714 -1.7558 -0.6743 -1.1358
13376TIP3    H261620   0.596   5.254  15.595  1.5413  1.8226 -1.0879
13377TIP3   OH261621   3.856   2.373   1.615  0.2487  0.3064 -0.1382
13377TIP3    H161622   3.835   2.382   1.708  1.0903 -1.0281  0.2065
13377TIP3    H261623   3.941   2.415   1.605  1.5243 -2.0238  0.3277
13378TIP3   OH261624   6.225   1.441  14.827  0.6454  0.4003 -0.0252
13378TIP3    H161625   6.195   1.468  14.740  2.3746 -0.2104 -0.8435
13378TIP3    H261626   6.291   1.505  14.851  2.0604 -0.8747 -0.3454
13379TIP3   OH261627   2.658   4.493  17.084 -0.1791 -0.2301  0.0204
13379TIP3    H161628   2.702   4.504  17.168  1.1138  1.4455 -0.8177
13379TIP3    H261629   2.720   4.443  17.031  0.0486  0.7385 -0.6527
13380TIP3   OH261630   1.321   2.911   5.815 -0.8386 -0.1321  0.1062
13380TIP3    H161631   1.277   2.993   5.792 -0.6881  0.3034  1.2936
13380TIP3    H261632   1.276   2.880   5.893  1.0865  0.4932  1.5466
13381TIP3   OH261633   5.557   2.198   5.797 -0.2249  0.4041  0.2597
13381TIP3    H161634   5.636   2.235   5.758 -0.4802  0.6695 -0.0133
13381TIP3    H261635   5.485   2.243   5.753 -0.5212  1.7651  2.0237
13382TIP3   OH261636   4.067   6.607  11.322  0.6574 -0.4754  0.3198
13382TIP3    H161637   4.092   6.542  11.388 -1.5432 -1.2896  0.4451
13382TIP3    H261638   4.060   6.558  11.240  0.0472 -0.1946  0.1911
13383TIP3   OH261639   3.279   3.955  16.251 -0.1732  0.4449 -0.3451
13383TIP3    H161640   3.299   3.879  16.197  1.3260  0.8649 -0.4207
13383TIP3    H261641   3.364   3.995  16.269 -0.1164 -1.2058  4.7264
13384TIP3   OH261642   1.203   2.910   0.862 -0.4463  0.3073 -0.5030
13384TIP3    H161643   1.170   2.992   0.898 -0.6463 -0.7723  1.9715
13384TIP3    H261644   1.246   2.866   0.936 -0.4643 -1.8806 -1.6964
13385TIP3   OH261645   6.372   2.285   1.659 -0.2156  0.6334 -0.0231
13385TIP3    H161646   6.451   2.280   1.605 -1.0984 -1.2493 -1.2519
13385TIP3    H261647   6.387   2.222   1.729 -0.6038  0.2636 -0.2657
13386TIP3   OH261648   6.467   5.197  12.634  0.5617 -0.2965  0.8699
13386TIP3    H161649   6.428   5.120  12.675  0.9052 -0.3691  1.0626
13386TIP3    H261650   6.499   5.249  12.707 -0.7287  0.6209  0.8173
13387TIP3   OH261651   3.567   3.102  16.728  0.3569 -0.0351 -0.0741
13387TIP3    H161652   3.538   3.074  16.815 -0.0319  1.6807  0.3915
13387TIP3    H261653   3.528   3.038  16.668 -1.0144 -0.1335  0.8666
13388TIP3   OH261654   5.603   4.824  15.340 -0.4586  0.0047 -0.0363
13388TIP3    H161655   5.676   4.882  15.361  0.1090 -0.3599 -0.9835
13388TIP3    H261656   5.578   4.848  15.251 -0.5448 -0.8586 -0.2550
13389TIP3   OH261657   1.132   2.557  13.220  0.0284  0.2000 -0.5696
13389TIP3    H161658   1.167   2.476  13.256  1.9719  0.8458 -0.8618
13389TIP3    H261659   1.178   2.569  13.137 -0.8966  1.1279 -0.9737
13390TIP3   OH261660   3.233   4.992   1.408  0.1859  0.4638 -0.0184
13390TIP3    H161661   3.278   4.909   1.396  0.4613  0.0638  2.9798
13390TIP3    H261662   3.298   5.058   1.384  1.1083 -0.1796  0.6377
13391TIP3   OH261663   6.407   3.551  13.999 -0.1036  0.5200  0.0633
13391TIP3    H161664   6.335   3.611  14.016  1.1197  1.3192  2.8858
13391TIP3    H261665   6.385   3.472  14.048  0.2719  0.2134 -0.2463
13392TIP3   OH261666   4.259   4.406  11.829  0.0779 -0.1634 -0.0226
13392TIP3    H161667   4.348   4.437  11.814  0.2883 -0.9492 -0.4258
13392TIP3    H261668   4.208   4.445  11.757 -0.3613  2.0644  1.4026
13393TIP3   OH261669   2.560   2.788  13.638 -0.1229 -0.3817  0.3032
13393TIP3    H161670   2.592   2.762  13.725 -0.6562 -1.1336  0.2864
13393TIP3    H261671   2.602   2.872  13.621  0.0382 -0.2532  1.2675
13394TIP3   OH261672   0.628   0.232  10.870 -0.1307  0.1752  0.3161
13394TIP3    H161673   0.575   0.288  10.814 -0.3942 -0.7332 -0.3733
13394TIP3    H261674   0.698   0.200  10.813 -0.1825 -0.4658  0.6006
13395TIP3   OH261675   1.341   1.952   5.465 -0.4643  0.0743  0.3301
13395TIP3    H161676   1.397   1.990   5.532 -1.4600  2.4035 -0.0615
13395TIP3    H261677   1.280   2.022   5.442 -0.6567 -0.8845 -2.4483
13396TIP3   OH261678   0.482   0.934   3.426 -0.0157  0.8310  0.2140
13396TIP3    H161679   0.422   0.941   3.501  0.3262  1.1144  0.4652
13396TIP3    H261680   0.536   0.858   3.445  1.2250  1.9018  1.1088
13397TIP3   OH261681   5.772   1.962  14.363 -0.0109 -0.4544  0.3020
13397TIP3    H161682   5.813   1.890  14.412  1.9465  0.3845 -0.0016
13397TIP3    H261683   5.803   1.950  14.273  0.6157  0.9026  0.3072
13398TIP3   OH261684   3.586   3.673   1.969  0.1085 -0.2394  0.4317
13398TIP3    H161685   3.577   3.761   1.932  0.3211 -0.4391 -0.0987
13398TIP3    H261686   3.543   3.616   1.905  3.4423 -1.0356 -1.3306
13399TIP3   OH261687   3.689   2.331  12.010 -0.1247  0.0860 -0.2016
13399TIP3    H161688   3.705   2.319  12.103 -0.8342  3.3174  0.4620
13399TIP3    H261689   3.608   2.283  11.993 -0.6358  0.4343  1.1550
13400TIP3   OH261690   3.772   5.015   5.348  0.7375 -0.0436 -0.2761
13400TIP3    H161691   3.865   5.038   5.347  0.4537  1.1830  0.4250
13400TIP3    H261692   3.730   5.081   5.293 -0.2457  2.0405  2.7208
13401TIP3   OH261693   1.741   5.681  16.763 -0.0373 -0.0340  0.3473
13401TIP3    H161694   1.690   5.601  16.755  1.4933 -1.3376  2.6200
13401TIP3    H261695   1.680   5.746  16.797 -1.2010 -0.2979 -1.1422
13402TIP3   OH261696   0.446   4.052   5.007  0.6687  0.0262 -0.5476
13402TIP3    H161697   0.535   4.017   5.006  0.3144 -0.9042 -0.5495
13402TIP3    H261698   0.458   4.147   5.004  1.6534 -0.0882 -0.7963
13403TIP3   OH261699   0.508   1.091   2.373  0.4775 -0.2249 -0.4122
13403TIP3    H161700   0.422   1.128   2.394  0.4211 -0.6914  0.2217
13403TIP3    H261701   0.495   1.045   2.290  0.5037  1.0039 -1.1246
13404TIP3   OH261702   0.097   6.501  16.111 -0.4763  0.1962 -0.3037
13404TIP3    H161703   0.111   6.555  16.033 -2.1772 -1.8567 -2.1873
13404TIP3    H261704   0.138   6.418  16.090 -1.2949 -0.5297  0.8435
13405TIP3   OH261705   2.503   5.643  15.511  0.0133  0.2378 -0.3592
13405TIP3    H161706   2.465   5.590  15.581  1.1093 -0.1179 -0.0253
13405TIP3    H261707   2.431   5.652  15.447 -0.7026 -0.2177  0.3624
13406TIP3   OH261708   5.508   3.742   2.697 -0.3473  0.1035 -0.0110
13406TIP3    H161709   5.491   3.720   2.788 -0.8234 -1.6882 -0.4858
13406TIP3    H261710   5.421   3.740   2.656 -0.0260 -0.1626 -0.6945
13407TIP3   OH261711   3.581   4.934  12.654 -1.0289  0.1438  0.0598
13407TIP3    H161712   3.646   4.866  12.635 -0.6481  1.0818 -2.3061
13407TIP3    H261713   3.562   4.923  12.747  1.7290 -0.8232  0.5973
13408TIP3   OH261714   2.887   5.836  11.336  0.0063 -0.3809 -0.0554
13408TIP3    H161715   2.898   5.823  11.430  0.3290 -0.0809 -0.0505
13408TIP3    H261716   2.832   5.762  11.308  2.1309 -2.0461 -0.1049
13409TIP3   OH261717   2.311   4.742  11.845  1.8287  0.0678  0.1255
13409TIP3    H161718   2.352   4.659  11.870  3.7076  0.9351  0.0711
13409TIP3    H261719   2.285   4.729  11.753 -0.3957 -1.3402  0.8728
13410TIP3   OH261720   5.762   0.267  12.818  0.2389 -0.0666  0.2042
13410TIP3    H161721   5.796   0.179  12.804  1.9662  0.4468  0.9407
13410TIP3    H261722   5.688   0.274  12.757  0.2660 -1.8917 -0.0946
13411TIP3   OH261723   2.071   2.895   2.804  0.5879  0.6807  0.2972
13411TIP3    H161724   1.977   2.892   2.785  0.3234  0.7022  1.5403
13411TIP3    H261725   2.077   2.887   2.899  1.8497  0.7201  0.2396
13412TIP3   OH261726   5.756   1.329   0.639  0.1658 -0.1115  0.3166
13412TIP3    H161727   5.665   1.307   0.619 -0.0580  0.2067  0.9802
13412TIP3    H261728   5.805   1.297   0.563 -0.5650  0.2693 -0.3327
13413TIP3   OH261729   1.304   6.781  14.345 -0.1127 -0.4058  0.1802
13413TIP3    H161730   1.372   6.769  14.411 -0.6847 -0.5612  0.7594
13413TIP3    H261731   1.297   6.876  14.334  0.0764 -0.3850  0.2487
13414TIP3   OH261732   3.672   2.110  13.280  0.7322  0.4337 -0.3150
13414TIP3    H161733   3.660   2.121  13.374 -0.1705  2.6353 -0.6219
13414TIP3    H261734   3.762   2.077  13.271  1.4477  1.8063  1.2536
13415TIP3   OH261735   3.463   4.380  16.112  0.4211 -0.6723  0.2679
13415TIP3    H161736   3.369   4.364  16.121 -0.0356  0.9093 -1.1578
13415TIP3    H261737   3.486   4.436  16.186  0.0577 -0.4007  0.1760
13416TIP3   OH261738   1.284   1.486  15.539 -0.2620 -0.0497  0.1729
13416TIP3    H161739   1.241   1.441  15.612  0.4236 -1.4110 -0.2242
13416TIP3    H261740   1.372   1.505  15.571 -0.7284  1.5895  0.5435
13417TIP3   OH261741   4.520   5.218   2.170  0.0604 -0.0791  0.7037
13417TIP3    H161742   4.462   5.170   2.110  2.4768  0.7344 -2.5635
13417TIP3    H261743   4.567   5.149   2.218 -1.5687 -0.7578  1.4280
13418TIP3   OH261744   3.548   3.272  17.058 -0.8228 -0.5166 -0.3506
13418TIP3    H161745   3.622   3.319  17.019 -0.6198 -1.4007 -1.0686
13418TIP3    H261746   3.484   3.266  16.987 -2.0730  1.1753  0.5559
13419TIP3   OH261747   6.372   5.605   0.628 -0.4623 -0.2437  0.7468
13419TIP3    H161748   6.461   5.603   0.662 -0.3447  2.2944  0.7411
13419TIP3    H261749   6.381   5.579   0.536  0.1867 -0.4514  0.8641
13420TIP3   OH261750   3.002   6.795   4.293  0.3151  0.0762 -0.5013
13420TIP3    H161751   2.948   6.763   4.365  0.6369 -1.6572 -0.9875
13420TIP3    H261752   3.081   6.829   4.335 -0.4806  1.2414  0.0988
13421TIP3   OH261753   6.317   6.801  15.725 -0.0593  0.8514  0.2059
13421TIP3    H161754   6.389   6.750  15.761 -2.3355 -0.6573  3.0493
13421TIP3    H261755   6.304   6.872  15.788 -1.4774  0.6545  0.1758
13422TIP3   OH261756   3.220   2.054  11.620 -0.7200 -0.3110  0.1194
13422TIP3    H161757   3.270   1.972  11.619 -1.9286 -1.1297  1.6304
13422TIP3    H261758   3.170   2.050  11.702 -1.0915  1.7855  0.0448
13423TIP3   OH261759   2.626   0.219   5.968  0.4023  0.3748 -0.7029
13423TIP3    H161760   2.541   0.248   6.002  0.1345  0.2478 -1.2581
13423TIP3    H261761   2.641   0.135   6.011  1.4012  1.4849  1.2819
13424TIP3   OH261762   3.129   5.534  11.652  0.6248 -0.1782 -0.3623
13424TIP3    H161763   3.219   5.564  11.639  0.0786  1.0992 -1.3574
13424TIP3    H261764   3.109   5.482  11.575 -0.0601  1.0259 -1.0292
13425TIP3   OH261765   3.062   1.074  10.403  0.3789  0.5263  0.3448
13425TIP3    H161766   3.041   1.100  10.313  0.7721  1.8497  0.6184
13425TIP3    H261767   3.103   0.987  10.393  2.6378  1.6534 -1.0322
13426TIP3   OH261768   2.700   4.182  13.893  0.4769 -0.5825 -0.0627
13426TIP3    H161769   2.700   4.096  13.851  2.5601  0.1643 -1.7600
13426TIP3    H261770   2.617   4.222  13.865 -0.0338 -1.6243 -0.0933
13427TIP3   OH261771   0.499   2.901  10.177  0.1789  0.0142 -0.4438
13427TIP3    H161772   0.439   2.860  10.115  0.4678  1.5192 -1.7978
13427TIP3    H261773   0.542   2.828  10.220 -0.5653 -1.0934 -1.4955
13428TIP3   OH261774   4.082   4.558   2.908 -0.0662 -0.1857 -0.0648
13428TIP3    H161775   4.162   4.611   2.910 -0.0306 -0.2084 -0.6855
13428TIP3    H261776   4.082   4.519   2.821  0.2179 -1.6748  0.5713
13429TIP3   OH261777   3.114   1.922  14.220 -0.4455 -0.5602  0.2722
13429TIP3    H161778   3.075   1.959  14.140 -3.0334  0.0831  1.7286
13429TIP3    H261779   3.202   1.959  14.223 -0.5548  0.0109 -1.8566
13430TIP3   OH261780   3.927   4.625   1.111 -0.1248 -0.0240  0.7307
13430TIP3    H161781   3.982   4.703   1.109 -2.6574  1.9123  1.2596
13430TIP3    H261782   3.907   4.608   1.019  1.1796 -0.6869  0.5398
13431TIP3   OH261783   0.778   2.426   0.361  0.4906  0.7798 -0.7344
13431TIP3    H161784   0.712   2.484   0.322 -0.8438 -0.2223 -0.0661
13431TIP3    H261785   0.794   2.463   0.448  0.3299  0.6679 -0.6568
13432TIP3   OH261786   3.553   0.615  14.482  0.0478  0.0416  0.7307
13432TIP3    H161787   3.541   0.529  14.523  0.9356 -0.7383 -0.5842
13432TIP3    H261788   3.605   0.664  14.545 -0.3732 -0.4123  1.4464
13433TIP3   OH261789   6.798   4.048   5.384 -0.5569  0.3839  0.2634
13433TIP3    H161790   6.793   4.141   5.362 -1.4526  0.4618  0.7388
13433TIP3    H261791   6.773   4.044   5.476 -0.1053 -0.2829  0.3614
13434TIP3   OH261792   3.844   3.049  16.645  0.8356  0.6858  0.1802
13434TIP3    H161793   3.902   3.093  16.707  1.8467  2.8884 -2.1130
13434TIP3    H261794   3.756   3.063  16.680  1.3281  2.3597  0.8624
13435TIP3   OH261795   3.433   2.530  10.917 -0.0688 -0.2992  0.1498
13435TIP3    H161796   3.518   2.486  10.914 -0.2876 -0.7230  0.0891
13435TIP3    H261797   3.435   2.592  10.844 -0.1408 -0.9147 -0.3822
13436TIP3   OH261798   2.361   3.127  12.560  0.3680 -0.1220  0.5624
13436TIP3    H161799   2.291   3.105  12.499  0.0670 -0.6385  1.0713
13436TIP3    H261800   2.441   3.123  12.508 -0.0384  1.3412 -0.2331
13437TIP3   OH261801   0.330   0.807   2.566 -0.0887  0.4859  0.0148
13437TIP3    H161802   0.354   0.715   2.558  1.0254  0.8111 -0.5447
13437TIP3    H261803   0.408   0.850   2.600  0.1347  1.5514 -1.7160
13438TIP3   OH261804   4.978   0.163   0.797 -0.4710  0.0856 -0.1795
13438TIP3    H161805   4.965   0.075   0.763 -0.1012  0.1564 -0.5137
13438TIP3    H261806   4.951   0.221   0.726 -1.1056  0.2465  0.1884
13439TIP3   OH261807   3.038   2.911   3.492  0.4671  0.0631 -0.1296
13439TIP3    H161808   3.132   2.930   3.500  0.5107 -0.2256  0.0441
13439TIP3    H261809   3.027   2.885   3.400  0.4783  0.5190 -0.2643
13440TIP3   OH261810   4.347   0.573   2.420 -0.1512  1.1633  0.0441
13440TIP3    H161811   4.262   0.546   2.454  0.0539  1.0803  0.4964
13440TIP3    H261812   4.333   0.582   2.325  0.1545 -2.0128 -0.4158
13441TIP3   OH261813   6.413   0.014  16.239  0.1084 -0.0612 -0.4579
13441TIP3    H161814   6.447   0.100  16.216  0.0737  0.0348 -0.1546
13441TIP3    H261815   6.435   0.003  16.331  0.3487 -0.4909 -0.5663
13442TIP3   OH261816   0.556   2.069  12.699 -0.5510 -0.1020 -0.2722
13442TIP3    H161817   0.558   2.164  12.711 -3.2424 -0.0300  0.4184
13442TIP3    H261818   0.647   2.043  12.690  0.1964  2.6784 -1.6129
13443TIP3   OH261819   0.000   2.419   3.543  0.2459  0.2813  0.1584
13443TIP3    H161820  -0.042   2.489   3.492  0.4053  1.0802  1.1072
13443TIP3    H261821   0.066   2.464   3.595 -1.7410 -0.0416  3.1767
13444TIP3   OH261822   0.808   0.394  14.594 -0.0285 -0.2813  0.3096
13444TIP3    H161823   0.728   0.371  14.547  0.9928 -1.1061 -1.1043
13444TIP3    H261824   0.826   0.318  14.649  0.2809 -0.5005 -0.0886
13445TIP3   OH261825   4.081   0.467   2.797 -0.2127 -0.1326 -0.1637
13445TIP3    H161826   4.079   0.543   2.739  2.0274 -0.0756 -0.2427
13445TIP3    H261827   4.063   0.504   2.884  0.2604  0.4081 -0.2878
13446TIP3   OH261828   4.469   6.776  15.373 -0.1759  0.1102  0.0758
13446TIP3    H161829   4.427   6.826  15.303 -0.1052  0.7035  0.4496
13446TIP3    H261830   4.401   6.716  15.404 -0.7527  1.0440  0.6589
13447TIP3   OH261831   1.723   4.110   1.202  0.5022  0.2617  0.2204
13447TIP3    H161832   1.808   4.114   1.246  1.0990 -0.4587 -0.8216
13447TIP3    H261833   1.684   4.196   1.216  1.6285  0.7691  0.2778
13448TIP3   OH261834   6.413   4.333  10.911  0.1020 -0.1677 -0.3156
13448TIP3    H161835   6.493   4.309  10.958  1.4560 -1.6741 -3.1265
13448TIP3    H261836   6.442   4.393  10.842 -1.1429 -0.7155 -1.3735
13449TIP3   OH261837   0.435   4.367   1.643 -0.1926  0.0927  0.5370
13449TIP3    H161838   0.528   4.387   1.655 -0.2861  0.4630  0.6480
13449TIP3    H261839   0.434   4.277   1.612  0.3683  0.8262 -1.8871
13450TIP3   OH261840   3.624   1.878  15.843  0.2527  0.1871  0.1746
13450TIP3    H161841   3.605   1.792  15.806  1.9405 -0.6670  1.1578
13450TIP3    H261842   3.618   1.939  15.769 -2.6940 -0.4312 -0.2271
13451TIP3   OH261843   2.300   5.147   2.577  0.1713 -0.8882 -0.1703
13451TIP3    H161844   2.234   5.110   2.518 -0.0343  1.0105 -1.2175
13451TIP3    H261845   2.252   5.212   2.628  1.3576  1.2324 -1.6352
13452TIP3   OH261846   2.753   5.565  11.960 -0.4065  0.1999  0.4502
13452TIP3    H161847   2.830   5.607  11.923 -0.6793  0.4416  0.1522
13452TIP3    H261848   2.759   5.582  12.054  0.4074 -0.6063  0.5584
13453TIP3   OH261849   5.604   0.365  16.750 -0.7065 -0.3017 -0.8068
13453TIP3    H161850   5.526   0.351  16.697 -0.6469  1.5017 -1.4458
13453TIP3    H261851   5.622   0.459  16.742  0.0605 -0.2045  1.3838
13454TIP3   OH261852   1.051   6.490   5.948  0.5800 -0.6190 -1.3626
13454TIP3    H161853   1.140   6.461   5.968 -0.6321 -4.2683 -0.4617
13454TIP3    H261854   1.001   6.409   5.940 -3.0183  1.2680 -0.2032
13455TIP3   OH261855   0.685   5.912   1.413 -0.3497  0.1094 -0.3753
13455TIP3    H161856   0.717   5.844   1.355 -0.0519 -0.0033 -0.0854
13455TIP3    H261857   0.737   5.901   1.494 -0.0329  0.9066 -0.4546
13456TIP3   OH261858   6.253   3.978   1.158  0.1580  0.1357 -0.0880
13456TIP3    H161859   6.326   4.027   1.120  1.6551 -0.2468  2.0941
13456TIP3    H261860   6.257   3.892   1.116  0.2284  0.4845 -0.8115
13457TIP3   OH261861   1.165   5.729   3.944 -0.3948 -0.2949  0.1308
13457TIP3    H161862   1.184   5.638   3.967 -0.7816 -0.0481  1.5639
13457TIP3    H261863   1.237   5.778   3.983  0.1930 -0.0261 -1.2402
13458TIP3   OH261864   3.561   3.407  11.152 -0.3031 -0.2292  0.1973
13458TIP3    H161865   3.605   3.322  11.156  0.0846 -0.0421  0.0346
13458TIP3    H261866   3.554   3.435  11.243 -0.4591 -0.4476  0.2538
13459TIP3   OH261867   6.741   2.469  14.808  0.1630 -0.0189  0.4813
13459TIP3    H161868   6.735   2.396  14.747  1.1291 -0.2793  0.6729
13459TIP3    H261869   6.656   2.470  14.853 -0.8763  0.7040 -1.4102
13460TIP3   OH261870   0.614   5.036  16.639  0.0794 -0.1025 -0.0806
13460TIP3    H161871   0.683   5.029  16.573 -1.8667 -0.5406 -2.2143
13460TIP3    H261872   0.573   4.949  16.639 -1.7396  0.7006 -0.4342
13461TIP3   OH261873   6.545   2.242   1.171  0.2831 -0.3500 -0.3884
13461TIP3    H161874   6.507   2.193   1.098  0.0778  1.2862 -1.4415
13461TIP3    H261875   6.626   2.279   1.136 -0.6922  1.9292 -0.4211
13462TIP3   OH261876   3.486   6.129  12.294 -0.1410 -0.1113 -0.0565
13462TIP3    H161877   3.550   6.137  12.223  0.0191 -0.9714 -0.0208
13462TIP3    H261878   3.513   6.195  12.358  1.3302 -1.1273  0.4182
13463TIP3   OH261879   6.011   0.558   0.424  0.2617 -0.4730  0.0261
13463TIP3    H161880   6.097   0.566   0.383 -0.4116  1.1978 -1.1407
13463TIP3    H261881   6.029   0.561   0.518  1.4971 -0.4115 -0.2000
13464TIP3   OH261882   2.639   2.971   2.820  0.4606 -0.3038  0.2536
13464TIP3    H161883   2.596   2.907   2.877  1.1122 -2.2245 -1.3004
13464TIP3    H261884   2.576   2.986   2.750  0.3090  0.8260  0.6076
13465TIP3   OH261885   3.811   2.154   5.329  0.6892 -0.3052 -0.3439
13465TIP3    H161886   3.887   2.097   5.316 -0.1785 -1.7861  0.6240
13465TIP3    H261887   3.847   2.242   5.331  2.1369 -0.8056 -1.6729
13466TIP3   OH261888   1.526   2.779   2.730  0.1460 -0.3016 -0.0983
13466TIP3    H161889   1.487   2.777   2.643  0.7837 -1.2506 -0.3685
13466TIP3    H261890   1.494   2.861   2.768  3.1166  2.3535 -2.7171
13467TIP3   OH261891   1.327   3.943  11.327 -0.8264 -0.0050  0.3717
13467TIP3    H161892   1.261   4.012  11.318 -1.6731 -0.6814  1.3168
13467TIP3    H261893   1.296   3.872  11.270  0.9232  0.9739 -1.9903
13468TIP3   OH261894   3.426   2.292  16.079 -0.8109 -0.2407  0.2812
13468TIP3    H161895   3.487   2.327  16.014  0.4742 -1.3466  0.8336
13468TIP3    H261896   3.349   2.348  16.072 -1.2614 -1.0501 -3.0599
13469TIP3   OH261897   2.093   1.672  13.014  0.1874  0.0853  0.3643
13469TIP3    H161898   2.165   1.734  13.013  1.2489 -1.1169  0.1051
13469TIP3    H261899   2.040   1.696  12.937  0.7258  0.4951  0.1142
13470TIP3   OH261900   0.585   2.492  12.449  0.2118  0.0504 -0.2682
13470TIP3    H161901   0.672   2.482  12.488  0.5234 -0.8664 -1.1436
13470TIP3    H261902   0.561   2.404  12.419 -0.2087  0.6063 -1.6862
13471TIP3   OH261903   3.172   6.837   1.506 -0.1387  0.1377  0.0945
13471TIP3    H161904   3.237   6.767   1.504 -1.5167 -1.1964 -1.9721
13471TIP3    H261905   3.219   6.915   1.477  0.6300 -0.7707 -1.2216
13472TIP3   OH261906   0.579   4.431   1.975  0.0178 -0.2928  0.0523
13472TIP3    H161907   0.549   4.342   1.995  1.6513 -0.7915  0.5157
13472TIP3    H261908   0.665   4.418   1.933 -1.0434  0.9607 -2.7315
13473TIP3   OH261909   1.490   2.237  14.623  0.0330  0.1376  0.4836
13473TIP3    H161910   1.581   2.267  14.626  0.8045 -1.4509 -2.6749
13473TIP3    H261911   1.496   2.143  14.640 -1.0960  0.0831  0.6500
13474TIP3   OH261912   4.168   1.496  13.314  0.3474  0.0746  0.2867
13474TIP3    H161913   4.118   1.553  13.257 -0.2853 -1.0541 -0.3314
13474TIP3    H261914   4.132   1.511  13.401  0.6918  1.1371  0.2572
13475TIP3   OH261915   2.887   5.475   2.089 -0.1378  0.2307 -0.0631
13475TIP3    H161916   2.850   5.388   2.101 -0.2777  0.3456  0.3734
13475TIP3    H261917   2.815   5.529   2.059  0.2337 -0.0734 -1.5446
13476TIP3   OH261918   2.134   3.110   0.676 -0.2101  0.3307  0.0717
13476TIP3    H161919   2.094   3.196   0.682 -0.9891 -0.0078 -0.1099
13476TIP3    H261920   2.167   3.092   0.764 -0.4080  0.6420  0.2100
13477TIP3   OH261921   6.823   2.672  13.921 -0.2893 -0.1267  0.0581
13477TIP3    H161922   6.873   2.611  13.976 -1.5509 -0.2614  1.1074
13477TIP3    H261923   6.879   2.748  13.912  0.9185 -1.0366 -0.4607
13478TIP3   OH261924   2.546   0.351   0.028 -0.4110  0.6491  0.0935
13478TIP3    H161925   2.472   0.323  -0.026  0.4190  0.3193 -0.9100
13478TIP3    H261926   2.515   0.342   0.118 -0.6263 -2.4063 -0.1815
13479TIP3   OH261927   2.729   0.652  13.925  0.1010 -1.0781 -0.6213
13479TIP3    H161928   2.808   0.695  13.892  0.9843 -0.3819  2.0796
13479TIP3    H261929   2.737   0.561  13.894  1.6373 -0.8623 -0.9594
13480TIP3   OH261930   1.652   6.221  15.149 -0.2402  0.3391  0.1137
13480TIP3    H161931   1.666   6.136  15.107 -1.2129  1.1001 -1.8849
13480TIP3    H261932   1.739   6.261  15.153  0.0147 -0.1724 -0.2643
13481TIP3   OH261933   3.452   2.347  11.141 -0.7999  0.3616 -0.5950
13481TIP3    H161934   3.364   2.379  11.119 -1.1334  0.7324  1.1816
13481TIP3    H261935   3.499   2.347  11.057 -2.5280  0.0133 -1.6036
13482TIP3   OH261936   6.759   1.723   3.557 -0.4251 -0.1321  0.1896
13482TIP3    H161937   6.765   1.791   3.490  0.5083 -0.8222 -0.4358
13482TIP3    H261938   6.691   1.755   3.616  1.1197  2.1733  0.8522
13483TIP3   OH261939   4.431   1.275   0.787  0.1642 -0.0038 -0.1358
13483TIP3    H161940   4.421   1.370   0.776 -0.5111 -0.3247 -3.2236
13483TIP3    H261941   4.342   1.244   0.807 -0.4516 -0.2811 -2.8923
13484TIP3   OH261942   3.216   2.353   2.070 -0.3365 -0.1983  0.0752
13484TIP3    H161943   3.259   2.270   2.052  0.6174 -0.2718  2.3154
13484TIP3    H261944   3.272   2.396   2.135 -2.1078  1.0588  0.8611
13485TIP3   OH261945   4.445   2.218  10.243 -0.0064  0.5863  0.8092
13485TIP3    H161946   4.502   2.243  10.316 -0.2316 -2.1277  2.0287
13485TIP3    H261947   4.366   2.269  10.256 -1.3240 -1.9537  4.4679
13486TIP3   OH261948   5.887   3.539  16.195 -0.5777  0.4829  0.2037
13486TIP3    H161949   5.965   3.584  16.227 -0.2926 -0.2385  0.5267
13486TIP3    H261950   5.898   3.537  16.100  0.3921 -0.6660  0.3159
13487TIP3   OH261951   5.719   4.075   2.661 -0.2239  0.0015  0.0838
13487TIP3    H161952   5.739   4.158   2.617  0.2757 -0.3576 -0.3823
13487TIP3    H261953   5.764   4.081   2.745  2.1834 -0.8861 -1.0307
13488TIP3   OH261954   0.179   6.423   1.886  0.8182 -0.0507  0.2570
13488TIP3    H161955   0.104   6.367   1.905  2.0781 -1.6669  0.6956
13488TIP3    H261956   0.146   6.487   1.823 -1.0380 -0.3952  0.8118
13489TIP3   OH261957   6.130   2.159  13.757  0.0953 -0.0826  0.1916
13489TIP3    H161958   6.114   2.109  13.676 -0.9944 -0.2574  0.4952
13489TIP3    H261959   6.208   2.211  13.738 -0.7555  0.7142 -1.3788
13490TIP3   OH261960   6.354   0.842  13.700  0.4962  0.5619  0.0023
13490TIP3    H161961   6.398   0.918  13.664  1.8333  0.2721  0.9390
13490TIP3    H261962   6.296   0.877  13.767  0.3652  0.8355 -0.2544
13491TIP3   OH261963   4.331   0.293   1.708 -0.4776  0.1910  0.2700
13491TIP3    H161964   4.422   0.312   1.729 -0.8594  0.2151  2.0931
13491TIP3    H261965   4.311   0.213   1.757 -1.4994  0.2886  0.0391
13492TIP3   OH261966   1.567   0.303   3.326  0.0387 -0.3801 -0.4024
13492TIP3    H161967   1.625   0.378   3.333 -0.5273 -0.0529  1.4483
13492TIP3    H261968   1.626   0.228   3.313  0.7185  0.1861 -0.6140
13493TIP3   OH261969   1.692   3.989  15.145 -0.5858  0.1420 -0.2604
13493TIP3    H161970   1.637   4.027  15.076 -0.4564  0.2620 -0.2981
13493TIP3    H261971   1.702   4.059  15.209  0.1676  0.3818 -0.6291
13494TIP3   OH261972   2.396   6.830   3.881  0.2029  0.0863  0.7132
13494TIP3    H161973   2.484   6.801   3.858 -0.3977 -0.4734 -0.9625
13494TIP3    H261974   2.384   6.799   3.971  1.0133 -1.5006  0.3013
13495TIP3   OH261975   2.982   1.644   1.548 -0.4056  0.3033 -0.1416
13495TIP3    H161976   2.973   1.704   1.623 -0.5272  2.1932 -1.5874
13495TIP3    H261977   2.900   1.653   1.500 -0.7458 -1.6751 -0.0098
13496TIP3   OH261978   2.395   5.308  14.360 -0.1849 -0.0837  0.2609
13496TIP3    H161979   2.420   5.216  14.372  0.2821  0.2059  1.6529
13496TIP3    H261980   2.367   5.337  14.447 -0.8196  0.9601 -0.2677
13497TIP3   OH261981   1.767   1.639  13.622  0.1349  0.2363 -1.0684
13497TIP3    H161982   1.676   1.635  13.594 -0.1108  1.9536 -0.6620
13497TIP3    H261983   1.765   1.613  13.714  0.4452 -2.0308 -1.6357
13498TIP3   OH261984   3.397   4.418  13.415 -0.1072 -0.3038 -0.0024
13498TIP3    H161985   3.453   4.406  13.339 -0.4853 -0.3637 -0.2730
13498TIP3    H261986   3.357   4.504  13.402 -1.4337 -0.9936 -0.7131
13499TIP3   OH261987   6.572   4.011  16.567  0.0128 -0.4770 -0.3710
13499TIP3    H161988   6.486   3.986  16.534  0.5541 -1.0319 -1.4024
13499TIP3    H261989   6.581   4.103  16.543 -0.0479 -0.5839 -0.8207
13500TIP3   OH261990   6.162   2.391   0.301 -0.2738 -0.3415 -0.1051
13500TIP3    H161991   6.075   2.384   0.340  0.3612 -1.6504  1.1865
13500TIP3    H261992   6.218   2.339   0.358  1.2152 -0.2067 -1.3699
13501TIP3   OH261993   5.974   2.861   1.373  0.2774 -0.5113 -0.2717
13501TIP3    H161994   6.010   2.813   1.298 -2.1252 -1.0439 -1.1717
13501TIP3    H261995   5.933   2.793   1.427 -0.8275  0.2145 -0.1675
13502TIP3   OH261996   2.885   5.031  14.491 -0.1283 -0.6157  0.2958
13502TIP3    H161997   2.837   5.000  14.414 -0.1559  0.1015  0.0165
13502TIP3    H261998   2.970   5.057  14.456 -0.1183 -0.3501  0.5186
13503TIP3   OH261999   1.318   3.323   3.052 -0.1860 -0.1619  0.0301
13503TIP3    H162000   1.297   3.247   3.106  0.1844  0.0040  0.4148
13503TIP3    H262001   1.257   3.318   2.978 -0.4477 -0.5954  0.2723
13504TIP3   OH262002   3.721   2.283   4.825 -0.7272  0.4407  0.8608
13504TIP3    H162003   3.769   2.209   4.788  1.2101  1.2652  1.5749
13504TIP3    H262004   3.634   2.248   4.845  0.0213 -1.5538  0.8881
13505TIP3   OH262005   5.728   0.003   2.145 -0.1401 -0.2071  0.4390
13505TIP3    H162006   5.773   0.058   2.080  1.6325 -1.8694  0.1373
13505TIP3    H262007   5.692  -0.069   2.093 -1.1616 -0.0951  0.9860
13506TIP3   OH262008   4.077   3.054  13.855  0.1045  0.6219  0.3256
13506TIP3    H162009   4.143   3.039  13.923  0.3613  2.4992  0.5400
13506TIP3    H262010   4.119   3.028  13.773  0.8120  1.0039  0.5651
13507TIP3   OH262011   6.848   0.320   2.818 -0.3423  0.2780  0.1776
13507TIP3    H162012   6.835   0.304   2.724 -0.2350 -0.0949  0.2212
13507TIP3    H262013   6.877   0.411   2.823  0.2242  0.1310 -0.2057
13508TIP3   OH262014   3.644   1.575   1.577  0.2147  0.5632  0.1491
13508TIP3    H162015   3.556   1.538   1.573 -0.5091  1.7378  3.1085
13508TIP3    H262016   3.691   1.519   1.638  0.7783  1.3247  0.4240
13509TIP3   OH262017   2.213   2.641  15.909  0.7576 -1.1397 -0.1648
13509TIP3    H162018   2.202   2.709  15.977  1.7489 -2.1830  1.0889
13509TIP3    H262019   2.176   2.681  15.830  3.1680  1.7462 -0.0463
13510TIP3   OH262020   2.455   1.048   0.913  0.0508  0.5623  0.7105
13510TIP3    H162021   2.396   1.098   0.970  0.8727  1.2056  1.0190
13510TIP3    H262022   2.434   1.079   0.825 -2.6110 -1.8443  0.3543
13511TIP3   OH262023   6.642   6.647   0.081 -0.0714  0.1602 -0.1407
13511TIP3    H162024   6.715   6.611   0.029 -0.3235 -0.7918  0.1456
13511TIP3    H262025   6.568   6.590   0.061 -0.2816  0.0339  0.9294
13512TIP3   OH262026   2.664   5.528   5.830  0.1950 -0.1626 -0.1058
13512TIP3    H162027   2.666   5.514   5.925 -2.1972  1.9255  0.3613
13512TIP3    H262028   2.755   5.545   5.807  0.6256  1.0522  2.1519
13513TIP3   OH262029   5.996   3.638   1.353  0.1929  0.0258  0.2742
13513TIP3    H162030   5.975   3.663   1.263 -1.5167  0.8237  0.8564
13513TIP3    H262031   5.920   3.665   1.404  0.4131 -1.8941  1.7337
13514TIP3   OH262032   2.839   5.462   0.261  0.5541  0.0306 -0.1226
13514TIP3    H162033   2.912   5.492   0.316  1.1207 -0.8277 -0.3978
13514TIP3    H262034   2.881   5.419   0.187 -0.2231 -2.4427  0.7986
13515TIP3   OH262035   6.032   1.242  12.850  0.3545 -0.0801  0.4386
13515TIP3    H162036   5.978   1.271  12.923  0.6504  2.1711 -0.1696
13515TIP3    H262037   6.122   1.253  12.881  0.4771  0.5912 -0.1346
13516TIP3   OH262038   3.803   3.850  15.219  0.1128  0.0345  0.5157
13516TIP3    H162039   3.829   3.778  15.162 -0.3381 -1.8013  2.5002
13516TIP3    H262040   3.709   3.860  15.203  0.1097 -0.0359  0.4903
13517TIP3   OH262041   1.751   5.484  17.080  0.8005  0.5955 -0.1197
13517TIP3    H162042   1.697   5.513  17.007  0.7450  0.0721 -0.2909
13517TIP3    H262043   1.690   5.437  17.137  0.9990  0.3358 -0.1217
13518TIP3   OH262044   5.584   3.516  14.960 -0.4932 -0.1738  0.3486
13518TIP3    H162045   5.501   3.478  14.931 -0.1116 -0.0543 -0.9500
13518TIP3    H262046   5.636   3.526  14.880  0.9667 -0.6875  1.1833
13519TIP3   OH262047   2.160   4.474  15.047 -0.3781 -0.3927  0.1430
13519TIP3    H162048   2.132   4.551  14.998 -1.2181 -0.3561  0.6756
13519TIP3    H262049   2.185   4.508  15.133  0.3209 -0.5733  0.0235
13520TIP3   OH262050   5.382   3.071  13.085 -0.2111  0.0239  0.2684
13520TIP3    H162051   5.394   3.150  13.137  0.6630  0.0339  0.0547
13520TIP3    H262052   5.287   3.056  13.087 -0.4015  1.1208  0.2479
13521TIP3   OH262053   0.802   5.200  11.745  0.1992 -0.5823 -0.3453
13521TIP3    H162054   0.716   5.230  11.716  0.4582 -0.0783 -0.6088
13521TIP3    H262055   0.829   5.137  11.677  0.6018  0.2456 -0.9668
13522TIP3   OH262056   1.719   5.754   0.904  0.1322 -0.5574 -0.2336
13522TIP3    H162057   1.652   5.715   0.848  0.1825 -0.3419 -0.4446
13522TIP3    H262058   1.681   5.836   0.934  0.4729 -0.2089 -0.7270
13523TIP3   OH262059   3.220   3.094  14.283  0.4923 -0.2580  0.3463
13523TIP3    H162060   3.127   3.081  14.304  0.2119  1.6316  0.4848
13523TIP3    H262061   3.224   3.182  14.244  1.9883 -0.9938 -1.3267
13524TIP3   OH262062   2.058   1.651   3.358  0.1050  0.1415  0.3147
13524TIP3    H162063   1.971   1.627   3.389 -0.8883  1.6073 -1.1434
13524TIP3    H262064   2.115   1.583   3.393 -1.8643 -1.8725 -0.0809
13525TIP3   OH262065   6.647   1.327  14.049  0.5139 -0.3666 -0.3068
13525TIP3    H162066   6.721   1.336  14.109 -0.6489  1.3295  0.9822
13525TIP3    H262067   6.662   1.395  13.983  1.2980 -1.6117 -1.4735
13526TIP3   OH262068   3.388   1.861  11.229 -0.1601  0.0125  0.3743
13526TIP3    H162069   3.350   1.934  11.179 -2.0262 -0.7166  0.6506
13526TIP3    H262070   3.345   1.783  11.195  0.9259 -0.8530  0.9157
13527TIP3   OH262071   1.973   3.635  11.673  0.4134  0.1387 -0.0412
13527TIP3    H162072   1.959   3.720  11.632 -2.2528  0.0043  0.3970
13527TIP3    H262073   2.014   3.656  11.757 -1.0889  1.1230  0.4841
13528TIP3   OH262074   1.364   4.013   5.107 -0.3437 -0.0278  0.1815
13528TIP3    H162075   1.416   4.043   5.032  0.7002  0.7503  1.1849
13528TIP3    H262076   1.274   4.041   5.086 -0.1006  0.0131 -0.8577
13529TIP3   OH262077   5.602   2.458   2.885 -0.5666  0.5335  0.5617
13529TIP3    H162078   5.663   2.384   2.879 -2.0650 -0.7453  0.3818
13529TIP3    H262079   5.647   2.530   2.842  0.5787 -0.5431 -0.1097
13530TIP3   OH262080   5.073   1.073  12.609 -0.2844 -0.1949 -0.4175
13530TIP3    H162081   5.101   1.151  12.561  0.0051  0.4309  0.7306
13530TIP3    H262082   5.047   1.011  12.540 -0.5384  0.9058 -1.3595
13531TIP3   OH262083   5.563   4.874  15.060 -0.3098 -0.1018 -0.1306
13531TIP3    H162084   5.609   4.868  14.976  0.2905 -1.4326  0.2582
13531TIP3    H262085   5.473   4.898  15.037  0.3205  1.6198 -0.9785
13532TIP3   OH262086   2.888   4.783  16.787  0.4173  0.5666  0.4560
13532TIP3    H162087   2.794   4.766  16.799  0.3522  1.0480  0.6564
13532TIP3    H262088   2.915   4.826  16.868  1.3403 -1.6375  1.4068
13533TIP3   OH262089   0.886   1.716   5.442  0.0543 -0.1052  0.4008
13533TIP3    H162090   0.906   1.624   5.424 -0.6823 -0.0639 -0.7593
13533TIP3    H262091   0.951   1.765   5.392  1.7523  0.0599  2.6032
13534TIP3   OH262092   1.217   2.889   3.887 -0.3782 -0.0319 -0.0212
13534TIP3    H162093   1.306   2.854   3.897  0.1996  0.5596 -2.4534
13534TIP3    H262094   1.223   2.978   3.924  1.0528  1.2559 -2.9505
13535TIP3   OH262095   4.034   3.465   3.490  0.3081 -0.0002  0.0984
13535TIP3    H162096   4.110   3.524   3.491  0.5811 -0.3529  0.6952
13535TIP3    H262097   3.958   3.523   3.498  0.4770  0.3928 -0.9454
13536TIP3   OH262098   4.726   6.422   1.230 -0.1646  0.2637 -0.3390
13536TIP3    H162099   4.794   6.489   1.238 -0.5098  0.5416  0.3234
13536TIP3    H262100   4.647   6.470   1.205 -1.1432  0.5743  2.9383
13537TIP3   OH262101   1.128   4.979  11.043  0.3179  0.6387  0.0202
13537TIP3    H162102   1.131   5.002  11.136 -0.6997 -1.0947  0.5360
13537TIP3    H262103   1.150   5.060  10.997 -0.3670  1.8492  1.7350
13538TIP3   OH262104   4.404   0.402   0.884  0.6101  0.2540 -0.0986
13538TIP3    H162105   4.309   0.407   0.898  0.6997  0.3003  0.5169
13538TIP3    H262106   4.442   0.424   0.969  1.1857  0.7373 -0.4729
13539TIP3   OH262107   5.994   1.527  14.308  0.1133  0.0437 -0.0400
13539TIP3    H162108   6.003   1.434  14.332 -0.6315 -0.3580 -1.1956
13539TIP3    H262109   6.040   1.535  14.224  2.4810  1.3587  1.2836
13540TIP3   OH262110   2.949   2.085  15.890 -0.4997 -0.8715 -0.2114
13540TIP3    H162111   2.939   2.159  15.949  1.5662 -0.7419  0.0500
13540TIP3    H262112   3.044   2.069  15.886 -0.8867 -3.9128  0.2422
13541TIP3   OH262113   0.965   6.741   3.594  0.2508 -0.3143 -0.2736
13541TIP3    H162114   1.058   6.763   3.587  1.1340 -2.8150  1.7080
13541TIP3    H262115   0.927   6.772   3.512  2.9298  0.2927 -1.4272
13542TIP3   OH262116   4.909   5.577   2.171 -0.1223  0.3256  0.1566
13542TIP3    H162117   4.872   5.494   2.141 -0.1942  0.4616 -0.1308
13542TIP3    H262118   4.833   5.634   2.182  0.0018  0.6172 -0.4665
13543TIP3   OH262119   3.102   0.686   1.485  0.2501  0.5630 -0.6109
13543TIP3    H162120   3.187   0.667   1.523  0.3388 -1.6627 -1.7459
13543TIP3    H262121   3.041   0.679   1.558  0.6978 -1.1692 -0.3579
13544TIP3   OH262122   2.394   2.239   2.869  0.2290 -0.3093 -0.2462
13544TIP3    H162123   2.474   2.292   2.876  1.3833 -1.2944 -3.6132
13544TIP3    H262124   2.328   2.300   2.836  0.3915 -0.0658 -0.1213
13545TIP3   OH262125   3.467   6.129   4.445  0.7158  0.2028 -0.0793
13545TIP3    H162126   3.441   6.220   4.463  0.3784 -0.4109  3.0314
13545TIP3    H262127   3.421   6.077   4.511  3.2673 -1.8862  0.2161
13546TIP3   OH262128   3.058   3.558  14.981  0.1783  0.0777 -0.3693
13546TIP3    H162129   3.078   3.589  15.070  1.0606 -3.4261  0.8343
13546TIP3    H262130   3.119   3.605  14.925  0.8102  1.1191  1.1196
13547TIP3   OH262131   0.297   3.967   5.804  0.6441  0.0356  0.2106
13547TIP3    H162132   0.209   3.971   5.843 -0.3082  1.6720 -1.9195
13547TIP3    H262133   0.290   3.902   5.735  1.0118  0.3972 -0.1727
13548TIP3   OH262134   0.815   1.469  13.777 -0.0150  0.0267  0.2634
13548TIP3    H162135   0.742   1.532  13.782  0.5196  0.6395  0.4580
13548TIP3    H262136   0.890   1.518  13.810  0.5397 -0.5235 -0.1825
13549TIP3   OH262137   4.054   1.721  14.982  0.1590  0.0551 -0.4421
13549TIP3    H162138   4.067   1.806  15.025 -0.7203 -0.2382  0.4378
13549TIP3    H262139   3.959   1.709  14.982  0.2257 -0.5053 -1.4176
13550TIP3   OH262140   5.789   1.649  12.012 -0.0398 -0.9915 -0.2779
13550TIP3    H162141   5.879   1.631  11.986 -0.7076 -1.6123 -2.3515
13550TIP3    H262142   5.790   1.741  12.037  1.1206 -0.9302 -0.4658
13551TIP3   OH262143   4.470   3.150  13.590  0.5339 -0.3625  0.0068
13551TIP3    H162144   4.551   3.193  13.615 -0.4017  1.0680  0.7467
13551TIP3    H262145   4.401   3.212  13.615 -0.7219 -0.8330 -2.0255
13552TIP3   OH262146   1.082   1.966  10.244 -0.1529 -0.5852 -0.1162
13552TIP3    H162147   1.066   1.885  10.292  0.5753 -0.7473 -0.1321
13552TIP3    H262148   1.135   1.940  10.169  1.2780  0.0724  0.6182
13553TIP3   OH262149   4.534   5.577   1.066 -0.2745 -0.2256  0.3302
13553TIP3    H162150   4.494   5.638   1.004  0.0795 -1.0785 -0.7719
13553TIP3    H262151   4.461   5.537   1.112 -0.5594  0.0675  0.1347
13554TIP3   OH262152   1.393   1.934   3.545  0.3812  0.4400 -0.4067
13554TIP3    H162153   1.389   1.994   3.471  0.5204  1.2794  0.2404
13554TIP3    H262154   1.386   1.991   3.622  0.7451 -0.3533  0.2335
13555TIP3   OH262155   4.551   1.228   1.025 -0.0986  0.7127  0.6620
13555TIP3    H162156   4.473   1.228   0.969 -0.3418 -0.7147  0.9518
13555TIP3    H262157   4.572   1.320   1.037 -1.2770  1.1035 -0.0793
13556TIP3   OH262158   0.784   0.549   4.396  0.0034 -0.0908  0.2951
13556TIP3    H162159   0.765   0.523   4.305 -1.4856 -1.3493  0.9183
13556TIP3    H262160   0.879   0.550   4.401  0.2104  2.0402 -1.8112
13557TIP3   OH262161   6.460   0.584   2.945  0.1859  0.5868  0.1265
13557TIP3    H162162   6.488   0.606   2.856  0.2844  0.7600  0.1983
13557TIP3    H262163   6.413   0.502   2.936 -0.1066  0.7805 -0.1368
13558TIP3   OH262164   0.021   5.889  14.656  0.2804 -0.7610 -0.7098
13558TIP3    H162165   0.092   5.830  14.630  3.2764  0.6429  3.1874
13558TIP3    H262166  -0.010   5.853  14.739  0.2337  1.4712  0.3192
13559TIP3   OH262167   0.621   3.778   5.574 -0.0848  0.3475  0.1752
13559TIP3    H162168   0.711   3.794   5.543 -0.3411  1.8649  0.1503
13559TIP3    H262169   0.620   3.813   5.663 -0.6444  0.2876  0.1927
13560TIP3   OH262170   3.519   3.058   2.031 -0.5230  0.3998  0.0628
13560TIP3    H162171   3.595   3.077   2.085  0.4578  1.0882 -1.4901
13560TIP3    H262172   3.551   3.063   1.941 -1.8585 -1.7028 -0.6010
13561TIP3   OH262173   1.539   0.855   2.092  0.2141  0.2778  0.1885
13561TIP3    H162174   1.502   0.886   2.175  0.3746 -1.5766  1.0148
13561TIP3    H262175   1.473   0.795   2.057  1.3288 -1.1612  0.4449
13562TIP3   OH262176   4.167   5.432  16.401 -0.0258  0.0371  0.4312
13562TIP3    H162177   4.138   5.402  16.315 -1.7763 -0.7432  1.2294
13562TIP3    H262178   4.122   5.375  16.463  0.5172  1.1159  1.9021
13563TIP3   OH262179   4.955   4.268   5.368 -0.3888  0.3339 -0.2490
13563TIP3    H162180   4.974   4.176   5.390  0.5957  0.6827  0.4715
13563TIP3    H262181   4.860   4.271   5.358 -0.7210 -0.2887  2.1270
13564TIP3   OH262182   0.132   6.654   1.183  0.5147  0.1403  0.5316
13564TIP3    H162183   0.175   6.667   1.268  1.0991 -2.1425  0.6499
13564TIP3    H262184   0.175   6.717   1.125  1.1642  0.6888  1.5693
13565TIP3   OH262185   2.417   3.994   2.013  0.2468  0.5113 -0.2502
13565TIP3    H162186   2.463   3.937   1.952 -0.3534  1.2117 -1.3884
13565TIP3    H262187   2.370   4.056   1.958 -1.0490  0.6093  0.8938
13566TIP3   OH262188   6.307   3.203   3.207  0.0844  0.2453 -0.0395
13566TIP3    H162189   6.363   3.131   3.178 -0.3140  0.0101 -0.2318
13566TIP3    H262190   6.310   3.266   3.136  1.7842  1.2117  0.8279
13567TIP3   OH262191   6.173   2.956   0.842  0.3956  0.4855 -0.3489
13567TIP3    H162192   6.196   2.933   0.932  2.6336 -1.4128 -1.2851
13567TIP3    H262193   6.115   2.885   0.814 -0.4376  1.1648 -0.3739
13568TIP3   OH262194   5.669   6.526  15.375 -0.0228 -0.5039  0.3116
13568TIP3    H162195   5.590   6.476  15.353 -0.1780  0.0921 -0.5392
13568TIP3    H262196   5.646   6.573  15.455 -0.8158  0.2663 -0.3530
13569TIP3   OH262197   4.646   4.125  13.889 -0.3645  0.1197 -0.4270
13569TIP3    H162198   4.706   4.052  13.904 -2.1948 -1.2020  0.8655
13569TIP3    H262199   4.588   4.125  13.965 -1.0703  2.3021 -0.8877
13570TIP3   OH262200   2.091   2.817   3.076  0.0461  0.0092 -0.0098
13570TIP3    H162201   2.128   2.877   3.141  0.0486 -0.9803  0.9352
13570TIP3    H262202   2.154   2.745   3.073  0.4066  0.3542 -1.6509
13571TIP3   OH262203   3.323   2.895   5.024  0.1653 -0.5849 -0.0290
13571TIP3    H162204   3.350   2.942   4.945 -1.1663 -1.8476 -1.2996
13571TIP3    H262205   3.403   2.886   5.075  0.4329  3.4142  0.5684
13572TIP3   OH262206   1.533   3.985   2.010 -0.9044 -0.1186 -0.0802
13572TIP3    H162207   1.563   3.895   1.999  0.2155  0.3435 -1.0594
13572TIP3    H262208   1.492   3.987   2.096 -1.6976 -1.7610 -0.4040
13573TIP3   OH262209   5.890   0.411   2.535 -0.1744 -0.4588  0.3953
13573TIP3    H162210   5.915   0.445   2.621 -2.1800 -0.3244  0.9896
13573TIP3    H262211   5.968   0.368   2.502  1.5681  2.0524  0.9606
13574TIP3   OH262212   2.536   4.372   2.187 -0.5319 -0.2338 -0.2125
13574TIP3    H162213   2.602   4.303   2.183 -0.1337 -0.2233  3.0214
13574TIP3    H262214   2.464   4.333   2.238 -1.0917  1.1488  0.0958
13575TIP3   OH262215   4.567   1.249   4.551 -0.3581  0.0386  0.1589
13575TIP3    H162216   4.523   1.206   4.624 -0.5032 -0.2128 -0.0756
13575TIP3    H262217   4.585   1.337   4.582 -0.3192 -0.1034  0.5384
13576TIP3   OH262218   5.877   2.638  16.835  0.2686 -0.5669 -0.2917
13576TIP3    H162219   5.922   2.648  16.919 -2.6898  0.0533  1.3596
13576TIP3    H262220   5.829   2.556  16.843 -0.5628 -0.1759 -1.0902
13577TIP3   OH262221   5.953   6.638  10.862  0.2828 -0.0401  0.1281
13577TIP3    H162222   5.974   6.559  10.912 -0.1784 -0.4055 -0.2440
13577TIP3    H262223   6.003   6.629  10.781 -1.2681 -0.9575 -0.8000
13578TIP3   OH262224   1.779   6.816  14.752 -0.4035 -0.0539 -0.0587
13578TIP3    H162225   1.760   6.876  14.824 -0.6369  0.4373 -0.5222
13578TIP3    H262226   1.758   6.866  14.673  1.5840  0.0873 -0.5731
13579TIP3   OH262227   4.569   4.402   4.444 -0.5053 -0.0774 -0.2259
13579TIP3    H162228   4.663   4.415   4.462  0.2980 -1.3378 -2.9832
13579TIP3    H262229   4.549   4.468   4.378 -1.8701  0.7743  0.9741
13580TIP3   OH262230   3.360   3.854   4.695 -0.5392  0.2452 -0.2647
13580TIP3    H162231   3.266   3.870   4.702 -0.6506  0.4651 -1.9405
13580TIP3    H262232   3.367   3.776   4.640  0.2715  1.1142 -1.4368
13581TIP3   OH262233   0.805   4.993   4.525 -0.4209  0.3790  0.2766
13581TIP3    H162234   0.748   4.970   4.599 -2.5497  3.3134 -0.2276
13581TIP3    H262235   0.869   5.053   4.563  0.7686 -0.9039  0.3504
13582TIP3   OH262236   4.281   0.545   6.148  0.0562 -0.2669 -0.1344
13582TIP3    H162237   4.199   0.502   6.124  0.2168 -0.4890 -0.2791
13582TIP3    H262238   4.261   0.639   6.142 -0.4475 -0.3084  0.7067
13583TIP3   OH262239   0.291   3.510  14.542  0.0169 -0.4126  0.3827
13583TIP3    H162240   0.270   3.551  14.626  0.9847 -0.9511  0.9030
13583TIP3    H262241   0.273   3.578  14.477 -0.2844  0.1707  1.0576
13584TIP3   OH262242   6.629   5.375   5.503 -0.0521 -0.2204  0.6968
13584TIP3    H162243   6.589   5.299   5.543 -0.2665 -0.1404  0.6340
13584TIP3    H262244   6.719   5.376   5.536 -0.5258  0.4518  2.0224
13585TIP3   OH262245   1.815   4.230   5.263  0.1465  0.4828 -0.0884
13585TIP3    H162246   1.826   4.155   5.204  0.6773  0.2307  0.3275
13585TIP3    H262247   1.763   4.195   5.336  1.8527  0.0355  0.9640
13586TIP3   OH262248   1.915   1.997   2.173  0.2046 -0.4144  0.0515
13586TIP3    H162249   1.850   1.929   2.155 -0.1484  0.1314 -0.7926
13586TIP3    H262250   1.972   1.996   2.096  0.3891  0.0140  0.1800
13587TIP3   OH262251   0.973   1.714   5.746  0.4962  0.3236 -0.3473
13587TIP3    H162252   0.978   1.696   5.840  0.9232  0.1224 -0.4065
13587TIP3    H262253   0.918   1.792   5.739  1.4718  1.0680  0.1564
13588TIP3   OH262254   0.579   3.361   1.209  0.2190  0.1312 -0.0766
13588TIP3    H162255   0.567   3.376   1.303 -1.9219  1.1436 -0.4392
13588TIP3    H262256   0.589   3.449   1.172 -0.6753 -0.1078 -0.9464
13589TIP3   OH262257   6.704   6.824   0.469  0.2079 -0.3435 -0.2935
13589TIP3    H162258   6.701   6.805   0.376 -1.0536  1.1255 -0.5960
13589TIP3    H262259   6.718   6.919   0.474  1.0119 -0.4930  1.0278
13590TIP3   OH262260   0.045   2.545  16.315 -0.1340  0.2339 -0.7472
13590TIP3    H162261   0.134   2.531  16.345 -0.4552  0.4346  0.3702
13590TIP3    H262262  -0.000   2.463  16.332 -0.2864  0.2966 -0.8416
13591TIP3   OH262263   3.154   1.630   0.523  0.1536  0.1633  0.9533
13591TIP3    H162264   3.209   1.552   0.521  0.1736  0.1963 -0.8004
13591TIP3    H262265   3.096   1.615   0.598  0.4384 -1.3287  0.9178
13592TIP3   OH262266   6.662   0.990   6.169  0.1162  0.4725  0.7291
13592TIP3    H162267   6.676   0.983   6.263  1.9615  0.6589  0.5157
13592TIP3    H262268   6.749   0.977   6.131 -0.7022 -0.2721 -0.9965
13593TIP3   OH262269   2.791   2.522  11.774 -0.1849  0.6922 -0.2472
13593TIP3    H162270   2.836   2.476  11.703  0.3856  1.7854 -0.6302
13593TIP3    H262271   2.854   2.588  11.803 -1.0026  1.2863  0.2186
13594TIP3   OH262272   1.538   3.889   5.807 -0.0628  0.2526 -0.9496
13594TIP3    H162273   1.576   3.834   5.876 -2.4024  0.8317  0.9406
13594TIP3    H262274   1.461   3.839   5.777 -0.1531  0.8851 -1.7922
13595TIP3   OH262275   1.149   6.077  12.838  0.3151 -0.2449  0.2929
13595TIP3    H162276   1.207   6.009  12.803  1.7615  2.6468 -3.6394
13595TIP3    H262277   1.064   6.058  12.799 -0.2357 -1.6740  2.0686
13596TIP3   OH262278   1.657   1.647   4.124 -0.3174 -0.5448  0.4230
13596TIP3    H162279   1.691   1.647   4.034 -1.0350 -0.6063  0.1507
13596TIP3    H262280   1.639   1.739   4.143 -1.8543 -0.7009 -0.1499
13597TIP3   OH262281   3.381   1.815   2.243 -0.2953 -0.2630 -0.0851
13597TIP3    H162282   3.463   1.833   2.198  0.3791 -0.9315  0.8473
13597TIP3    H262283   3.376   1.881   2.312  1.1880 -2.2591  2.0493
13598TIP3   OH262284   0.141   2.226  15.844  0.3169 -0.0735 -0.1603
13598TIP3    H162285   0.160   2.175  15.923  0.9499  0.3379 -0.0461
13598TIP3    H262286   0.065   2.279  15.868 -2.1038 -2.8687 -1.1197
13599TIP3   OH262287   0.478   5.990   4.170 -0.2707 -0.7846 -0.2091
13599TIP3    H162288   0.433   5.953   4.093 -0.1481  1.2371 -1.3093
13599TIP3    H262289   0.444   6.079   4.177  0.7032 -0.5024  1.3114
13600TIP3   OH262290   6.695   5.423  13.394  0.3225 -0.1735  0.3496
13600TIP3    H162291   6.778   5.405  13.438  0.0126 -0.4309  0.8475
13600TIP3    H262292   6.695   5.366  13.318  1.9302  1.9746 -1.3968
13601TIP3   OH262293   2.629   4.239  10.696 -0.3682 -0.3691 -0.2271
13601TIP3    H162294   2.621   4.334  10.689  0.0370 -0.3612 -0.6279
13601TIP3    H262295   2.609   4.207  10.608  2.4581 -0.4403 -0.9423
13602TIP3   OH262296   5.548   2.528   1.276 -0.1780  0.2403  0.0928
13602TIP3    H162297   5.544   2.436   1.250 -1.6509  0.0545  0.8534
13602TIP3    H262298   5.470   2.541   1.330  0.4688  1.7179  0.7356
13603TIP3   OH262299   1.205   3.976  11.825  0.1528  0.5542 -0.0149
13603TIP3    H162300   1.290   3.950  11.862  0.5683  0.0595 -1.2457
13603TIP3    H262301   1.204   3.936  11.738 -2.2083 -1.1584  0.6981
13604TIP3   OH262302   2.558   5.558  15.154  0.5234  0.2862 -0.0406
13604TIP3    H162303   2.512   5.489  15.203  3.1638 -0.3671  1.6867
13604TIP3    H262304   2.548   5.532  15.062 -1.0037 -0.7597  0.3770
13605TIP3   OH262305   1.435   4.906   6.288  0.2508 -0.0502 -0.0979
13605TIP3    H162306   1.390   4.861   6.217  0.3017 -1.0873  0.5103
13605TIP3    H262307   1.518   4.860   6.298  0.1885 -0.0039  0.7086
13606TIP3   OH262308   5.911   3.848   4.402  0.2437 -0.4334  0.3055
13606TIP3    H162309   5.970   3.892   4.463  0.8615  1.7284 -1.7439
13606TIP3    H262310   5.824   3.881   4.425  0.2270 -1.0376  1.1564
13607TIP3   OH262311   1.492   4.355   5.207  0.0973 -0.4825  0.1359
13607TIP3    H162312   1.560   4.324   5.146 -0.9500  1.0337 -1.8976
13607TIP3    H262313   1.435   4.279   5.219  1.5364 -1.4661  1.0479
13608TIP3   OH262314   3.458   6.606  15.390 -0.0193 -0.0643 -0.5546
13608TIP3    H162315   3.369   6.642  15.393 -0.7241 -1.7705  0.6058
13608TIP3    H262316   3.453   6.526  15.443  2.5107  0.4421  0.5765
13609TIP3   OH262317   6.574   3.541  13.585 -0.7311 -0.4158  0.2925
13609TIP3    H162318   6.609   3.453  13.572 -1.4983 -0.4211 -2.3817
13609TIP3    H262319   6.495   3.543  13.530 -1.8013  1.3534  1.7857
13610TIP3   OH262320   0.600   0.757  11.959  0.5162  0.5874  0.1855
13610TIP3    H162321   0.602   0.701  11.881  0.6974  1.4580 -0.4544
13610TIP3    H262322   0.533   0.822  11.940 -0.5977 -0.1303  1.4534
13611TIP3   OH262323   1.073   4.739   0.867  0.1386 -0.3410 -0.2038
13611TIP3    H162324   1.157   4.762   0.907  0.6572 -0.5854 -1.1235
13611TIP3    H262325   1.016   4.813   0.889  1.3139  1.1200 -1.6796
13612TIP3   OH262326   3.740   4.574   2.527 -0.4165 -0.6496 -0.4104
13612TIP3    H162327   3.761   4.550   2.617 -0.3683  3.0992  0.7071
13612TIP3    H262328   3.807   4.636   2.501 -0.2182 -1.8674 -3.2588
13613TIP3   OH262329   1.924   3.283   2.431 -0.3526  0.1728 -0.2783
13613TIP3    H162330   1.869   3.215   2.469  1.0555 -1.0441 -0.3632
13613TIP3    H262331   1.935   3.258   2.340 -0.0382  0.6646 -0.3823
13614TIP3   OH262332   5.311   2.495   2.801  0.6512 -0.1760 -0.0066
13614TIP3    H162333   5.401   2.524   2.811  0.9200 -1.0164  0.0840
13614TIP3    H262334   5.266   2.570   2.760  1.7729 -0.3737 -1.7226
13615TIP3   OH262335   6.309   1.707   1.910 -0.4267  0.4709  0.1029
13615TIP3    H162336   6.266   1.639   1.963  1.6649 -1.9703 -1.0726
13615TIP3    H262337   6.239   1.767   1.886 -2.0830 -0.2784  2.6815
13616TIP3   OH262338   6.624   3.399  12.781 -0.1064  0.0104  0.1000
13616TIP3    H162339   6.612   3.390  12.687  0.4361 -0.2145  0.0479
13616TIP3    H262340   6.597   3.315  12.818  0.1999 -0.0961  0.0885
13617TIP3   OH262341   6.439   1.254   6.235  0.2812  0.0962 -0.0080
13617TIP3    H162342   6.381   1.329   6.243  0.6664  0.3598  0.3419
13617TIP3    H262343   6.510   1.271   6.297  0.4773 -0.4574 -0.0699
13618TIP3   OH262344   3.744   6.701  12.813  0.3316 -0.5531  0.2839
13618TIP3    H162345   3.749   6.731  12.722  0.6935  0.3705  0.5963
13618TIP3    H262346   3.835   6.702  12.843  0.2419 -1.1270  0.5778
13619TIP3   OH262347   0.068   5.717  13.328  0.0375  0.1190 -0.0012
13619TIP3    H162348   0.042   5.658  13.398  1.8097  1.2928  1.7667
13619TIP3    H262349   0.151   5.681  13.296 -0.4663 -0.0847 -1.1307
13620TIP3   OH262350   5.211   4.492  12.615  0.4373 -0.0168  0.3880
13620TIP3    H162351   5.257   4.469  12.696 -0.6265  0.2655  1.1029
13620TIP3    H262352   5.125   4.450  12.624  0.3102  0.0067 -0.6062
13621TIP3   OH262353   2.245   5.614  11.163  0.2161  0.3310 -0.0734
13621TIP3    H162354   2.183   5.648  11.098 -1.5804  0.2790  1.5021
13621TIP3    H262355   2.287   5.691  11.199  1.6129  0.3291 -1.6058
13622TIP3   OH262356   2.160   1.336   5.927  0.3955 -0.3598  0.2236
13622TIP3    H162357   2.074   1.293   5.920 -1.7333  3.2408  1.2539
13622TIP3    H262358   2.179   1.337   6.021 -0.1846  1.7047  0.3761
13623TIP3   OH262359   0.292   4.326   4.138 -0.3044 -0.3101 -0.0585
13623TIP3    H162360   0.343   4.368   4.069 -0.1827  0.0417  0.2391
13623TIP3    H262361   0.271   4.397   4.199  1.0045 -0.8817  1.1329
13624TIP3   OH262362   1.951   6.227   6.383  0.0733 -0.3224 -0.8192
13624TIP3    H162363   1.993   6.297   6.435  1.3040 -0.8929 -0.9977
13624TIP3    H262364   1.879   6.271   6.338 -1.2951  0.1231  1.6310
13625TIP3   OH262365   3.757   3.879   5.793 -0.1245 -0.5909 -0.6096
13625TIP3    H162366   3.759   3.969   5.826  0.0183 -0.8672  0.1564
13625TIP3    H262367   3.710   3.885   5.710  2.0040  0.5727 -1.8235
13626TIP3   OH262368   6.357   2.209   3.404 -0.0159 -0.0098  0.2234
13626TIP3    H162369   6.384   2.301   3.404  1.7831 -0.4583  2.0182
13626TIP3    H262370   6.314   2.197   3.489 -2.9714 -0.2054 -1.1621
13627TIP3   OH262371   4.894   2.623  14.003 -0.4574  0.3266 -0.4326
13627TIP3    H162372   4.804   2.654  14.013 -0.4044  0.7209 -1.1033
13627TIP3    H262373   4.895   2.537  14.045 -1.4289 -0.1523 -1.3465
13628TIP3   OH262374   0.899   2.078   1.223  0.4333 -0.0373  0.5790
13628TIP3    H162375   0.945   2.135   1.160 -1.8160 -0.9234 -2.0645
13628TIP3    H262376   0.887   2.133   1.300 -1.7876  3.3523 -1.8789
13629TIP3   OH262377   3.422   0.064  15.496 -0.2994 -0.0396  0.5799
13629TIP3    H162378   3.371   0.007  15.439 -0.7290  0.5968  0.3117
13629TIP3    H262379   3.420   0.021  15.581 -0.0956 -0.7305  0.2464
13630TIP3   OH262380   6.253   3.093  14.581  0.2364 -0.4243 -0.0996
13630TIP3    H162381   6.185   3.121  14.642 -0.1682 -0.7993 -0.3690
13630TIP3    H262382   6.324   3.155  14.594 -0.4857  0.4924 -0.4152
13631TIP3   OH262383   0.242   3.309   5.409 -0.6157 -0.1904  0.2430
13631TIP3    H162384   0.296   3.323   5.330 -0.4164 -0.7920  0.2689
13631TIP3    H262385   0.249   3.215   5.426 -0.5601 -0.0376  1.0570
13632TIP3   OH262386   6.655   2.928   2.102  0.3302 -0.0936  0.5128
13632TIP3    H162387   6.599   2.865   2.056  0.2935 -0.7618  1.4299
13632TIP3    H262388   6.594   2.994   2.135  0.1849 -0.3456  0.7558
13633TIP3   OH262389   2.095   5.994  14.682  0.1928  0.9767  0.1571
13633TIP3    H162390   2.097   6.025  14.773 -0.4587 -1.5555  1.1214
13633TIP3    H262391   2.172   5.937  14.674  0.6314  1.7138 -1.1165
13634TIP3   OH262392   4.741   5.397   2.063  0.0833 -0.2853 -0.3735
13634TIP3    H162393   4.694   5.419   1.982 -1.8041  1.8799  1.1921
13634TIP3    H262394   4.679   5.342   2.112 -0.4665  1.6337  1.2109
13635TIP3   OH262395   2.798   4.614  15.582 -0.2309  0.1696 -0.2562
13635TIP3    H162396   2.865   4.663  15.629 -0.8637  1.7880 -0.9747
13635TIP3    H262397   2.844   4.578  15.506  0.3084 -0.6690  0.4460
13636TIP3   OH262398   0.702   3.282   5.694  0.2403 -0.3060  0.1409
13636TIP3    H162399   0.653   3.275   5.776 -2.5034  0.3737 -1.3238
13636TIP3    H262400   0.652   3.231   5.631  1.2360  0.7139 -1.5481
13637TIP3   OH262401   2.747   3.925   0.328  0.1702  0.2711 -0.2419
13637TIP3    H162402   2.754   3.855   0.393 -1.3132 -2.0437 -2.4229
13637TIP3    H262403   2.829   3.921   0.279 -1.4157 -2.8768 -2.9825
13638TIP3   OH262404   2.124   4.219  12.038  0.0631  0.2403  0.1253
13638TIP3    H162405   2.104   4.279  11.967 -1.3582 -0.1847  0.1372
13638TIP3    H262406   2.216   4.235  12.057  0.3225  0.7643 -1.4121
13639TIP3   OH262407   2.526   0.061  16.790 -0.2731 -0.0848 -0.0473
13639TIP3    H162408   2.450   0.004  16.782  0.3312 -0.9006 -0.0982
13639TIP3    H262409   2.506   0.117  16.865  0.0459 -1.8455  1.4138
13640TIP3   OH262410   4.627   6.236   0.337  0.2695 -0.1158 -0.1311
13640TIP3    H162411   4.651   6.271   0.252 -1.6714  0.0048 -0.6817
13640TIP3    H262412   4.554   6.176   0.319 -0.4459  0.1973  1.4642
13641TIP3   OH262413   0.966   0.859   5.898  0.3217  0.2114  0.7205
13641TIP3    H162414   0.877   0.852   5.863  0.3333  1.9721  0.2409
13641TIP3    H262415   0.992   0.769   5.914 -1.6566 -0.3430  1.1653
13642TIP3   OH262416   2.151   3.458  13.105 -0.2019  0.1938 -0.9363
13642TIP3    H162417   2.181   3.536  13.154  0.1617 -1.1094  1.0423
13642TIP3    H262418   2.183   3.472  13.016 -0.2568  2.3632 -0.6761
13643TIP3   OH262419   4.093   1.692   2.730 -0.1501  0.0751 -0.3776
13643TIP3    H162420   4.061   1.654   2.649  0.5553 -2.3897  0.4239
13643TIP3    H262421   4.038   1.653   2.798  2.2536 -1.7010  0.7113
13644TIP3   OH262422   6.594   6.748   1.693  0.1195 -0.2487 -1.6900
13644TIP3    H162423   6.537   6.706   1.757  2.2906 -0.7344  0.0003
13644TIP3    H262424   6.617   6.679   1.631  1.6691 -0.9949 -0.3390
13645TIP3   OH262425   4.463   5.765  14.817 -0.3139  0.1356 -0.5246
13645TIP3    H162426   4.453   5.699  14.748 -1.7102 -0.6588  0.3981
13645TIP3    H262427   4.376   5.804  14.824 -0.3652 -0.2387  1.2091
13646TIP3   OH262428   5.317   4.850  14.719 -0.5324  0.3537 -0.3428
13646TIP3    H162429   5.260   4.867  14.795  0.1533 -1.3597  0.6048
13646TIP3    H262430   5.383   4.919  14.723 -1.8990  1.7335 -0.8341
13647TIP3   OH262431   0.197   1.263   5.683 -0.0679  0.3629  0.7050
13647TIP3    H162432   0.192   1.208   5.605  1.5975  2.0137 -0.6634
13647TIP3    H262433   0.290   1.285   5.691 -0.3630  1.1219  2.5286
13648TIP3   OH262434   1.894   0.041   5.177 -0.1569  0.3025 -0.6226
13648TIP3    H162435   1.967  -0.009   5.142 -1.4188 -0.8749 -1.7226
13648TIP3    H262436   1.874  -0.000   5.261  2.0712  2.3285  1.0290
13649TIP3   OH262437   1.731   3.613  17.093  0.7743 -0.2904  0.0075
13649TIP3    H162438   1.697   3.684  17.148 -0.4214  0.0466 -1.1156
13649TIP3    H262439   1.810   3.650  17.052  1.1542 -0.2354  0.7718
13650TIP3   OH262440   2.943   4.180  13.520  0.0406 -0.8482 -0.0697
13650TIP3    H162441   2.945   4.177  13.616 -1.8571  2.7479  0.2433
13650TIP3    H262442   3.029   4.216  13.496 -0.5450  1.1403  0.6023
13651TIP3   OH262443   0.628   0.005   1.661 -0.0274  0.4531  0.5666
13651TIP3    H162444   0.721   0.007   1.683  0.4745 -1.5085 -1.0688
13651TIP3    H262445   0.586  -0.034   1.738  0.9156 -1.1338  0.3235
13652TIP3   OH262446   1.039   3.250  13.118 -0.6247  0.9168  0.2567
13652TIP3    H162447   1.126   3.287  13.102  0.8022 -1.8950  0.9660
13652TIP3    H262448   1.028   3.254  13.213  0.1483 -1.5333  0.5038
13653TIP3   OH262449   6.406   0.019  11.806  0.4371  0.1583  0.2609
13653TIP3    H162450   6.358  -0.059  11.780  0.3012  1.0996 -2.7098
13653TIP3    H262451   6.342   0.072  11.853 -1.0106  0.5906 -2.0511
13654TIP3   OH262452   2.436   3.107  13.836  0.4525 -0.0868 -0.5914
13654TIP3    H162453   2.420   3.056  13.915  1.7526  0.8236  0.2919
13654TIP3    H262454   2.530   3.103  13.823  0.4697  1.2277 -1.0675
13655TIP3   OH262455   2.071   1.977  13.409  0.4370  0.1616  0.1547
13655TIP3    H162456   2.103   2.058  13.368 -0.3026  0.2539 -0.2494
13655TIP3    H262457   1.976   1.986  13.410  0.2135 -1.4688 -1.5224
13656TIP3   OH262458   4.367   2.716   0.530 -0.0913  0.1416 -0.1781
13656TIP3    H162459   4.366   2.724   0.626  0.1411  0.7738 -0.2262
13656TIP3    H262460   4.276   2.729   0.504 -0.6624 -2.5876  0.1364
13657TIP3   OH262461   2.466   2.407   3.545  0.4126 -0.7998 -0.2100
13657TIP3    H162462   2.434   2.497   3.550  1.6574 -0.3223 -0.3644
13657TIP3    H262463   2.543   2.406   3.603 -0.3568 -2.1315  0.8534
13658TIP3   OH262464   1.322   6.268  13.597  0.0961 -0.2613  0.2584
13658TIP3    H162465   1.318   6.308  13.684 -1.0314  0.1981  0.0141
13658TIP3    H262466   1.407   6.293  13.562 -0.1531  1.0381  0.5476
13659TIP3   OH262467   6.799   4.226   4.878  0.2373  0.2421  0.0143
13659TIP3    H162468   6.838   4.224   4.791 -0.7787 -2.1870 -0.4951
13659TIP3    H262469   6.870   4.203   4.937  0.6952  0.8765 -0.2802
13660TIP3   OH262470   4.506   5.087   6.367 -0.8075 -0.0354 -0.1146
13660TIP3    H162471   4.514   5.171   6.413 -0.7052 -0.1758  0.1247
13660TIP3    H262472   4.539   5.105   6.279  2.9549 -0.7198  0.9721
13661TIP3   OH262473   4.382   1.034  11.717  0.0025  0.1102  0.3996
13661TIP3    H162474   4.390   1.124  11.749  1.5577 -0.1525  0.8598
13661TIP3    H262475   4.290   1.024  11.694  0.0911  2.3505 -1.2542
13662TIP3   OH262476   0.563   2.365  16.158  0.1923 -0.0559  0.4595
13662TIP3    H162477   0.614   2.378  16.077  0.4710 -1.1682  0.4331
13662TIP3    H262478   0.562   2.270  16.169 -1.8447 -0.0662  0.4941
13663TIP3   OH262479   5.320   6.809  13.172 -0.4240  0.4630 -0.0331
13663TIP3    H162480   5.307   6.900  13.197 -0.9284  0.2315  0.5899
13663TIP3    H262481   5.354   6.812  13.083 -0.1941  1.2651  0.0793
13664TIP3   OH262482   4.038   1.331  16.004  0.4108  0.0327  0.4731
13664TIP3    H162483   4.049   1.247  15.960  1.0674  0.6075 -0.5038
13664TIP3    H262484   4.100   1.328  16.078  0.8353 -0.1329  0.1151
13665TIP3   OH262485   1.528   2.918   1.683  0.0294 -0.2142  0.1277
13665TIP3    H162486   1.598   2.854   1.678 -0.0145 -0.2916  0.5278
13665TIP3    H262487   1.447   2.867   1.672  0.0653  0.0287 -1.7520
13666TIP3   OH262488   0.253   4.221  14.544  0.0399  0.2034  0.3288
13666TIP3    H162489   0.260   4.290  14.478  1.3647  2.1095  2.2940
13666TIP3    H262490   0.204   4.263  14.616  0.7599 -0.9339  1.5240
13667TIP3   OH262491   1.544   2.722   0.573 -0.6205  0.0251  0.0249
13667TIP3    H162492   1.516   2.770   0.651 -0.2804  0.6191 -0.2110
13667TIP3    H262493   1.543   2.787   0.503  1.2500  0.0613 -0.0183
13668TIP3   OH262494   4.150   4.238   4.922  0.2188  0.2591  0.0329
13668TIP3    H162495   4.188   4.322   4.896  1.5681 -0.1840  0.4878
13668TIP3    H262496   4.215   4.173   4.895  0.4605 -0.4241  2.0686
13669TIP3   OH262497   4.474   0.500  15.264 -0.3468 -0.1471 -0.2313
13669TIP3    H162498   4.486   0.593  15.282  2.2192 -0.6476  1.0986
13669TIP3    H262499   4.554   0.458  15.297 -1.7004 -2.9134 -0.1399
13670TIP3   OH262500   0.230   3.773   3.781  0.0765 -0.1822  0.5439
13670TIP3    H162501   0.218   3.766   3.686  0.1140 -1.4140  0.6235
13670TIP3    H262502   0.293   3.845   3.791 -2.3971  2.2801 -0.1812
13671TIP3   OH262503   6.065   4.475  15.458 -0.5852 -0.4234 -0.5942
13671TIP3    H162504   6.062   4.570  15.466 -0.8725 -0.4119 -0.8064
13671TIP3    H262505   5.982   4.452  15.416 -1.4107 -0.9455  1.2301
13672TIP3   OH262506   1.721   1.363   3.706  0.5224 -0.1929 -0.1319
13672TIP3    H162507   1.712   1.313   3.625  1.0414 -0.1037 -0.2443
13672TIP3    H262508   1.769   1.305   3.765 -0.5534 -0.5792  0.3989
13673TIP3   OH262509   2.110   0.478   5.323 -0.2124 -0.1170 -0.3689
13673TIP3    H162510   2.139   0.439   5.406 -1.6820  0.5520  0.4936
13673TIP3    H262511   2.068   0.405   5.277  0.5377 -0.4738 -0.5055
13674TIP3   OH262512   1.469   4.812   2.453 -0.3174  0.2000 -0.1661
13674TIP3    H162513   1.409   4.886   2.465 -0.3494  0.0305  0.8213
13674TIP3    H262514   1.531   4.842   2.387  0.2551  1.4971  0.9052
13675TIP3   OH262515   2.229   1.050  16.152  0.0310 -0.1249 -0.0631
13675TIP3    H162516   2.189   0.985  16.095 -1.4208  0.6608  0.0151
13675TIP3    H262517   2.189   1.036  16.237 -1.2051  1.5596 -0.2984
13676TIP3   OH262518   4.956   0.888  14.943 -0.1276  0.1174  0.0614
13676TIP3    H162519   4.954   0.983  14.956 -0.9424  0.2830 -1.0865
13676TIP3    H262520   4.870   0.868  14.906  1.2979 -0.5302 -3.1847
13677TIP3   OH262521   2.942   6.133  13.075  0.2246  0.7101 -0.0211
13677TIP3    H162522   3.022   6.172  13.040  0.7040 -0.6559 -0.5339
13677TIP3    H262523   2.973   6.074  13.144 -0.5232  1.6412  1.1462
13678TIP3   OH262524   5.568   2.911   1.952 -0.2584  0.1835  0.1510
13678TIP3    H162525   5.501   2.876   1.894  1.0057 -0.5357 -0.9249
13678TIP3    H262526   5.597   2.835   2.003 -1.1220  0.7419  1.5410
13679TIP3   OH262527   4.658   3.157   6.766  0.1781 -0.4956  0.2895
13679TIP3    H162528   4.686   3.245   6.790 -0.1204  0.9588 -3.8304
13679TIP3    H262529   4.739   3.106   6.763  1.3027  1.2090 -2.5001
13680TIP3   OH262530   6.758   0.084  14.803  0.9104 -0.2099  0.2376
13680TIP3    H162531   6.670   0.047  14.803  0.0178  1.7624 -1.1092
13680TIP3    H262532   6.754   0.154  14.868  1.8336 -0.7418  0.9056
13681TIP3   OH262533   5.748   2.359   0.000  0.2934 -0.0369  0.0418
13681TIP3    H162534   5.662   2.358  -0.042 -0.4709 -1.2716  1.5279
13681TIP3    H262535   5.767   2.452   0.013 -0.5946  0.2616 -0.7242
13682TIP3   OH262536   5.922   3.039  10.586 -0.2246  0.1404 -0.4346
13682TIP3    H162537   5.856   3.080  10.642  0.0976  1.1164 -0.7394
13682TIP3    H262538   5.874   3.015  10.506 -0.6266 -1.0080  0.1426
13683TIP3   OH262539   3.706   0.571  11.591 -0.1520 -0.2920 -0.6053
13683TIP3    H162540   3.612   0.588  11.601  0.3106  2.3645  0.1704
13683TIP3    H262541   3.727   0.603  11.504  0.1339 -0.1837 -0.4980
13684TIP3   OH262542   6.410   4.377  13.944  0.0388  0.1061 -0.1450
13684TIP3    H162543   6.404   4.287  13.978 -0.3639  0.4425  0.6954
13684TIP3    H262544   6.389   4.369  13.851 -1.4269 -0.4739  0.2087
13685TIP3   OH262545   3.401   0.169   4.043 -0.2227  0.8270 -0.4350
13685TIP3    H162546   3.496   0.177   4.056 -0.2854 -1.1897  1.9375
13685TIP3    H262547   3.364   0.184   4.129 -1.9542 -0.0800 -0.9951
13686TIP3   OH262548   1.069   3.495   6.079  0.0498 -0.1594 -0.2938
13686TIP3    H162549   1.114   3.411   6.070  0.2580  0.0830 -1.8407
13686TIP3    H262550   1.086   3.540   5.996 -1.7943  0.5590 -0.3197
13687TIP3   OH262551   2.155   4.546   4.990  0.6423  0.0236  0.2163
13687TIP3    H162552   2.108   4.590   4.919  0.2422  0.3972  0.7018
13687TIP3    H262553   2.086   4.511   5.047  0.9560 -0.7752  0.1219
13688TIP3   OH262554   6.684   5.925  13.538  0.3174 -0.4566  0.2560
13688TIP3    H162555   6.764   5.951  13.491  0.3083 -1.3527 -0.2702
13688TIP3    H262556   6.623   5.997  13.522  0.4446 -0.5600 -0.8037
13689TIP3   OH262557   1.675   3.375   0.434 -0.6549  0.1385 -0.1134
13689TIP3    H162558   1.711   3.379   0.523  1.4012 -1.4945 -0.8062
13689TIP3    H262559   1.598   3.319   0.442 -0.4388 -0.0650  0.6039
13690TIP3   OH262560   1.414   2.168  16.795  0.4853 -0.6075  0.2685
13690TIP3    H162561   1.371   2.089  16.762  1.0422 -0.9842  0.4255
13690TIP3    H262562   1.505   2.160  16.764  0.1873  0.7301 -1.0498
13691TIP3   OH262563   5.438   3.462   5.996  0.5347  0.1244 -0.3491
13691TIP3    H162564   5.387   3.393   6.039 -0.3352  1.7744  1.4040
13691TIP3    H262565   5.499   3.492   6.063  1.0926  0.8861 -1.1732
13692TIP3   OH262566   4.199   3.112   0.525  0.0098  0.0777  0.2508
13692TIP3    H162567   4.192   3.096   0.431  0.3346  3.0192 -0.3899
13692TIP3    H262568   4.292   3.105   0.544  0.0808  0.4906  0.0876
13693TIP3   OH262569   1.482   2.808  16.989  0.0588 -0.8335  0.1021
13693TIP3    H162570   1.536   2.729  16.986  1.1891 -0.0736 -0.1527
13693TIP3    H262571   1.541   2.879  16.964 -0.8705  0.1335  0.5534
13694TIP3   OH262572   5.720   1.504  13.883 -0.1056 -0.1261  0.3716
13694TIP3    H162573   5.757   1.578  13.835  0.9775 -1.5846 -1.1408
13694TIP3    H262574   5.625   1.515  13.874  0.0612  0.3411 -1.0347
13695TIP3   OH262575   6.472   3.584  14.633  0.2132  0.0250  1.1837
13695TIP3    H162576   6.405   3.649  14.610 -1.8401 -2.0889  0.8681
13695TIP3    H262577   6.547   3.608  14.579 -2.0323 -0.5163 -2.5747
13696TIP3   OH262578   1.611   1.793   1.495 -0.1299  0.4596 -0.1787
13696TIP3    H162579   1.625   1.886   1.514 -0.7519  0.7197 -0.9753
13696TIP3    H262580   1.621   1.785   1.400  1.8162 -0.6331  0.0717
13697TIP3   OH262581   3.559   4.546  11.088  0.1513  0.0375 -0.8927
13697TIP3    H162582   3.625   4.480  11.110 -1.3365 -0.7277  1.6060
13697TIP3    H262583   3.498   4.500  11.029 -0.4125 -0.6046  0.1598
13698TIP3   OH262584   3.709   3.376   0.973 -0.2629  0.6929 -0.7713
13698TIP3    H162585   3.621   3.364   1.010 -0.5692  2.2751 -0.9189
13698TIP3    H262586   3.758   3.422   1.041 -0.5724  2.8441 -1.9118
13699TIP3   OH262587   3.303   1.826  12.793  0.4691  0.1882 -0.0025
13699TIP3    H162588   3.297   1.909  12.747 -0.5903  1.9742  3.0602
13699TIP3    H262589   3.395   1.802  12.789  0.6934  1.1757 -1.4112
13700TIP3   OH262590   0.590   0.719  13.461 -0.7034  0.2128  0.4242
13700TIP3    H162591   0.561   0.761  13.380 -0.9601  0.0375  0.4236
13700TIP3    H262592   0.522   0.655  13.480  0.3724 -1.2031 -0.3386
13701TIP3   OH262593   3.021   6.018  17.087 -0.2809  0.1938 -0.0612
13701TIP3    H162594   2.952   5.989  17.028  0.8616  1.1548 -1.9788
13701TIP3    H262595   3.028   6.113  17.071  0.7367  0.2975  0.8939
13702TIP3   OH262596   3.839   0.275  14.582  0.7079 -0.1250 -0.1177
13702TIP3    H162597   3.878   0.263  14.495 -0.1586  0.4327 -0.5965
13702TIP3    H262598   3.885   0.213  14.637  0.9553 -0.8191 -1.0788
13703TIP3   OH262599   0.991   1.957  10.702  0.7056  0.1157  0.7725
13703TIP3    H162600   0.970   1.865  10.719  0.3712  0.3122  1.4440
13703TIP3    H262601   1.084   1.964  10.723  0.7340 -0.0720  0.7141
13704TIP3   OH262602   5.383   4.177  12.884  0.6687 -0.3895  0.2457
13704TIP3    H162603   5.397   4.119  12.959  0.4522  0.4199  0.9240
13704TIP3    H262604   5.412   4.125  12.808  1.4782 -0.9971  0.9456
13705TIP3   OH262605   0.621   0.802  14.990 -0.0509  0.0466  0.6268
13705TIP3    H162606   0.635   0.854  14.910  0.9620  0.1930  0.8851
13705TIP3    H262607   0.600   0.714  14.958 -1.1749  0.4596  0.1917
13706TIP3   OH262608   1.714   0.391  13.690 -0.2598 -0.3062 -0.1049
13706TIP3    H162609   1.660   0.404  13.612 -1.8421 -0.7997  0.8597
13706TIP3    H262610   1.772   0.318  13.667 -1.9230 -1.6348 -0.2491
13707TIP3   OH262611   5.267   6.464  16.501  0.4099  0.0803  0.1049
13707TIP3    H162612   5.260   6.524  16.427  3.0020  0.7552  0.3097
13707TIP3    H262613   5.216   6.387  16.475  1.0909  0.3817 -2.3101
13708TIP3   OH262614   0.018   2.057  11.482  0.2373 -0.3652 -0.4307
13708TIP3    H162615  -0.026   2.129  11.438 -0.1017 -0.3871 -0.1356
13708TIP3    H262616   0.047   2.094  11.566 -0.0502 -0.6027 -0.2226
13709TIP3   OH262617   3.106   2.333   0.385  0.1185  0.1333  0.1215
13709TIP3    H162618   3.025   2.358   0.342  1.3333  3.2426 -0.6419
13709TIP3    H262619   3.145   2.268   0.327 -2.9388 -3.5982  1.8760
13710TIP3   OH262620   5.769   5.522   4.457  0.3331  0.9155 -0.6649
13710TIP3    H162621   5.760   5.583   4.383  1.2251  1.6526 -0.1803
13710TIP3    H262622   5.833   5.458   4.427  0.2564  0.8750 -0.7444
13711TIP3   OH262623   1.067   5.074   2.165 -0.0425  0.3940  0.1361
13711TIP3    H162624   1.051   5.163   2.194 -1.0785  0.1278  0.4358
13711TIP3    H262625   1.158   5.056   2.190  0.1831  1.3594  0.0424
13712TIP3   OH262626   3.843   1.268   5.370 -0.3284 -0.0941 -0.2014
13712TIP3    H162627   3.801   1.198   5.420 -2.8182  1.2978 -0.1696
13712TIP3    H262628   3.917   1.294   5.424 -1.1810 -0.6495  1.3263
13713TIP3   OH262629   6.790   6.582   6.130  0.3174  0.8321  0.3624
13713TIP3    H162630   6.859   6.593   6.064 -1.0568  1.8681 -0.9788
13713TIP3    H262631   6.793   6.662   6.182  0.3598  0.7239  0.5255
13714TIP3   OH262632   6.295   0.898   2.221 -0.5172  0.4011 -0.0383
13714TIP3    H162633   6.350   0.882   2.144 -1.0037 -1.6172 -0.0367
13714TIP3    H262634   6.288   0.993   2.227  0.6936  0.6325 -1.6455
13715TIP3   OH262635   0.853   0.512  16.186 -0.0208  0.2333  0.3526
13715TIP3    H162636   0.777   0.570  16.189  0.8393  1.4654 -0.6281
13715TIP3    H262637   0.816   0.426  16.168 -1.1465  0.9876 -1.2160
13716TIP3   OH262638   5.187   0.274  16.096  0.4878 -0.4101 -0.0438
13716TIP3    H162639   5.246   0.349  16.103  1.5425 -1.3419  1.5662
13716TIP3    H262640   5.244   0.199  16.082 -0.3718 -1.2122  0.6265
13717TIP3   OH262641   0.901   0.738  11.701  0.3624 -0.0551 -0.4482
13717TIP3    H162642   0.979   0.765  11.651  0.4467  1.3105  0.3670
13717TIP3    H262643   0.854   0.820  11.716 -0.5712 -0.7048  0.1816
13718TIP3   OH262644   2.564   0.997   5.839  0.3085 -0.7318 -0.5148
13718TIP3    H162645   2.541   1.026   5.927  0.1728 -1.0729 -0.4343
13718TIP3    H262646   2.655   0.969   5.846  0.7604  0.5895 -0.8258
13719TIP3   OH262647   0.994   0.587   3.251  0.2620 -0.4222  0.0930
13719TIP3    H162648   0.972   0.677   3.227 -3.0831 -1.4076 -1.1640
13719TIP3    H262649   1.065   0.595   3.314 -0.8585  3.1758  1.1212
13720TIP3   OH262650   0.573   5.821   3.027 -0.2126  0.5889  0.3985
13720TIP3    H162651   0.665   5.806   3.006 -0.3634  0.5656 -0.2495
13720TIP3    H262652   0.550   5.750   3.087 -0.0532  0.0591 -0.1632
13721TIP3   OH262653   5.883   1.460  12.286  0.6065 -0.1994  0.0581
13721TIP3    H162654   5.820   1.491  12.221  1.0537  2.1125  0.6364
13721TIP3    H262655   5.830   1.423  12.356 -0.0772  1.0078  0.1874
13722TIP3   OH262656   5.506   6.426  15.077 -0.3125 -0.9963 -0.2524
13722TIP3    H162657   5.524   6.456  15.166 -0.0005 -1.2006 -0.2456
13722TIP3    H262658   5.506   6.330  15.084 -0.5309 -1.0084 -0.4241
13723TIP3   OH262659   2.146   3.254   0.016 -0.0952  0.3535  0.0637
13723TIP3    H162660   2.144   3.222  -0.074  1.4308 -0.8843  0.4240
13723TIP3    H262661   2.061   3.295   0.029 -0.1302  1.0702 -2.1082
13724TIP3   OH262662   6.422   1.186   2.495 -0.7260  0.3257  0.4730
13724TIP3    H162663   6.489   1.218   2.554 -1.5474 -3.1919  3.6515
13724TIP3    H262664   6.339   1.212   2.535 -1.3011 -1.4944  0.5759
13725TIP3   OH262665   6.698   2.450  16.671 -0.1095  0.3208 -0.2847
13725TIP3    H162666   6.733   2.425  16.585  1.3864  0.0968  0.3559
13725TIP3    H262667   6.688   2.367  16.717  0.1252  0.5241  0.1303
13726TIP3   OH262668   1.867   6.217   2.234  0.2943 -0.5259 -0.0207
13726TIP3    H162669   1.949   6.166   2.233  0.0002 -1.0032 -0.8055
13726TIP3    H262670   1.853   6.241   2.143 -0.1843 -0.0064  0.1868
13727TIP3   OH262671   3.927   4.160   5.384 -0.2352  0.5851  0.7903
13727TIP3    H162672   3.943   4.071   5.414 -0.1170 -0.0673 -1.0683
13727TIP3    H262673   3.837   4.158   5.350  0.0001  0.9791  0.1227
13728TIP3   OH262674   4.302   2.053  14.085  0.1971 -0.4537 -0.1314
13728TIP3    H162675   4.336   1.977  14.039 -0.9482 -0.2172 -1.4207
13728TIP3    H262676   4.266   2.110  14.017  0.9397  1.2207  0.7985
13729TIP3   OH262677   4.476   5.542   3.721  0.3147  0.2307  0.6098
13729TIP3    H162678   4.467   5.449   3.744 -0.3134 -0.0413 -0.6481
13729TIP3    H262679   4.393   5.581   3.746 -0.6802 -0.2199 -1.7228
13730TIP3   OH262680   3.273   3.741   5.942 -0.8770  0.0881 -0.1164
13730TIP3    H162681   3.239   3.722   6.029  1.5979  0.2586  0.9655
13730TIP3    H262682   3.368   3.735   5.951 -0.3732  3.0437 -2.0895
13731TIP3   OH262683   1.549   5.980  16.497  0.2864  0.6515 -0.2595
13731TIP3    H162684   1.500   6.059  16.518  1.9027  1.8836 -0.8647
13731TIP3    H262685   1.624   6.011  16.447  0.9755 -1.2811 -0.5237
13732TIP3   OH262686   6.199   4.650  11.927 -0.0437 -1.0202  0.2580
13732TIP3    H162687   6.271   4.630  11.986 -0.4686 -0.0386  1.1459
13732TIP3    H262688   6.140   4.705  11.978 -0.4807 -0.2096 -1.0574
13733TIP3   OH262689   2.402   0.785   1.556 -0.4835 -0.9754 -0.0448
13733TIP3    H162690   2.353   0.819   1.481 -0.1224 -1.3746 -0.4669
13733TIP3    H262691   2.338   0.784   1.627 -0.7554 -0.3170 -0.2644
13734TIP3   OH262692   4.219   0.344   6.304 -0.9025 -0.2174  0.0997
13734TIP3    H162693   4.268   0.409   6.254 -0.1073 -0.6380  0.3193
13734TIP3    H262694   4.263   0.261   6.286 -0.6108 -0.3851  1.4588
13735TIP3   OH262695   6.811   1.102  14.553 -0.0358  0.2624  0.4523
13735TIP3    H162696   6.775   1.185  14.583 -0.1112 -0.1878  1.6766
13735TIP3    H262697   6.751   1.074  14.483  0.8343  1.9140 -1.0365
13736TIP3   OH262698   6.540   4.148   2.469 -0.0992 -0.1044 -0.1883
13736TIP3    H162699   6.451   4.174   2.494  0.4427  1.0180  0.6732
13736TIP3    H262700   6.575   4.224   2.422  0.6414 -0.2735  0.0785
13737TIP3   OH262701   1.814   3.838   4.474 -0.2133 -0.1858  0.2082
13737TIP3    H162702   1.862   3.754   4.469 -0.2119 -0.1962  0.3773
13737TIP3    H262703   1.723   3.814   4.459 -0.1609 -0.1596 -0.1662
13738TIP3   OH262704   0.319   0.177  11.395 -0.0761 -0.0610  0.7784
13738TIP3    H162705   0.327   0.266  11.428  0.1143  0.0837  0.3517
13738TIP3    H262706   0.249   0.138  11.447 -1.7521  1.0472 -0.5321
13739TIP3   OH262707   5.012   2.627  13.298 -0.1780 -1.3757  0.0433
13739TIP3    H162708   5.084   2.680  13.334 -1.2755 -0.3331  0.7639
13739TIP3    H262709   4.983   2.572  13.371 -2.6162  0.9655  0.9952
13740TIP3   OH262710   6.353   5.238  15.603 -0.6946 -0.3276  0.0017
13740TIP3    H162711   6.265   5.199  15.601 -0.4316 -0.9179 -1.1647
13740TIP3    H262712   6.351   5.297  15.678 -2.2689  0.0765 -0.3133
13741TIP3   OH262713   6.518   4.373   3.332  0.1067 -0.0437 -0.0953
13741TIP3    H162714   6.530   4.330   3.417  0.1347 -0.3744 -0.2694
13741TIP3    H262715   6.474   4.455   3.354 -2.1284 -1.2015  0.0048
13742TIP3   OH262716   4.873   4.827   1.375  0.1884 -0.4664  0.7518
13742TIP3    H162717   4.967   4.821   1.359 -0.0705 -1.8022 -0.5109
13742TIP3    H262718   4.861   4.911   1.419  1.5710  1.3522 -2.0991
13743TIP3   OH262719   4.341   6.677   1.875  0.5518 -0.0031  0.4725
13743TIP3    H162720   4.284   6.652   1.948 -0.6640 -2.0127 -1.0702
13743TIP3    H262721   4.425   6.636   1.897  0.4297  0.0827  1.1292
13744TIP3   OH262722   6.624   2.884   0.157  0.6337  0.3989  0.0318
13744TIP3    H162723   6.665   2.847   0.235  1.1500 -2.1992 -1.3559
13744TIP3    H262724   6.531   2.862   0.166  0.7476 -0.2043 -0.2216
13745TIP3   OH262725   2.578   4.214  16.264 -0.1181 -0.0284 -0.1465
13745TIP3    H162726   2.491   4.183  16.240  0.3981 -1.2449 -0.5374
13745TIP3    H262727   2.602   4.162  16.341  0.8034 -0.7072 -0.8656
13746TIP3   OH262728   0.832   1.390  13.499  0.4627  0.3981  0.0037
13746TIP3    H162729   0.926   1.404  13.492  0.7409 -0.2631  1.8676
13746TIP3    H262730   0.810   1.416  13.589 -1.3904  1.7997 -0.7886
13747TIP3   OH262731   6.197   2.889  11.889 -0.1524  0.3497  0.4508
13747TIP3    H162732   6.279   2.863  11.845  1.1345  0.0310  2.8570
13747TIP3    H262733   6.212   2.979  11.916 -1.2339  0.7981 -0.3806
13748TIP3   OH262734   2.165   3.581   1.562  0.2296 -0.0886 -0.0077
13748TIP3    H162735   2.131   3.492   1.550  0.6502 -0.5421  1.9554
13748TIP3    H262736   2.228   3.574   1.633  0.5607  1.7269 -0.0720
13749TIP3   OH262737   0.989   3.573  16.354 -0.5430 -0.7927  0.0306
13749TIP3    H162738   1.033   3.640  16.406  0.3017  0.4586 -2.1339
13749TIP3    H262739   1.037   3.492  16.372  1.2274  0.0902 -0.5088
13750TIP3   OH262740   4.220   6.524   1.209 -0.2801  0.5234 -0.3606
13750TIP3    H162741   4.177   6.446   1.175  1.8903 -1.6323  1.4487
13750TIP3    H262742   4.170   6.546   1.288  0.0219  0.0068 -0.0240
13751TIP3   OH262743   1.086   5.950   3.106 -0.2284  0.0083  0.6140
13751TIP3    H162744   1.164   5.971   3.157  0.9129 -1.8817 -0.2478
13751TIP3    H262745   1.019   5.929   3.171  0.0004  1.4390  1.3556
13752TIP3   OH262746   4.394   2.686  15.461 -0.0045 -0.0060 -0.2331
13752TIP3    H162747   4.301   2.701  15.443 -0.0083 -1.1378 -1.3248
13752TIP3    H262748   4.406   2.592  15.448  1.0820 -0.0796  0.9968
13753TIP3   OH262749   2.923   6.075   3.625  0.3398 -0.1145  0.0580
13753TIP3    H162750   2.902   6.135   3.553 -1.2832  0.1749  0.7224
13753TIP3    H262751   2.993   6.119   3.673 -0.8864  1.3548  0.5952
13754TIP3   OH262752   5.755   4.270  15.543 -0.1134  0.3355 -0.1309
13754TIP3    H162753   5.690   4.200  15.545 -1.8301  1.8456  0.1717
13754TIP3    H262754   5.800   4.259  15.460  0.4133 -1.7211  0.3681
13755TIP3   OH262755   2.824   4.703   2.798  0.2076 -0.4698  0.1311
13755TIP3    H162756   2.830   4.722   2.892 -3.1217  0.0310  0.3444
13755TIP3    H262757   2.785   4.782   2.760 -0.0835 -1.3117 -1.4054
13756TIP3   OH262758   5.776   3.129   3.714  0.6048 -0.4465 -0.2892
13756TIP3    H162759   5.727   3.048   3.701  0.5841 -0.2521 -1.5129
13756TIP3    H262760   5.712   3.199   3.701  0.2138 -0.1731  2.3728
13757TIP3   OH262761   0.584   5.721   0.009 -0.1663 -0.3522 -0.2515
13757TIP3    H162762   0.573   5.629  -0.017 -0.4561 -0.4094  0.0726
13757TIP3    H262763   0.568   5.722   0.103 -0.1560  0.0312 -0.2519
13758TIP3   OH262764   4.403   1.015  10.872  0.4733 -0.4184  0.1906
13758TIP3    H162765   4.330   0.963  10.838 -0.5082  0.4734  0.8760
13758TIP3    H262766   4.473   0.951  10.885 -0.2499 -1.3347 -0.2889
13759TIP3   OH262767   4.690   4.746   4.981  0.2629 -0.0304 -0.2198
13759TIP3    H162768   4.623   4.682   4.956 -0.5466 -0.2794  2.3121
13759TIP3    H262769   4.755   4.694   5.029  0.8241  0.6710 -0.2072
13760TIP3   OH262770   6.296   2.911  12.822  0.4249 -0.0724  0.4354
13760TIP3    H162771   6.285   2.974  12.893 -0.1120  2.8118 -2.0046
13760TIP3    H262772   6.374   2.861  12.846  1.7130  2.4525  1.9159
13761TIP3   OH262773   3.443   6.643  13.074 -0.5029  0.3937  0.3922
13761TIP3    H162774   3.354   6.612  13.090  0.1143 -0.7061  1.9199
13761TIP3    H262775   3.484   6.574  13.021 -0.1172  0.1585  0.9875
13762TIP3   OH262776   2.965   4.491   3.982  0.7201 -0.0192 -0.3639
13762TIP3    H162777   2.916   4.573   3.977  1.7440  0.5334 -1.4610
13762TIP3    H262778   3.057   4.516   3.978  1.0541 -1.2241 -0.7713
13763TIP3   OH262779   3.473   0.329  14.561 -0.1506 -0.0985 -0.8335
13763TIP3    H162780   3.380   0.312  14.542 -0.3115 -0.3284  0.0763
13763TIP3    H262781   3.520   0.281  14.494 -0.6911 -0.5314 -0.9146
13764TIP3   OH262782   5.666   1.269  16.270  0.2584  0.0034  0.9764
13764TIP3    H162783   5.727   1.208  16.311 -0.8519 -0.6303  1.7513
13764TIP3    H262784   5.689   1.267  16.177  1.2088 -0.4422  1.2049
13765TIP3   OH262785   0.873   1.703   5.998 -0.2502 -0.1444 -0.0435
13765TIP3    H162786   0.960   1.719   6.034 -0.6556  0.5423  0.6946
13765TIP3    H262787   0.815   1.713   6.074 -0.7485 -3.5688  0.1677
13766TIP3   OH262788   4.931   0.708  11.294 -0.2149  0.2168 -0.2536
13766TIP3    H162789   4.925   0.803  11.301 -1.2062  0.1056  0.7415
13766TIP3    H262790   4.929   0.678  11.385 -0.0524 -0.7629 -0.5667
13767TIP3   OH262791   1.322   4.599  10.946  0.0885 -0.6170 -0.3993
13767TIP3    H162792   1.240   4.623  10.902  0.5594  0.6636 -0.5934
13767TIP3    H262793   1.343   4.513  10.909 -1.5110 -1.2950  0.1510
13768TIP3   OH262794   5.130   4.330  15.332  0.0949 -0.5875  0.3780
13768TIP3    H162795   5.216   4.362  15.304  0.2975 -0.1841  1.4256
13768TIP3    H262796   5.069   4.397  15.300  0.1933 -0.7415 -0.1404
13769TIP3   OH262797   2.295   6.277  16.372 -0.5011 -0.0748  0.3484
13769TIP3    H162798   2.342   6.332  16.434 -1.1142 -1.7770  2.4580
13769TIP3    H262799   2.336   6.295  16.288  0.0164  2.7404  1.0945
13770TIP3   OH262800   5.140   1.411   4.619 -0.8292 -0.2404  0.2579
13770TIP3    H162801   5.094   1.337   4.658 -0.3061 -1.6065 -1.5583
13770TIP3    H262802   5.233   1.387   4.625 -0.6990 -0.1481 -1.0588
13771TIP3   OH262803   6.002   5.875   1.501 -0.5522  0.3923  0.1983
13771TIP3    H162804   5.945   5.812   1.457  0.5162 -1.4642  1.3213
13771TIP3    H262805   6.077   5.884   1.442 -0.0529 -0.5232  0.6748
13772TIP3   OH262806   5.266   4.628  12.368 -0.4617 -0.1738 -0.0990
13772TIP3    H162807   5.185   4.641  12.318 -0.4330 -1.3784 -0.5147
13772TIP3    H262808   5.237   4.603  12.455 -0.5130  2.0812  0.5771
13773TIP3   OH262809   4.691   0.357  13.230  0.2638 -0.3120 -0.2486
13773TIP3    H162810   4.596   0.353  13.234  0.2537 -0.3919 -0.5236
13773TIP3    H262811   4.721   0.276  13.271  0.1660 -1.1340 -1.7050
13774TIP3   OH262812   6.032   2.430   1.750 -0.5211 -0.3611 -0.1734
13774TIP3    H162813   5.961   2.442   1.812 -0.0550 -0.0389  0.3020
13774TIP3    H262814   6.100   2.491   1.778  0.4256 -1.5071  0.0939
13775TIP3   OH262815   4.905   6.227   1.257 -0.2398 -0.5268 -0.2669
13775TIP3    H162816   4.852   6.150   1.237 -0.9333  0.2860 -1.6494
13775TIP3    H262817   4.844   6.301   1.253 -0.3434 -0.0961  4.2187
13776TIP3   OH262818   2.173   0.273  10.188 -0.3342  0.0838  0.0040
13776TIP3    H162819   2.198   0.321  10.266  1.1586  2.5336 -1.8447
13776TIP3    H262820   2.159   0.341  10.121 -0.9669 -1.9209 -2.0317
13777TIP3   OH262821   2.617   1.798   2.756 -0.3618  0.1208 -0.5620
13777TIP3    H162822   2.571   1.832   2.833  1.7607  0.1636  0.7653
13777TIP3    H262823   2.550   1.749   2.708 -1.7551  0.0575  1.3248
13778TIP3   OH262824   2.360   0.829   1.152  0.5633 -0.3120 -0.3868
13778TIP3    H162825   2.447   0.862   1.127  0.1596  0.3683 -0.9393
13778TIP3    H262826   2.316   0.813   1.068  0.1968 -0.7665 -0.1075
13779TIP3   OH262827   6.247   2.365  16.040 -0.1851  0.5633  0.5459
13779TIP3    H162828   6.288   2.418  16.108  1.0370 -0.1404  0.3779
13779TIP3    H262829   6.156   2.396  16.037 -0.7600 -0.4939  3.6329
13780TIP3   OH262830   6.102   4.049   4.932 -0.1852 -0.5164  0.2099
13780TIP3    H162831   6.157   4.004   4.868 -1.1608 -0.4920 -0.6734
13780TIP3    H262832   6.051   4.112   4.881  1.0600  1.5533  1.4066
13781TIP3   OH262833   3.408   2.886  14.709  0.5090 -0.0837  0.0816
13781TIP3    H162834   3.424   2.802  14.752  0.3870  0.6359  1.5799
13781TIP3    H262835   3.404   2.864  14.615 -1.4876 -2.0744  0.5383
13782TIP3   OH262836   0.703   1.806  13.407  0.6356 -0.0420  0.6866
13782TIP3    H162837   0.612   1.782  13.425  0.8131 -2.0155 -0.6798
13782TIP3    H262838   0.734   1.846  13.488 -1.2243  0.0178  1.4201
13783TIP3   OH262839   1.155   1.908  11.300 -0.6057 -0.2962 -0.8235
13783TIP3    H162840   1.077   1.859  11.325 -0.4627 -0.3781 -0.5296
13783TIP3    H262841   1.156   1.904  11.204  0.5757 -2.7457 -0.7965
13784TIP3   OH262842   3.256   5.671  10.208  0.0311 -0.0486 -0.1956
13784TIP3    H162843   3.319   5.685  10.137 -2.0209  0.4502 -2.0542
13784TIP3    H262844   3.263   5.577  10.228 -0.8249 -0.7405 -2.6895
13785TIP3   OH262845   3.932   2.544   0.477 -1.1150 -0.2699  0.1568
13785TIP3    H162846   3.930   2.502   0.563 -0.3573 -1.0158 -0.1705
13785TIP3    H262847   3.872   2.491   0.424  0.8264 -1.8365 -0.6139
13786TIP3   OH262848   2.418   5.955   5.209  0.4780 -0.1102  0.4761
13786TIP3    H162849   2.424   5.861   5.226  2.1042 -0.0365  0.4586
13786TIP3    H262850   2.498   5.992   5.245  0.2101  1.1764 -0.1572
13787TIP3   OH262851   2.049   0.945  11.743  0.4609 -0.3597  0.8873
13787TIP3    H162852   2.032   0.885  11.815 -1.3602 -0.5383  0.3530
13787TIP3    H262853   2.096   1.018  11.783 -0.4936 -0.4694  2.2563
13788TIP3   OH262854   5.838   5.993  13.377 -0.0079 -0.1134  0.0670
13788TIP3    H162855   5.787   5.918  13.409  1.3984 -0.9879  0.3702
13788TIP3    H262856   5.902   5.954  13.317  0.8600  0.8222  0.3518
13789TIP3   OH262857   0.952   3.492  12.133 -0.0278  0.3674 -0.4575
13789TIP3    H162858   0.959   3.545  12.054  3.5980  0.4097 -0.2483
13789TIP3    H262859   0.910   3.550  12.197  1.4787  2.1325 -0.9868
13790TIP3   OH262860   4.520   5.456  15.918 -0.7167  0.1353  0.5878
13790TIP3    H162861   4.580   5.393  15.878  1.0404  0.3966  2.6068
13790TIP3    H262862   4.574   5.534  15.933 -2.4176  1.5721 -0.3658
13791TIP3   OH262863   2.962   2.292  11.817  0.2329 -0.4943 -0.5406
13791TIP3    H162864   2.874   2.308  11.851 -0.0304 -0.1045 -1.3885
13791TIP3    H262865   2.948   2.257  11.730  0.9308  2.2231 -1.8515
13792TIP3   OH262866   4.614   6.177  16.500  0.3254 -0.3726  0.4234
13792TIP3    H162867   4.659   6.096  16.475  0.2102 -1.6919  3.9304
13792TIP3    H262868   4.685   6.238  16.522  0.4092 -0.2531 -0.1729
13793TIP3   OH262869   0.077   3.886  15.003 -0.0795  0.2745 -0.7665
13793TIP3    H162870   0.162   3.913  15.039  0.0340 -0.8667 -0.1456
13793TIP3    H262871   0.087   3.895  14.908  1.2049 -1.0861 -0.7955
13794TIP3   OH262872   1.414   3.693  13.972  0.3541  0.2108 -0.3913
13794TIP3    H162873   1.369   3.610  13.954  0.8020  0.1473 -1.2974
13794TIP3    H262874   1.368   3.730  14.047  1.6125 -1.9790  1.5829
13795TIP3   OH262875   1.102   4.681   0.386  0.5900  0.9621 -0.0921
13795TIP3    H162876   1.075   4.737   0.313  1.9925  0.2840 -1.1750
13795TIP3    H262877   1.197   4.688   0.389  0.8878 -1.7126 -0.6284
13796TIP3   OH262878   0.535   5.787   0.258 -0.0039 -0.2113 -0.3554
13796TIP3    H162879   0.574   5.868   0.226  1.7489  0.2824  2.6553
13796TIP3    H262880   0.460   5.815   0.309  0.8276 -0.3738  1.0113
13797TIP3   OH262881   0.193   5.777   1.741  0.0392 -0.2291 -0.3532
13797TIP3    H162882   0.131   5.803   1.810 -0.1179  0.1270 -0.6238
13797TIP3    H262883   0.147   5.797   1.659  0.4823 -0.0232 -0.5576
13798TIP3   OH262884   0.605   4.497  11.550  0.2533 -0.0693  0.8781
13798TIP3    H162885   0.544   4.548  11.497 -0.6550 -1.0718  0.9294
13798TIP3    H262886   0.688   4.545  11.545 -0.2997  0.8167  0.0496
13799TIP3   OH262887   2.095   2.235   2.559 -0.4909  0.0895  0.8983
13799TIP3    H162888   2.111   2.325   2.586 -1.9648  0.4318  0.7229
13799TIP3    H262889   2.160   2.219   2.491 -0.2511  1.0400  0.8828
13800TIP3   OH262890   1.897   6.368   5.322  0.1656 -0.2030 -0.2865
13800TIP3    H162891   1.830   6.436   5.318  0.1086 -0.3184 -1.7487
13800TIP3    H262892   1.867   6.301   5.261  1.8276 -0.0305 -1.3737
13801TIP3   OH262893   4.880   5.916   4.505 -0.3547 -0.0914 -0.3163
13801TIP3    H162894   4.885   5.830   4.546  1.1869 -0.2073 -0.6872
13801TIP3    H262895   4.917   5.976   4.570 -1.1112  0.2649 -0.1926
13802TIP3   OH262896   3.279   0.638   1.923  0.3327  0.2991  0.4409
13802TIP3    H162897   3.372   0.658   1.934  0.2039  1.1358  0.0836
13802TIP3    H262898   3.235   0.721   1.939 -0.3064  0.0535 -0.0166
13803TIP3   OH262899   6.360   2.324   5.124 -0.3197  0.7873  0.4592
13803TIP3    H162900   6.354   2.234   5.157  0.3928  0.9651  1.1058
13803TIP3    H262901   6.390   2.375   5.199  0.8293  1.3001 -0.3200
13804TIP3   OH262902   0.218   1.087  14.611 -0.0109 -0.0027 -0.2293
13804TIP3    H162903   0.134   1.099  14.567  0.8805  0.9808 -1.7506
13804TIP3    H262904   0.229   0.992  14.615 -1.7011 -0.1922  1.0816
13805TIP3   OH262905   4.546   1.054   2.927  0.1388  0.4849  0.0584
13805TIP3    H162906   4.548   1.007   3.011  1.4733 -0.0577 -0.2592
13805TIP3    H262907   4.604   1.129   2.941  0.2554  0.4677 -0.3321
13806TIP3   OH262908   3.701   5.696   0.738 -0.1443  0.1267 -0.3091
13806TIP3    H162909   3.608   5.701   0.712 -0.5533 -1.5605  0.6837
13806TIP3    H262910   3.749   5.727   0.661 -1.5114  0.6379 -0.9920
13807TIP3   OH262911   3.480   1.240  15.423 -0.3896 -0.1775 -0.0119
13807TIP3    H162912   3.463   1.186  15.346  0.4857 -1.6606  0.7833
13807TIP3    H262913   3.404   1.225  15.480 -0.2729 -0.3597  0.0959
13808TIP3   OH262914   5.174   4.014   5.954 -0.4997  0.1342 -0.1079
13808TIP3    H162915   5.227   4.065   5.893 -0.5514  0.8297  0.4320
13808TIP3    H262916   5.149   4.075   6.022  0.6949 -0.9476  1.3744
13809TIP3   OH262917   5.920   3.457   3.175  0.2304 -0.2336  0.2978
13809TIP3    H162918   5.930   3.378   3.228  2.0271  1.5504  2.8270
13809TIP3    H262919   5.977   3.522   3.217 -1.2761  2.4859 -1.5586
13810TIP3   OH262920   3.635   5.610  11.881  0.2206  0.4225 -0.1097
13810TIP3    H162921   3.566   5.654  11.930 -0.5978 -0.7923 -0.1148
13810TIP3    H262922   3.601   5.521  11.867  1.0861  0.2852 -1.5468
13811TIP3   OH262923   2.534   5.621   1.778  0.2289  1.0620 -0.3795
13811TIP3    H162924   2.481   5.685   1.731 -2.4070 -0.4649  0.3084
13811TIP3    H262925   2.573   5.566   1.710  0.4717  1.8428 -0.8836
13812TIP3   OH262926   0.313   5.104   1.117 -0.7713 -0.1454 -0.4162
13812TIP3    H162927   0.368   5.026   1.114 -0.4646 -0.1142  1.9586
13812TIP3    H262928   0.237   5.078   1.168 -0.7706  1.0172  0.2215
13813TIP3   OH262929   4.025   5.054   1.997 -0.4604  0.3794  0.7266
13813TIP3    H162930   4.052   4.963   1.987  2.2278  1.3017 -1.7503
13813TIP3    H262931   3.932   5.049   2.021  0.1013 -2.9691  2.9061
13814TIP3   OH262932   5.691   2.055  11.808  0.1313 -0.0863 -0.2488
13814TIP3    H162933   5.666   1.963  11.817  0.5698 -0.1518  0.3133
13814TIP3    H262934   5.778   2.061  11.848 -0.1628  0.7031  0.3032
13815TIP3   OH262935   2.409   1.358  13.018 -0.1966  0.1469 -0.1966
13815TIP3    H162936   2.469   1.401  13.079  1.7765 -1.3331 -0.9655
13815TIP3    H262937   2.382   1.428  12.958 -0.7849  1.2403  1.2741
13816TIP3   OH262938   2.653   1.913  12.251 -0.0805  0.2713  0.7498
13816TIP3    H162939   2.747   1.891  12.253  0.2989  1.8181  1.2660
13816TIP3    H262940   2.645   1.988  12.310 -1.4277  0.9792 -0.2848
13817TIP3   OH262941   6.598   6.644  13.465  0.1633  0.0766 -0.1763
13817TIP3    H162942   6.522   6.603  13.505 -0.6267  1.6023 -0.0225
13817TIP3    H262943   6.565   6.684  13.385  0.5282  1.7137  0.4459
13818TIP3   OH262944   1.469   6.121  13.918 -0.2345 -0.2727 -0.2047
13818TIP3    H162945   1.409   6.193  13.897  0.0549 -0.4795 -1.8436
13818TIP3    H262946   1.414   6.056  13.961 -0.5759  0.7555  0.9706
13819TIP3   OH262947   5.007   1.983  14.286  0.0292 -0.2240  0.1296
13819TIP3    H162948   4.962   1.983  14.371 -0.1870 -1.1161  0.0230
13819TIP3    H262949   4.990   1.896  14.250  0.3087  0.0694 -0.7333
13820TIP3   OH262950   6.821   0.728   3.774  0.4766 -0.6019  0.0186
13820TIP3    H162951   6.842   0.808   3.821 -1.2119 -0.6057  0.8555
13820TIP3    H262952   6.892   0.718   3.710  1.3123  0.9238  0.6604
13821TIP3   OH262953   2.309   3.660   1.903  0.5621 -0.0842  0.1794
13821TIP3    H162954   2.359   3.730   1.946  0.6170  0.5614 -0.9000
13821TIP3    H262955   2.364   3.634   1.829  0.3390 -0.9753  0.3177
13822TIP3   OH262956   5.469   6.132  13.506 -0.2594  0.4018  0.6148
13822TIP3    H162957   5.411   6.072  13.460  0.0981  0.8594 -0.4594
13822TIP3    H262958   5.524   6.075  13.560 -0.6644 -0.1453  0.4612
13823TIP3   OH262959   6.571   2.051   3.335  0.1272 -0.2483 -0.3893
13823TIP3    H162960   6.644   2.113   3.337  0.7311 -0.9313 -0.7251
13823TIP3    H262961   6.495   2.104   3.358  0.8416  0.2960  0.8550
13824TIP3   OH262962   1.702   0.783   4.750 -0.0580  0.1591  0.2478
13824TIP3    H162963   1.649   0.710   4.782  0.9822 -0.6007  0.2945
13824TIP3    H262964   1.784   0.777   4.800  0.4174  0.7865 -0.4345
13825TIP3   OH262965   3.609   0.964   3.069  0.3523  0.0204  0.6017
13825TIP3    H162966   3.605   1.040   3.128 -0.3436  0.2784  0.2423
13825TIP3    H262967   3.522   0.923   3.077  0.0478  0.3733 -0.6288
13826TIP3   OH262968   1.611   0.221   4.486  0.2907 -0.3710  0.5449
13826TIP3    H162969   1.603   0.231   4.581  0.7416 -5.2602  1.3858
13826TIP3    H262970   1.698   0.255   4.466 -0.4424  2.3113  1.4251
13827TIP3   OH262971   2.103   4.976   0.021  0.1043  0.3492 -0.2984
13827TIP3    H162972   2.074   4.898   0.068 -0.7624 -0.6827 -2.4111
13827TIP3    H262973   2.196   4.961   0.004  0.5457  0.9507  1.4092
13828TIP3   OH262974   4.166   0.332  14.968 -0.1622 -0.1007  0.5360
13828TIP3    H162975   4.226   0.404  14.947  0.9401 -0.6243  1.8132
13828TIP3    H262976   4.166   0.328  15.064 -2.5227  0.1037  0.6106
13829TIP3   OH262977   3.824   4.281  15.760  0.0277  0.2688  0.0672
13829TIP3    H162978   3.890   4.288  15.829  0.1945 -1.0791  0.0731
13829TIP3    H262979   3.744   4.313  15.801 -0.0885 -1.3633  1.2388
13830TIP3   OH262980   4.355   6.790   2.483  0.1611  0.1845 -0.1579
13830TIP3    H162981   4.295   6.793   2.558  0.1559 -1.5842 -0.0438
13830TIP3    H262982   4.394   6.703   2.487 -0.0836 -0.0814 -2.3932
13831TIP3   OH262983   5.576   4.481  13.477  0.1820 -0.2488  0.0190
13831TIP3    H162984   5.666   4.461  13.500  0.2707  0.0767 -0.0387
13831TIP3    H262985   5.571   4.577  13.479 -0.1362 -0.2603 -0.0706
13832TIP3   OH262986   6.094   3.578   6.149  0.7292 -1.0171 -0.4678
13832TIP3    H162987   6.046   3.625   6.218  1.5624 -0.4757 -0.2371
13832TIP3    H262988   6.027   3.524   6.106 -0.2046  0.0968 -0.4991
13833TIP3   OH262989   4.707   4.135   4.441 -0.3129 -0.0101 -0.4159
13833TIP3    H162990   4.682   4.215   4.487  0.7792 -0.0729  0.3243
13833TIP3    H262991   4.658   4.138   4.359 -0.2879  1.4121 -0.3967
13834TIP3   OH262992   1.749   0.191  12.021  0.1930  0.3746 -0.1735
13834TIP3    H162993   1.816   0.163  12.083  1.4998  1.6241 -0.9518
13834TIP3    H262994   1.787   0.174  11.935 -0.7793  0.4704 -0.6343
13835TIP3   OH262995   6.228   5.154  12.970 -0.1247 -0.1107  0.0130
13835TIP3    H162996   6.179   5.087  13.017  0.9264 -2.6462 -2.1866
13835TIP3    H262997   6.161   5.206  12.925 -0.9705  0.5073  1.8834
13836TIP3   OH262998   1.116   0.091  15.730  0.3908 -0.2459  0.5233
13836TIP3    H162999   1.054   0.160  15.707 -0.4926 -0.4402  2.1348
13836TIP3    H263000   1.062   0.025  15.774  1.5736 -0.9643  0.9395
13837TIP3   OH263001   4.017   4.836  14.354  0.4058 -0.6886  0.5069
13837TIP3    H163002   3.984   4.751  14.382 -3.0889  0.5749  0.8072
13837TIP3    H263003   4.022   4.887  14.435  0.9918 -0.1796  0.1557
13838TIP3   OH263004   5.859   5.837  11.314 -0.6370  0.3361  0.0037
13838TIP3    H163005   5.845   5.920  11.267  0.1472  1.2340  1.2759
13838TIP3    H263006   5.860   5.863  11.407 -1.3809 -1.2579  0.4927
13839TIP3   OH263007   4.196   5.552   2.641  0.0135 -0.2312  1.0404
13839TIP3    H163008   4.271   5.607   2.621 -0.1577 -0.4536 -0.3481
13839TIP3    H263009   4.143   5.554   2.561 -0.5959 -1.4480  1.3886
13840TIP3   OH263010   4.564   4.799   1.532  0.4002  0.1816  0.1090
13840TIP3    H163011   4.645   4.757   1.562  0.0520  0.9610  2.4099
13840TIP3    H263012   4.586   4.893   1.531  0.0137  0.2658 -0.9485
13841TIP3   OH263013   0.611   4.116   1.715  0.0521  0.5141 -0.2520
13841TIP3    H163014   0.671   4.069   1.774 -0.6835  1.2279  1.1096
13841TIP3    H263015   0.655   4.199   1.697  0.4771  0.1167 -1.0929
13842TIP3   OH263016   1.491   2.288   5.784  0.0881  0.0303 -0.3956
13842TIP3    H163017   1.441   2.325   5.857 -1.5424 -0.2160 -1.3366
13842TIP3    H263018   1.483   2.354   5.715  0.2376 -0.4629 -0.8852
13843TIP3   OH263019   3.932   5.047  15.132  0.2615 -0.0748 -0.5234
13843TIP3    H163020   3.911   5.109  15.201  0.7025 -0.2255 -0.2491
13843TIP3    H263021   3.938   4.962  15.176  0.3657 -0.2012 -0.7747
13844TIP3   OH263022   5.934   6.390  15.104  0.2060  0.5038 -0.0789
13844TIP3    H163023   6.007   6.425  15.155 -0.2115 -0.1845  1.0225
13844TIP3    H263024   5.856   6.414  15.155 -0.2619  0.2881 -0.6883
13845TIP3   OH263025   5.930   4.269   1.292 -0.4490 -0.2204  0.7120
13845TIP3    H163026   6.013   4.301   1.259  0.2119 -1.8012  0.7186
13845TIP3    H263027   5.926   4.300   1.382 -1.5146  2.7569 -0.2504
13846TIP3   OH263028   0.156   0.229  16.023  0.1992  0.3258 -0.6905
13846TIP3    H163029   0.166   0.290  16.095 -1.0744 -2.3067  1.9115
13846TIP3    H263030   0.221   0.161  16.039  0.7710  0.2940 -2.8167
13847TIP3   OH263031   5.961   5.408   2.735 -0.2885  0.2015  0.3398
13847TIP3    H163032   5.943   5.483   2.791 -0.8588 -0.3414  0.9052
13847TIP3    H263033   6.052   5.419   2.708 -0.7581  1.8602 -0.7750
13848TIP3   OH263034   5.267   2.966  10.884  0.0479 -0.0751 -0.0395
13848TIP3    H163035   5.257   2.925  10.971 -0.3638 -0.3189 -0.1967
13848TIP3    H263036   5.355   2.941  10.856  0.0636 -0.2646  0.1738
13849TIP3   OH263037   3.774   6.249  13.869 -0.0611 -0.0823 -0.2513
13849TIP3    H163038   3.735   6.308  13.805 -0.0888 -0.2177 -0.3618
13849TIP3    H263039   3.720   6.170  13.865 -0.0953 -0.0708 -0.0205
13850TIP3   OH263040   4.076   5.946  13.974  0.4279 -0.4200 -0.3765
13850TIP3    H163041   4.052   6.024  13.923  0.8372 -0.7711 -1.1240
13850TIP3    H263042   4.172   5.950  13.979  0.3681 -0.2198  0.6464
13851TIP3   OH263043   4.223   0.039  12.982  0.1724 -0.1482 -0.4437
13851TIP3    H163044   4.164   0.013  13.053  1.2268  0.4876  0.7293
13851TIP3    H263045   4.191   0.125  12.955 -0.0136 -0.2288 -0.4804
13852TIP3   OH263046   5.073   2.478  12.483  0.1218  0.6051 -0.1209
13852TIP3    H163047   5.143   2.472  12.548 -0.0745  0.8273  0.1134
13852TIP3    H263048   5.068   2.390  12.445 -0.5618  0.1340  1.0081
13853TIP3   OH263049   5.110   6.269   0.767  0.0957  0.2711  0.2250
13853TIP3    H163050   5.016   6.273   0.746  0.5251 -0.0548 -2.0665
13853TIP3    H263051   5.147   6.344   0.721  0.9554  0.4726  1.2293
13854TIP3   OH263052   0.880   6.568  11.512 -0.2750 -0.2863  0.0637
13854TIP3    H163053   0.970   6.556  11.542 -0.7748 -1.0341  1.3086
13854TIP3    H263054   0.864   6.662  11.521 -0.4628 -0.4949  2.3824
13855TIP3   OH263055   6.150   3.459  15.068 -0.0287  0.1160 -0.2842
13855TIP3    H163056   6.158   3.486  15.160  1.3634  1.9766 -0.8972
13855TIP3    H263057   6.239   3.432  15.043 -0.1179  0.7654 -1.3885
13856TIP3   OH263058   6.015   3.928  16.853 -0.4341 -0.2010  0.3425
13856TIP3    H163059   5.957   4.000  16.828  0.2317  0.8020  1.5861
13856TIP3    H263060   5.979   3.895  16.935  0.1364 -0.3015  0.5547
13857TIP3   OH263061   5.808   2.181  12.724 -0.1257 -0.2483 -0.1826
13857TIP3    H163062   5.769   2.094  12.721 -3.1341  0.9115  1.3646
13857TIP3    H263063   5.764   2.230  12.654  1.1073  0.2501 -0.6547
13858TIP3   OH263064   4.824   0.261   2.579  0.0868  0.2954 -0.0258
13858TIP3    H163065   4.898   0.316   2.603 -0.0985  0.3269  0.4925
13858TIP3    H263066   4.747   0.308   2.612 -0.0951 -0.1384  0.1792
13859TIP3   OH263067   3.619   1.012  16.144  0.5510 -0.0899  0.2505
13859TIP3    H163068   3.632   1.067  16.067 -0.5374 -0.7652 -0.4488
13859TIP3    H263069   3.686   0.944  16.137  1.8822  1.1060  1.1030
13860TIP3   OH263070   4.527   5.165   0.229  0.3040 -0.1320 -0.0245
13860TIP3    H163071   4.476   5.156   0.149 -0.3554 -1.9765  0.5456
13860TIP3    H263072   4.467   5.205   0.292  0.0221 -0.9154  0.2168
13861TIP3   OH263073   6.352   4.144  11.164  0.4514 -0.5521  0.6172
13861TIP3    H163074   6.381   4.232  11.138  0.4472 -0.7991 -0.2566
13861TIP3    H263075   6.402   4.124  11.243  2.0803 -0.6421 -0.4056
13862TIP3   OH263076   3.756   1.240   2.644 -0.5686  0.5253 -0.2435
13862TIP3    H163077   3.667   1.275   2.641 -1.2265 -0.8873  1.1247
13862TIP3    H263078   3.768   1.213   2.735  0.1029 -2.1402 -1.0281
13863TIP3   OH263079   2.345   6.295  12.098  0.5127 -0.1377 -0.0120
13863TIP3    H163080   2.288   6.240  12.151  1.1516  0.0005  0.8629
13863TIP3    H263081   2.419   6.239  12.076  0.9784  0.2337  0.5510
13864TIP3   OH263082   5.466   5.516  15.176  0.5203 -0.1269  0.0072
13864TIP3    H163083   5.434   5.604  15.193  1.4570  0.2257  0.0069
13864TIP3    H263084   5.553   5.529  15.137  0.4917 -1.0358 -0.3834
13865TIP3   OH263085   5.021   5.199   0.479  0.1531 -0.3559 -0.3194
13865TIP3    H163086   4.938   5.160   0.508  0.0978 -0.3728 -0.4933
13865TIP3    H263087   5.039   5.155   0.395 -0.1798  0.3690 -0.7759
13866TIP3   OH263088   4.254   1.332   5.367 -0.3972  0.1512 -0.3438
13866TIP3    H163089   4.271   1.426   5.368 -1.5297  0.3656 -0.2043
13866TIP3    H263090   4.216   1.313   5.452  0.6187 -0.6068 -0.0398
13867TIP3   OH263091   4.099   0.618   4.063 -0.5753 -0.4820 -0.0547
13867TIP3    H163092   4.113   0.687   4.128 -1.7433  0.9157 -1.2068
13867TIP3    H263093   4.137   0.540   4.102 -0.9860  0.3698  2.1746
13868TIP3   OH263094   2.797   4.294   5.462 -0.4655 -0.4598  0.3928
13868TIP3    H163095   2.795   4.388   5.448  0.9512 -0.2875  1.1959
13868TIP3    H263096   2.749   4.257   5.387  2.2858  0.6889 -2.0876
13869TIP3   OH263097   0.080   6.727   2.516  0.2210  0.4407 -0.1989
13869TIP3    H163098   0.104   6.750   2.426  1.9057  1.9661  0.5657
13869TIP3    H263099  -0.009   6.759   2.527 -0.0305  0.1553 -1.3359
13870TIP3   OH263100   6.106   6.764   1.175 -0.3317 -0.7090  0.2989
13870TIP3    H163101   6.116   6.858   1.193 -2.4317 -0.5937  1.1233
13870TIP3    H263102   6.027   6.758   1.122  1.9799 -1.7137 -3.4378
13871TIP3   OH263103   1.277   4.114  12.172 -0.4900  0.2250 -0.9015
13871TIP3    H163104   1.221   4.140  12.098 -1.8644 -0.5776 -0.1914
13871TIP3    H263105   1.217   4.104  12.245  0.8061  0.6528  0.2571
13872TIP3   OH263106   1.904   4.198   3.830 -0.3819 -0.0502 -0.8855
13872TIP3    H163107   1.948   4.115   3.812 -0.7738 -0.3211 -0.6282
13872TIP3    H263108   1.948   4.232   3.908  0.6918  0.6641 -1.7927
13873TIP3   OH263109   3.692   0.133  16.498  0.4006  0.1458  0.1842
13873TIP3    H163110   3.735   0.097  16.576  0.6068  0.7055  0.3358
13873TIP3    H263111   3.763   0.147  16.435  0.2654 -0.1006 -0.0247
13874TIP3   OH263112   1.417   2.218  16.090 -0.0159 -0.4641  0.5564
13874TIP3    H163113   1.357   2.153  16.053 -0.3550 -0.3366  0.8801
13874TIP3    H263114   1.389   2.227  16.181 -2.5343  3.0187 -0.3661
13875TIP3   OH263115   3.005   2.316  12.659 -0.1545  0.0042 -0.0960
13875TIP3    H163116   3.015   2.223  12.682  1.3072 -0.2273 -1.4801
13875TIP3    H263117   2.911   2.332  12.668 -0.5163 -1.7377 -0.2333
13876TIP3   OH263118   3.668   2.562  13.166  0.2721  0.2467 -0.0700
13876TIP3    H163119   3.624   2.610  13.096  1.1217 -0.8185 -1.3866
13876TIP3    H263120   3.600   2.505  13.203 -0.0850  0.5073 -0.3244
13877TIP3   OH263121   2.911   3.439   1.518 -0.1368 -0.0362 -0.4705
13877TIP3    H163122   2.972   3.501   1.557 -0.8198  0.6610 -0.5008
13877TIP3    H263123   2.922   3.452   1.423  0.2534 -0.4939 -0.4937
13878TIP3   OH263124   3.262   0.177  13.716 -0.1350 -0.3293  0.1530
13878TIP3    H163125   3.336   0.117  13.721 -1.1097 -1.4542  1.6628
13878TIP3    H263126   3.289   0.253  13.767  1.1822  0.7258 -1.9287
13879TIP3   OH263127   4.480   4.375   2.862 -0.2162  0.5672 -0.2091
13879TIP3    H163128   4.428   4.443   2.819 -2.0970 -0.8879 -0.3748
13879TIP3    H263129   4.533   4.337   2.793 -2.7172 -1.2977 -1.2782
13880TIP3   OH263130   3.369   1.769  14.766  0.2473  0.0810  0.4135
13880TIP3    H163131   3.290   1.724  14.734  1.4968 -2.1806  0.2925
13880TIP3    H263132   3.383   1.840  14.704 -1.6108  0.4500  0.3656
13881TIP3   OH263133   0.799   3.657   5.069  0.3385 -0.7364  0.3351
13881TIP3    H163134   0.841   3.639   5.153  1.0611  0.2306  0.2008
13881TIP3    H263135   0.720   3.706   5.092  1.4570  1.1536  0.4083
13882TIP3   OH263136   4.622   2.516  11.790 -0.4326 -0.1483  0.0350
13882TIP3    H163137   4.664   2.443  11.835  2.3474  3.1186  3.4587
13882TIP3    H263138   4.533   2.518  11.826  0.0488 -0.8234  1.3395
13883TIP3   OH263139   4.750   2.443   3.340 -0.0928  0.6992  0.0506
13883TIP3    H163140   4.832   2.449   3.390  0.2304  1.5660 -0.5497
13883TIP3    H263141   4.729   2.534   3.319 -0.5062  0.3852 -0.9325
13884TIP3   OH263142   4.718   4.350   0.742 -0.0608 -0.5132  0.0945
13884TIP3    H163143   4.794   4.294   0.755  1.1796  0.9186 -0.6759
13884TIP3    H263144   4.688   4.329   0.653 -0.1223 -0.5375  0.1204
13885TIP3   OH263145   6.837   1.897  11.803 -0.6056  0.8515 -0.1446
13885TIP3    H163146   6.846   1.891  11.898 -1.7217  0.4213 -0.0581
13885TIP3    H263147   6.919   1.938  11.774 -0.1518  0.7704  0.9696
13886TIP3   OH263148   5.433   2.015   0.403 -0.4767 -0.7605  0.1341
13886TIP3    H163149   5.471   1.930   0.383 -0.0897 -0.6297  0.2854
13886TIP3    H263150   5.463   2.072   0.333 -0.4964 -0.6837  0.1876
13887TIP3   OH263151   1.545   1.162   2.131  0.1494  1.1088 -0.2742
13887TIP3    H163152   1.619   1.173   2.072  0.5151  0.4895  0.0615
13887TIP3    H263153   1.486   1.102   2.085  0.3707  0.7345 -0.0743
13888TIP3   OH263154   4.851   0.697  17.028  0.8459  0.2318  0.1504
13888TIP3    H163155   4.863   0.692  17.122 -2.4944  2.3038  0.8167
13888TIP3    H263156   4.877   0.786  17.005  0.3008  0.1962 -0.6542
13889TIP3   OH263157   2.671   2.099  16.673 -0.5245 -0.5157 -0.3874
13889TIP3    H163158   2.682   2.060  16.760 -0.1337  0.9402  0.2525
13889TIP3    H263159   2.751   2.151  16.660  0.3690 -2.2297 -2.4896
13890TIP3   OH263160   1.132   1.153  16.964 -0.1457  0.2205 -0.2897
13890TIP3    H163161   1.179   1.099  16.900 -1.6227  0.2976 -1.4806
13890TIP3    H263162   1.073   1.092  17.009 -1.7586  0.7726 -1.5799
13891TIP3   OH263163   1.702   5.235  14.761 -0.7332  0.6009  0.1488
13891TIP3    H163164   1.651   5.304  14.719 -1.2047  0.8459  1.0875
13891TIP3    H263165   1.635   5.175  14.796 -0.3606  0.3827  0.4945
13892TIP3   OH263166   1.539   1.811  11.320 -0.1415  0.4977 -0.1597
13892TIP3    H163167   1.533   1.845  11.230 -1.0653  0.3196 -0.1812
13892TIP3    H263168   1.490   1.729  11.317 -0.9537  0.9287  0.7002
13893TIP3   OH263169   5.404   6.663  16.617 -0.1516 -0.4639 -0.0961
13893TIP3    H163170   5.370   6.583  16.577 -0.6419 -0.7713  0.9148
13893TIP3    H263171   5.432   6.637  16.704 -0.1986  0.4483  0.2070
13894TIP3   OH263172   0.434   6.708  13.448  0.5900  1.0234  0.2318
13894TIP3    H163173   0.377   6.637  13.418 -0.6205  1.7611  0.6965
13894TIP3    H263174   0.461   6.753  13.368  3.1270 -1.1826 -0.2691
13895TIP3   OH263175   4.819   4.915  15.879  0.2479 -0.1168 -0.1661
13895TIP3    H163176   4.723   4.912  15.884  0.2624 -0.5329 -0.0493
13895TIP3    H263177   4.843   4.832  15.838  0.5585 -0.0047 -0.2094
13896TIP3   OH263178   3.829   0.277   1.018  0.3131  0.4198 -0.1480
13896TIP3    H163179   3.788   0.358   0.989 -0.0920  0.8684  1.5746
13896TIP3    H263180   3.854   0.293   1.109  0.2181 -1.3867  0.2431
13897TIP3   OH263181   0.677   0.735   3.131  0.0791 -0.1887  0.4810
13897TIP3    H163182   0.743   0.792   3.171 -0.4191  0.2974  0.6365
13897TIP3    H263183   0.707   0.721   3.042  0.0537  0.5854  0.3445
13898TIP3   OH263184   5.259   5.386  13.782  0.3362  0.1515 -0.3125
13898TIP3    H163185   5.312   5.465  13.772  0.7325  0.0844  1.0119
13898TIP3    H263186   5.322   5.315  13.783  0.0923 -0.0645 -0.2243
13899TIP3   OH263187   6.153   0.463   3.157 -0.7973 -0.0498 -0.8238
13899TIP3    H163188   6.079   0.409   3.128 -1.3251  1.0054 -1.5089
13899TIP3    H263189   6.226   0.435   3.102  0.1441 -3.0405  1.6636
13900TIP3   OH263190   0.371   4.466  11.817 -0.4084 -0.1393 -0.0417
13900TIP3    H163191   0.353   4.538  11.756  1.1134 -1.3903 -2.1407
13900TIP3    H263192   0.336   4.389  11.773  0.2861 -1.0143  0.9030
13901TIP3   OH263193   5.625   1.719  16.878  0.1901  0.1175 -0.2505
13901TIP3    H163194   5.622   1.739  16.785 -0.8169  0.1421 -0.2245
13901TIP3    H263195   5.641   1.625  16.883 -0.4042  0.0011 -0.4653
13902TIP3   OH263196   6.449   1.885  14.733  0.4110  0.0474  0.3654
13902TIP3    H163197   6.428   1.893  14.640  0.8872 -0.5624  0.2035
13902TIP3    H263198   6.534   1.843  14.736  1.1835  1.5731  1.0547
13903TIP3   OH263199   0.769   4.874  14.872  0.2667 -0.2020  0.1135
13903TIP3    H163200   0.699   4.883  14.808  0.8548  1.1771 -0.3752
13903TIP3    H263201   0.774   4.959  14.916  1.9713 -0.0727 -0.2440
13904TIP3   OH263202   3.000   5.069  14.120  0.2106  0.7232  0.2129
13904TIP3    H163203   3.046   5.153  14.115 -0.0320  1.0119  2.1171
13904TIP3    H263204   3.044   5.023  14.192 -1.7280  0.5490  1.3323
13905TIP3   OH263205   0.938   5.603   3.779  0.5113 -0.2405 -0.0694
13905TIP3    H163206   0.918   5.697   3.788  0.0411 -0.4290  0.9947
13905TIP3    H263207   1.016   5.601   3.724 -0.3411  0.7003 -1.3722
13906TIP3   OH263208   5.357   4.606  15.719  0.5566 -0.4141  0.0199
13906TIP3    H163209   5.432   4.554  15.693 -0.1642 -1.0742 -0.8199
13906TIP3    H263210   5.283   4.545  15.715 -0.1234  0.3798  0.1825
13907TIP3   OH263211   3.031   5.365   3.155 -0.3313 -0.0288  0.7932
13907TIP3    H163212   3.053   5.276   3.180  0.3813  0.0587  0.5079
13907TIP3    H263213   3.057   5.372   3.063  0.0138  0.6002  0.9320
13908TIP3   OH263214   6.375   1.904   0.776 -0.1088 -0.3501 -0.0014
13908TIP3    H163215   6.422   1.827   0.743  0.2224  0.4149 -1.3620
13908TIP3    H263216   6.394   1.905   0.870  2.1512 -0.3964 -0.4005
13909TIP3   OH263217   4.521   5.369  11.467 -0.5468 -0.1150 -0.5126
13909TIP3    H163218   4.538   5.423  11.389  2.5937  0.4019  0.4154
13909TIP3    H263219   4.435   5.397  11.497 -1.6332  0.0554 -3.4429
13910TIP3   OH263220   6.562   1.542   0.574  0.2272  0.2765 -0.2928
13910TIP3    H163221   6.568   1.450   0.551 -1.6317 -0.4523  1.7798
13910TIP3    H263222   6.524   1.584   0.497 -0.2025 -0.9423 -0.7593
13911TIP3   OH263223   0.080   5.385  16.962 -0.7412  0.1592 -0.0071
13911TIP3    H163224   0.063   5.296  16.930 -0.8421  0.2824 -0.2938
13911TIP3    H263225   0.123   5.371  17.047  0.6604 -0.1950 -0.7321
13912TIP3   OH263226   3.450   6.333  16.635  0.7649  0.3246  0.1148
13912TIP3    H163227   3.546   6.336  16.634  0.8012 -0.4765  0.4805
13912TIP3    H263228   3.428   6.278  16.710  0.0179  0.3937 -0.0418
13913TIP3   OH263229   3.897   4.758   5.489  0.5708  0.5393  0.2114
13913TIP3    H163230   3.921   4.666   5.476 -1.2810  0.0953 -0.4082
13913TIP3    H263231   3.864   4.762   5.579 -0.9257  0.1832 -0.2915
13914TIP3   OH263232   0.955   1.930   3.895  0.8788 -0.1477 -0.3180
13914TIP3    H163233   1.001   1.899   3.817  1.2606  1.1157 -0.6139
13914TIP3    H263234   0.967   1.859   3.959 -0.4512 -1.7430 -1.7383
13915TIP3   OH263235   2.872   4.887   1.079  0.2393  0.5550  0.5484
13915TIP3    H163236   2.801   4.869   1.017  1.8010 -0.4654 -1.0630
13915TIP3    H263237   2.829   4.893   1.164 -1.6316 -1.4959 -0.1530
13916TIP3   OH263238   5.018   6.825  16.159 -0.4540  0.4442 -0.3024
13916TIP3    H163239   4.991   6.877  16.235  0.2547  0.5003 -0.0893
13916TIP3    H263240   4.972   6.866  16.086 -0.8733  0.6029  0.0386
13917TIP3   OH263241   1.362   1.304   1.918 -0.5689  1.1404 -0.8424
13917TIP3    H163242   1.317   1.220   1.921 -0.0154  0.8725  1.1514
13917TIP3    H263243   1.309   1.361   1.973  0.4675  1.3452 -0.0229
13918TIP3   OH263244   0.464   4.678  12.421 -0.0041 -0.0558 -0.0470
13918TIP3    H163245   0.549   4.637  12.435 -0.3595 -1.0654 -0.6606
13918TIP3    H263246   0.466   4.708  12.330 -0.0739  0.4767  0.1279
13919TIP3   OH263247   4.461   3.688   0.171  0.0996 -0.4014  0.4796
13919TIP3    H163248   4.476   3.593   0.170 -1.4097 -0.6741  1.4032
13919TIP3    H263249   4.373   3.698   0.206 -0.5758  1.2582 -1.5012
13920TIP3   OH263250   2.302   1.512  14.229 -0.7113 -0.3309  0.0875
13920TIP3    H163251   2.343   1.523  14.315 -0.2306 -0.1005 -0.1650
13920TIP3    H263252   2.346   1.435  14.192  0.2755  0.5401 -0.6169
13921TIP3   OH263253   3.789   6.065   4.547  0.2397 -0.0238  0.0633
13921TIP3    H163254   3.757   6.146   4.507  2.0101  0.3975 -0.5856
13921TIP3    H263255   3.740   5.995   4.503 -0.8267  0.6402  0.1588
13922TIP3   OH263256   5.427   1.597   0.361  0.0418  0.0515 -0.0606
13922TIP3    H163257   5.335   1.594   0.333  0.4148  0.5609 -1.4372
13922TIP3    H263258   5.458   1.508   0.350  0.2677  0.3074 -1.6619
13923TIP3   OH263259   0.459   1.903   6.138  0.0040 -0.0709 -0.1586
13923TIP3    H163260   0.516   1.827   6.140 -0.1248 -0.2367 -1.5618
13923TIP3    H263261   0.426   1.911   6.228  1.4536 -0.5442  0.4423
13924TIP3   OH263262   1.167   0.249  12.581 -0.2967  0.8126  0.5923
13924TIP3    H163263   1.100   0.286  12.523 -2.2635 -3.3861 -0.1450
13924TIP3    H263264   1.230   0.209  12.521  0.1349  0.3385  1.3565
13925TIP3   OH263265   6.837   3.191   1.960  0.2168 -0.1977  0.0076
13925TIP3    H163266   6.794   3.178   2.044 -0.3436  1.2881 -0.0137
13925TIP3    H263267   6.767   3.180   1.895  0.0659  1.1465 -0.0899
13926TIP3   OH263268   5.954   3.106   1.079 -0.3748  0.1262 -0.3035
13926TIP3    H163269   5.964   3.019   1.117  0.0764 -0.7250 -2.2612
13926TIP3    H263270   6.043   3.140   1.072 -0.2550 -0.4054 -1.9803
13927TIP3   OH263271   1.066   1.276  15.043 -0.5040  0.1095 -0.7539
13927TIP3    H163272   0.991   1.221  15.064 -0.8402  0.8131 -0.0523
13927TIP3    H263273   1.120   1.274  15.122 -0.1200  0.1424 -1.0125
13928TIP3   OH263274   3.587   0.596   5.415  0.2277  0.5211 -0.2522
13928TIP3    H163275   3.615   0.640   5.495 -2.5482 -1.0089  1.7203
13928TIP3    H263276   3.518   0.651   5.380 -0.5205 -0.2382  0.0121
13929TIP3   OH263277   4.941   3.380   1.568 -0.0254 -0.3030 -0.3350
13929TIP3    H163278   4.871   3.436   1.534 -1.0422 -0.3480  1.5391
13929TIP3    H263279   4.993   3.357   1.491  0.4468  3.1782 -1.2034
13930TIP3   OH263280   5.013   4.311   1.095 -0.1480  0.7079  0.0706
13930TIP3    H163281   5.076   4.372   1.134  0.0789 -0.5206  1.7033
13930TIP3    H263282   4.943   4.304   1.160 -0.2127 -0.7172 -0.1367
13931TIP3   OH263283   2.122   4.686   0.536  0.2498  0.2318 -0.1318
13931TIP3    H163284   2.048   4.714   0.482 -0.1728 -2.5521 -1.1302
13931TIP3    H263285   2.198   4.727   0.497 -0.1573 -1.0375 -2.4133
13932TIP3   OH263286   5.686   0.308  17.034  0.7169  0.0482  0.0450
13932TIP3    H163287   5.673   0.214  17.047  0.2262  0.2327  0.9944
13932TIP3    H263288   5.664   0.323  16.942  1.8327 -0.9326 -0.4056
13933TIP3   OH263289   4.258   6.416  14.922 -0.1203 -0.4378 -0.0372
13933TIP3    H163290   4.260   6.503  14.883 -0.8766 -0.7262 -0.7540
13933TIP3    H263291   4.272   6.431  15.015  0.0292  0.4175 -0.1874
13934TIP3   OH263292   1.214   2.489   3.805 -0.2253 -0.2878  0.3050
13934TIP3    H163293   1.176   2.565   3.761 -0.5587 -1.2167 -1.0707
13934TIP3    H263294   1.186   2.414   3.752  1.8924 -1.1941  0.3776
13935TIP3   OH263295   6.735   4.383  15.751 -0.4449  0.1430  0.2235
13935TIP3    H163296   6.699   4.296  15.768 -0.2894  0.2285  1.0468
13935TIP3    H263297   6.711   4.434  15.829 -0.9916  0.9835 -0.4762
13936TIP3   OH263298   1.996   1.714  13.280  0.6870  0.6281  0.3428
13936TIP3    H163299   2.000   1.667  13.197 -0.3574 -0.1143  0.6901
13936TIP3    H263300   1.903   1.714  13.304  1.2188 -1.9809  3.0214
13937TIP3   OH263301   5.869   0.299  11.692 -0.0217 -0.5232 -0.1245
13937TIP3    H163302   5.844   0.207  11.677  1.0913 -1.0113  0.7897
13937TIP3    H263303   5.849   0.313  11.785 -0.6014  0.3174 -0.3675
13938TIP3   OH263304   3.718   6.372  15.857 -0.0383  0.1222 -0.7512
13938TIP3    H163305   3.744   6.398  15.946 -1.0101  0.7824 -0.6427
13938TIP3    H263306   3.669   6.291  15.869 -1.9244  1.2524 -0.4162
13939TIP3   OH263307   6.145   4.265  13.403  0.3459 -0.6365  0.3296
13939TIP3    H163308   6.232   4.255  13.367  1.1549  1.0989  1.6577
13939TIP3    H263309   6.088   4.279  13.327  1.4510 -0.3742 -0.4630
13940TIP3   OH263310   0.940   1.662  13.963  0.0845  0.1067 -0.8913
13940TIP3    H163311   0.920   1.754  13.947 -0.9478 -0.3141 -2.1918
13940TIP3    H263312   1.001   1.663  14.037 -0.8687  1.7421 -0.0858
13941TIP3   OH263313   6.457   3.071   4.534  0.1462  0.3039 -0.4179
13941TIP3    H163314   6.487   3.147   4.485  0.9937  1.4988  1.8369
13941TIP3    H263315   6.537   3.029   4.565 -0.3679 -0.2981  0.1193
13942TIP3   OH263316   4.285   4.826  16.668  0.6700  0.0117  0.2684
13942TIP3    H163317   4.230   4.778  16.606  1.2582 -0.0231 -0.2381
13942TIP3    H263318   4.366   4.843  16.619 -0.2316  3.3024 -0.2922
13943TIP3   OH263319   5.137   1.752  14.862  0.7186 -0.3425  0.0014
13943TIP3    H163320   5.063   1.809  14.841  1.0430 -0.0778 -0.4487
13943TIP3    H263321   5.215   1.807  14.847  1.1399 -1.4614 -2.4545
13944TIP3   OH263322   0.185   3.605   2.171  0.2301 -0.1681 -0.1643
13944TIP3    H163323   0.248   3.616   2.100  1.2620 -1.3307  0.5352
13944TIP3    H263324   0.238   3.605   2.250 -0.9989  2.1444  0.7549
13945TIP3   OH263325   1.993   0.419  12.054  0.0371  0.1463 -0.0958
13945TIP3    H163326   2.041   0.480  11.999  0.0254  0.7495  0.5449
13945TIP3    H263327   1.940   0.368  11.993 -0.7542  1.4855 -0.5860
13946TIP3   OH263328   2.430   1.122  15.278 -0.0798  0.4591 -0.1231
13946TIP3    H163329   2.479   1.051  15.318 -2.7319 -1.7997 -0.5665
13946TIP3    H263330   2.460   1.124  15.187 -0.6494 -0.8472 -0.3699
13947TIP3   OH263331   6.597   5.145  16.456 -0.2706 -0.4022 -0.1130
13947TIP3    H163332   6.688   5.168  16.476 -0.4696  1.4586 -1.1848
13947TIP3    H263333   6.553   5.229  16.443 -1.7347 -1.3275 -1.3930
13948TIP3   OH263334   1.734   1.617   3.306  0.0609  0.6401  0.2278
13948TIP3    H163335   1.783   1.548   3.350  1.7335  1.6391 -0.0053
13948TIP3    H263336   1.660   1.634   3.365  0.4973 -0.2387  1.0642
13949TIP3   OH263337   4.803   1.012   0.124 -0.2756  0.2704 -0.1920
13949TIP3    H163338   4.836   0.989   0.037  0.4437  0.6792 -0.0353
13949TIP3    H263339   4.830   0.938   0.179 -0.7830 -0.0172 -0.3138
13950TIP3   OH263340   3.196   6.798   2.935  0.4021 -0.1958 -0.2114
13950TIP3    H163341   3.287   6.810   2.906  1.3844 -0.7216  2.3674
13950TIP3    H263342   3.180   6.870   2.996 -0.2455 -1.1432  0.7741
13951TIP3   OH263343   6.331   2.283   0.499  0.1027 -0.1550 -0.2666
13951TIP3    H163344   6.418   2.265   0.534  0.7901 -3.0485 -3.0195
13951TIP3    H263345   6.273   2.221   0.545 -0.0922  0.1887 -0.0459
13952TIP3   OH263346   2.582   2.767  13.915 -0.1487  0.1066  0.2703
13952TIP3    H163347   2.529   2.768  13.994 -3.2450 -0.4093 -1.6069
13952TIP3    H263348   2.566   2.681  13.876 -0.8804  1.2173 -2.1315
13953TIP3   OH263349   4.002   0.220   2.282 -0.5180 -0.4113  0.3716
13953TIP3    H163350   3.915   0.246   2.250 -0.9316 -1.0205  0.9549
13953TIP3    H263351   3.990   0.129   2.311  0.5912 -0.8610 -0.5224
13954TIP3   OH263352   0.778   5.468   0.941  0.4010 -0.1665  0.0062
13954TIP3    H163353   0.718   5.534   0.976  1.2883  1.6839 -1.7987
13954TIP3    H263354   0.841   5.517   0.889  1.5004 -2.3919 -0.9005
13955TIP3   OH263355   1.214   3.014  15.863  0.2969 -0.6006 -0.1124
13955TIP3    H163356   1.143   3.018  15.926 -1.1358 -0.1195 -1.7008
13955TIP3    H263357   1.288   2.977  15.912 -0.9732 -0.9360  1.6133
13956TIP3   OH263358   6.816   3.751   3.838  0.1335 -0.6922  0.6771
13956TIP3    H163359   6.770   3.740   3.755  0.2778 -0.8262  0.6126
13956TIP3    H263360   6.906   3.772   3.813  0.3149 -1.3057  0.7897
13957TIP3   OH263361   3.748   2.752   0.088 -0.2080  0.4010 -0.7630
13957TIP3    H163362   3.714   2.740   0.177  0.3183  0.1702 -0.5928
13957TIP3    H263363   3.680   2.804   0.044  0.6441  2.8000  0.5307
13958TIP3   OH263364   0.265   0.068  16.752  0.3488  0.3962 -0.4442
13958TIP3    H163365   0.244  -0.012  16.703 -0.6798  1.0539 -1.0953
13958TIP3    H263366   0.180   0.105  16.776  0.8120  1.4206 -0.3395
13959TIP3   OH263367   0.742   2.496   0.649 -0.6591  0.1521  0.1148
13959TIP3    H163368   0.746   2.575   0.704 -0.7332  0.3912 -0.2176
13959TIP3    H263369   0.651   2.468   0.655 -0.2509 -0.9496  1.6644
13960TIP3   OH263370   2.253   4.237  15.234  0.0809  0.2444  0.4020
13960TIP3    H163371   2.262   4.238  15.138  0.6636  1.7659  0.4403
13960TIP3    H263372   2.256   4.329  15.259 -1.2523 -0.0601  1.8019
13961TIP3   OH263373   2.975   3.443  13.932  0.9676  0.0425  0.2826
13961TIP3    H163374   2.980   3.349  13.948 -0.6404  0.0567  1.0255
13961TIP3    H263375   2.987   3.451  13.837 -1.1729 -1.1591 -0.1559
13962TIP3   OH263376   4.395   0.273  15.495  0.6031 -0.2135 -0.2313
13962TIP3    H163377   4.433   0.259  15.408 -0.4344  0.7035 -0.8636
13962TIP3    H263378   4.406   0.367  15.511 -1.5136  0.1245 -0.5225
13963TIP3   OH263379   1.104   4.442  14.981 -0.1281  0.1698 -0.2740
13963TIP3    H163380   1.197   4.425  14.997  0.6161  3.2029 -0.6908
13963TIP3    H263381   1.104   4.500  14.904 -2.2154  1.5825  0.6967
13964TIP3   OH263382   0.105   4.872   3.117  0.5472  0.0040  0.0965
13964TIP3    H163383   0.084   4.930   3.190  0.2658  0.6355 -0.4660
13964TIP3    H263384   0.019   4.844   3.084  0.6817 -0.8635  0.4526
13965TIP3   OH263385   1.244   5.931  10.682  0.0901 -0.2359 -1.0486
13965TIP3    H163386   1.191   5.939  10.603  0.6508 -1.4117 -1.5700
13965TIP3    H263387   1.288   6.016  10.690 -0.3705  0.0764 -1.6896
13966TIP3   OH263388   4.257   5.651  16.525 -0.3098 -0.4703  1.2340
13966TIP3    H163389   4.247   5.734  16.479 -1.6523 -0.7260  1.0233
13966TIP3    H263390   4.206   5.589  16.473 -1.4393 -0.8802  2.7510
13967TIP3   OH263391   5.844   6.596   0.079  0.1123  0.3905 -0.0112
13967TIP3    H163392   5.848   6.588   0.175 -1.6699 -1.1013 -0.0082
13967TIP3    H263393   5.762   6.553   0.055  0.8866  0.0739 -2.2980
13968TIP3   OH263394   5.590   6.784  10.635  0.1557 -0.1450 -0.0698
13968TIP3    H163395   5.625   6.796  10.723  0.0903 -1.8402  0.2196
13968TIP3    H263396   5.520   6.849  10.628  0.1132 -0.0395  1.1633
13969TIP3   OH263397   0.964   1.594  14.237 -0.1986 -0.1882 -0.2866
13969TIP3    H163398   0.935   1.671  14.286 -0.9459 -0.1631 -0.7681
13969TIP3    H263399   1.045   1.567  14.282 -0.8988 -0.2064  1.0040
13970TIP3   OH263400   6.256   3.382  12.320  0.4995 -0.3732  0.1759
13970TIP3    H163401   6.212   3.459  12.285  0.1334 -1.3712 -1.6616
13970TIP3    H263402   6.194   3.346  12.384 -0.7715 -0.8893 -1.2625
13971TIP3   OH263403   2.643   4.099   3.213 -0.0715 -0.4491 -0.1385
13971TIP3    H163404   2.622   4.177   3.265 -0.2701 -1.2719  1.0341
13971TIP3    H263405   2.691   4.134   3.138 -0.0434  0.7982  0.4216
13972TIP3   OH263406   6.645   5.217  14.881 -0.4122 -0.1838  0.0857
13972TIP3    H163407   6.729   5.261  14.893 -1.2090  0.8551  2.7727
13972TIP3    H263408   6.667   5.124  14.876  0.9412  0.1175  0.0377
13973TIP3   OH263409   5.535   4.204  14.897 -0.0617 -0.3692 -0.3374
13973TIP3    H163410   5.455   4.153  14.906  0.3864 -0.8359  1.5436
13973TIP3    H263411   5.600   4.142  14.866 -0.1147 -0.3263 -0.5321
13974TIP3   OH263412   2.100   2.848   1.011 -0.6195  0.5175  0.1198
13974TIP3    H163413   2.105   2.835   1.106  0.6070 -3.2387 -0.2614
13974TIP3    H263414   2.187   2.880   0.987 -0.7165  0.8313  0.1812
13975TIP3   OH263415   3.189   4.946  12.724 -0.5497 -0.4529  0.2243
13975TIP3    H163416   3.128   4.966  12.795 -1.1113 -0.1648 -0.3398
13975TIP3    H263417   3.213   5.031  12.688 -0.0152 -0.5787  0.2679
13976TIP3   OH263418   2.576   6.847   0.274 -0.2123  0.2265  0.0643
13976TIP3    H163419   2.506   6.876   0.216 -0.6840  0.7242  0.8628
13976TIP3    H263420   2.634   6.796   0.218 -0.4968  0.9366 -0.9054
13977TIP3   OH263421   5.143   3.808   4.781 -0.2648 -0.2233 -0.1906
13977TIP3    H163422   5.220   3.765   4.819  1.0226  1.0036 -1.3168
13977TIP3    H263423   5.135   3.771   4.693  0.2085  1.0188 -0.7749
13978TIP3   OH263424   0.539   0.266  12.612 -0.0406  0.3818  0.4308
13978TIP3    H163425   0.607   0.329  12.635 -0.6768  1.5842 -0.8443
13978TIP3    H263426   0.466   0.319  12.580 -0.5221 -1.0001 -0.9067
13979TIP3   OH263427   5.113   5.567  11.296  0.1010 -0.3196  0.4789
13979TIP3    H163428   5.184   5.568  11.232  0.5560 -1.1685  0.9502
13979TIP3    H263429   5.036   5.598  11.248  1.2615  3.0341  0.5795
13980TIP3   OH263430   0.143   3.934   1.319 -0.2163 -0.3209  0.2330
13980TIP3    H163431   0.171   3.953   1.229 -0.9381 -1.4629 -0.2538
13980TIP3    H263432   0.183   3.850   1.339 -0.2320 -0.1709  0.9187
13981TIP3   OH263433   6.279   2.870   5.322  0.0691  0.2749 -0.3812
13981TIP3    H163434   6.347   2.833   5.379 -1.9287 -1.5069  0.9928
13981TIP3    H263435   6.205   2.886   5.381 -2.0887 -1.6103 -2.3851
13982TIP3   OH263436   3.746   1.379  11.650  0.5519 -0.3700  0.0503
13982TIP3    H163437   3.801   1.364  11.573 -0.6553 -1.2067 -0.6795
13982TIP3    H263438   3.690   1.453  11.626  0.3122 -0.4989  0.2090
13983TIP3   OH263439   1.517   0.536  13.094 -0.7738 -0.6557  0.2939
13983TIP3    H163440   1.533   0.490  13.177 -0.6360  0.0657  0.6749
13983TIP3    H263441   1.437   0.496  13.059 -1.3772 -0.3089  1.2512
13984TIP3   OH263442   6.686   6.486  11.325  0.0415 -0.2402 -0.4601
13984TIP3    H163443   6.626   6.445  11.386  0.0785  0.7081  0.2356
13984TIP3    H263444   6.645   6.476  11.239 -0.6652 -0.3897 -0.1045
13985TIP3   OH263445   6.590   0.455  14.396  0.6110 -0.4789 -0.5371
13985TIP3    H163446   6.541   0.445  14.478  2.8039 -0.4831  0.8433
13985TIP3    H263447   6.524   0.440  14.327 -1.3540 -0.2281  1.1854
13986TIP3   OH263448   2.460   6.698   4.447  0.9150  0.7485 -0.3553
13986TIP3    H163449   2.475   6.693   4.541  3.6943 -0.1903 -0.7482
13986TIP3    H263450   2.437   6.609   4.421 -0.6245  1.1624 -0.4992
13987TIP3   OH263451   6.043   0.092  13.211 -0.1607 -0.2468 -0.3992
13987TIP3    H163452   6.116   0.030  13.223  0.2735  0.3848  0.2520
13987TIP3    H263453   6.050   0.118  13.119 -0.4922 -1.3362 -0.7516
13988TIP3   OH263454   4.856   2.835  11.350  0.7582  0.3109 -0.4983
13988TIP3    H163455   4.858   2.753  11.399  1.0714 -0.2867 -1.4809
13988TIP3    H263456   4.876   2.810  11.260  1.0506  1.4912 -0.7871
13989TIP3   OH263457   1.950   4.979   3.815 -0.5042  0.5264  0.0468
13989TIP3    H163458   1.873   4.924   3.827 -1.1204  0.7254 -2.4813
13989TIP3    H263459   2.023   4.924   3.842 -1.3051 -0.6898 -0.1808
13990TIP3   OH263460   5.826   2.677   1.737  0.3721  0.0260  0.6159
13990TIP3    H163461   5.811   2.599   1.791 -0.9182  0.9029  1.5806
13990TIP3    H263462   5.838   2.642   1.648  1.4922 -1.3648  1.2814
13991TIP3   OH263463   3.937   6.422  14.855  0.0335  0.1708 -0.1650
13991TIP3    H163464   3.989   6.429  14.775  0.4222  0.5738  0.1171
13991TIP3    H263465   3.985   6.358  14.909 -0.6489 -0.6960 -0.5677
13992TIP3   OH263466   1.145   3.726   0.208 -0.3001  0.0464  0.0682
13992TIP3    H163467   1.138   3.818   0.182 -2.2537 -0.1815 -0.3942
13992TIP3    H263468   1.212   3.690   0.151 -0.4169  0.8998 -0.6289
13993TIP3   OH263469   2.019   1.962   1.756 -0.6882 -0.1022  0.1199
13993TIP3    H163470   1.986   1.875   1.778  1.2952 -0.9290 -0.0155
13993TIP3    H263471   2.083   1.981   1.825 -1.4132  1.4712  0.4030
13994TIP3   OH263472   2.678   1.349   0.546 -0.0172  0.0648 -0.0050
13994TIP3    H163473   2.649   1.396   0.624  1.4645 -0.0650  0.6662
13994TIP3    H263474   2.598   1.329   0.498 -0.8955  0.7822  1.1179
13995TIP3   OH263475   4.388   0.113   2.832  0.2032 -0.2921 -0.0022
13995TIP3    H163476   4.362   0.203   2.854 -0.1735  0.0564 -1.7332
13995TIP3    H263477   4.311   0.060   2.854  0.3906 -0.2042  0.9345
13996TIP3   OH263478   3.551   4.182   0.588  0.6778 -0.0576  0.0285
13996TIP3    H163479   3.566   4.208   0.679  0.2380 -0.5974  0.2562
13996TIP3    H263480   3.574   4.089   0.585  0.1034 -0.1971 -0.2646
13997TIP3   OH263481   2.175   5.420  12.436  0.0854  0.0778 -0.2662
13997TIP3    H163482   2.227   5.348  12.471  0.7546  0.8216  0.3143
13997TIP3    H263483   2.199   5.425  12.344  1.0621  0.4081 -0.0061
13998TIP3   OH263484   4.973   2.927   0.236 -0.3467  0.1638 -0.0107
13998TIP3    H163485   4.942   2.965   0.155  1.4416  2.1194  0.1533
13998TIP3    H263486   4.971   2.998   0.300  1.6114 -0.3635  0.7280
13999TIP3   OH263487   1.537   0.026   1.230 -0.3058  0.6440  0.1755
13999TIP3    H163488   1.448   0.042   1.198  0.7145  1.2681 -2.6365
13999TIP3    H263489   1.541   0.074   1.313 -1.7421  3.0541 -1.0291
14000TIP3   OH263490   3.891   1.575  14.433  0.2718 -0.7043  0.0534
14000TIP3    H163491   3.987   1.580  14.433  0.2861 -0.9644  0.1091
14000TIP3    H263492   3.872   1.485  14.460  0.0403 -1.4011 -2.2052
14001TIP3   OH263493   5.287   3.663   4.959  0.8824  0.1487 -0.4765
14001TIP3    H163494   5.223   3.626   5.020 -0.2039  1.1607 -0.9637
14001TIP3    H263495   5.357   3.697   5.015 -0.1154  1.1076  0.2324
14002TIP3   OH263496   6.558   1.207  14.301  0.2095  0.0290 -0.2899
14002TIP3    H163497   6.592   1.267  14.367  1.6426 -0.9227 -0.1010
14002TIP3    H263498   6.586   1.245  14.218 -1.5784  1.2169 -0.3945
14003TIP3   OH263499   4.037   2.422  15.026 -0.8320  0.3565  0.4452
14003TIP3    H163500   3.994   2.415  14.940 -1.1350 -1.2717  0.6951
14003TIP3    H263501   4.082   2.506  15.024 -0.8541  0.3535 -1.3059
14004TIP3   OH263502   4.825   3.195  16.792 -0.0196  0.0695  0.2730
14004TIP3    H163503   4.918   3.214  16.782 -0.2068  1.5581  1.1476
14004TIP3    H263504   4.783   3.281  16.800 -1.4687 -0.5735 -0.0161
14005TIP3   OH263505   5.524   3.018   5.726  0.0708 -0.3024  0.9752
14005TIP3    H163506   5.547   3.104   5.692  0.1257 -0.0132  1.7212
14005TIP3    H263507   5.432   3.025   5.749 -1.2448 -1.7653 -2.9733
14006TIP3   OH263508   5.518   2.703  12.984  0.5377  0.5966 -0.1840
14006TIP3    H163509   5.602   2.740  12.958  1.0756 -1.3959 -1.5183
14006TIP3    H263510   5.462   2.713  12.906  0.0413  0.4940  0.1546
14007TIP3   OH263511   1.441   6.309   4.810 -0.6104 -0.2080 -0.1494
14007TIP3    H163512   1.427   6.347   4.723 -1.8791  2.7327  1.2146
14007TIP3    H263513   1.533   6.284   4.811  0.1214  2.1607 -1.4870
14008TIP3   OH263514   0.524   1.653  11.724  0.4328  0.4924 -0.6621
14008TIP3    H163515   0.442   1.644  11.677 -0.6689  0.1465  1.2312
14008TIP3    H263516   0.510   1.725  11.786  1.2655 -0.0868  0.2404
14009TIP3   OH263517   0.201   3.027   1.938 -0.1257  0.0664  0.0951
14009TIP3    H163518   0.214   2.965   2.010 -0.2699 -0.6492 -0.4885
14009TIP3    H263519   0.133   3.086   1.971  0.1846  0.0752  0.7496
14010TIP3   OH263520   1.623   3.306  11.616  0.6118 -0.0533 -0.4173
14010TIP3    H163521   1.542   3.286  11.663  0.5294 -0.8892 -0.8902
14010TIP3    H263522   1.673   3.224  11.619  1.5192  0.5088  0.0214
14011TIP3   OH263523   0.959   2.454  13.978 -0.2680  0.4899 -0.1850
14011TIP3    H163524   1.021   2.526  13.965  0.2292 -0.0309 -0.7552
14011TIP3    H263525   1.014   2.376  13.984 -0.9301 -0.2631 -2.7087
14012TIP3   OH263526   2.914   2.886   3.741  0.3564 -0.4240 -0.0960
14012TIP3    H163527   2.827   2.845   3.741 -0.5815  1.4811 -0.3789
14012TIP3    H263528   2.933   2.902   3.649 -0.4471  1.9922  0.0823
14013TIP3   OH263529   1.661   0.646   3.091 -0.7264  0.1648  0.7372
14013TIP3    H163530   1.741   0.629   3.041 -0.6358  0.5681  0.7452
14013TIP3    H263531   1.678   0.608   3.177 -1.4585 -1.9383  0.0383
14014TIP3   OH263532   0.871   0.135   2.560  0.0142 -0.4354 -0.4326
14014TIP3    H163533   0.779   0.126   2.535 -0.2310 -2.9592  1.0200
14014TIP3    H263534   0.878   0.224   2.594 -1.6237  0.1565 -1.5337
14015TIP3   OH263535   5.103   1.465   1.794  0.4673  0.6724  0.0706
14015TIP3    H163536   5.063   1.551   1.780 -2.0909 -0.6552 -1.6876
14015TIP3    H263537   5.060   1.431   1.872 -0.3213  0.1101 -0.5826
14016TIP3   OH263538   4.228   2.319   1.598 -0.3687  0.0140 -0.7887
14016TIP3    H163539   4.314   2.280   1.613 -0.4781 -0.1037 -0.4468
14016TIP3    H263540   4.175   2.248   1.562 -0.7772 -0.3814  0.5291
14017TIP3   OH263541   3.333   4.464   0.286 -0.4961  0.7093  0.6393
14017TIP3    H163542   3.364   4.448   0.375  0.2339 -0.3821  0.2039
14017TIP3    H263543   3.394   4.417   0.230 -1.5741  0.4560 -0.3769
14018TIP3   OH263544   6.309   4.115  15.913  0.1317 -0.1180 -0.1889
14018TIP3    H163545   6.229   4.167  15.917  0.4912  0.3814  1.9833
14018TIP3    H263546   6.302   4.066  15.831 -0.3839  3.0558 -2.1926
14019TIP3   OH263547   5.896   4.669   1.686 -0.3567  0.1306  0.2802
14019TIP3    H163548   5.812   4.660   1.641 -0.6086 -0.7129  0.8806
14019TIP3    H263549   5.935   4.581   1.681  0.8713  0.6949 -0.6902
14020TIP3   OH263550   4.693   3.885  11.768  0.4896  0.0708  0.0765
14020TIP3    H163551   4.713   3.851  11.680 -1.4067  3.1953 -1.7285
14020TIP3    H263552   4.775   3.924  11.798  0.4747  1.5399 -1.6536
14021TIP3   OH263553   4.263   0.218  12.054 -0.5089 -0.0123  0.0956
14021TIP3    H163554   4.237   0.132  12.020 -2.7900  0.2767  0.9504
14021TIP3    H263555   4.318   0.255  11.985 -1.4041 -1.1997 -1.3196
14022TIP3   OH263556   0.417   3.441  15.007  0.1576  0.0506 -0.1096
14022TIP3    H163557   0.435   3.428  15.100 -1.1782  0.4733  0.2325
14022TIP3    H263558   0.475   3.513  14.981 -0.4382  0.8680  0.7597
14023TIP3   OH263559   4.723   6.614   6.103  0.3444  0.5654 -0.0700
14023TIP3    H163560   4.728   6.679   6.032 -0.9338 -0.1076 -0.8008
14023TIP3    H263561   4.631   6.613   6.128  0.4070 -0.7497  0.1462
14024TIP3   OH263562   0.045   0.557   5.761 -0.4967 -0.0071 -0.0310
14024TIP3    H163563   0.053   0.574   5.855  1.6067 -0.9450  0.0231
14024TIP3    H263564   0.136   0.545   5.731 -1.1583 -0.3410 -2.0639
14025TIP3   OH263565   0.272   4.032  15.140  0.0291 -0.4611  0.6341
14025TIP3    H163566   0.282   4.124  15.164 -0.1534 -0.8898  2.5373
14025TIP3    H263567   0.312   3.984  15.213 -2.7958 -1.9264  1.3585
14026TIP3   OH263568   1.258   6.039  17.104  0.3465  0.1148 -0.1499
14026TIP3    H163569   1.238   6.132  17.091  1.0547  0.3161  0.1901
14026TIP3    H263570   1.272   6.031  17.198  2.2005  0.0543 -0.4013
14027TIP3   OH263571   6.064   5.189  16.631  0.1779  0.4043 -0.7352
14027TIP3    H163572   6.001   5.201  16.702 -0.4013  0.7105 -1.2834
14027TIP3    H263573   6.011   5.199  16.551  1.0525  1.3648 -1.2108
14028TIP3   OH263574   1.881   3.157   3.697  0.5872  0.0118  0.1853
14028TIP3    H163575   1.895   3.083   3.638 -2.3989 -1.7443  1.4600
14028TIP3    H263576   1.827   3.218   3.646  0.7741  0.0417  0.0237
14029TIP3   OH263577   1.149   3.331   1.726 -0.4152 -0.4351 -0.1327
14029TIP3    H163578   1.092   3.332   1.803  1.4423  0.6035  1.3101
14029TIP3    H263579   1.158   3.423   1.701 -0.4721 -0.7069 -1.2295
14030TIP3   OH263580   2.235   3.522  15.725  0.4779  0.5022 -0.0392
14030TIP3    H163581   2.240   3.530  15.821  2.8513  2.6773 -0.2354
14030TIP3    H263582   2.162   3.578  15.700  1.9002  2.6558  0.3557
14031TIP3   OH263583   1.763   4.957  11.814  0.7597 -0.2437  0.2375
14031TIP3    H163584   1.798   4.878  11.856  0.9209 -0.5664 -0.4882
14031TIP3    H263585   1.668   4.951  11.827  0.8375 -0.1178  0.9226
14032TIP3   OH263586   2.971   5.603  14.076  0.4120 -0.5176 -0.5482
14032TIP3    H163587   2.879   5.613  14.051  0.3518 -0.2963 -0.2472
14032TIP3    H263588   2.969   5.601  14.172  0.6984 -0.7382 -0.5503
14033TIP3   OH263589   1.006   1.256   0.502  0.2053  0.0454  0.0372
14033TIP3    H163590   0.973   1.313   0.572  0.0757  1.0411 -0.8088
14033TIP3    H263591   0.929   1.236   0.449  0.3116 -0.6742  0.1461
14034TIP3   OH263592   1.636   3.233   0.166  0.3001  0.1230 -0.2581
14034TIP3    H163593   1.604   3.217   0.254  1.6474 -0.1038  0.2146
14034TIP3    H263594   1.562   3.210   0.109 -0.3991 -0.2639  0.7748
14035TIP3   OH263595   0.243   3.692   5.693  0.4091  1.0247  0.1842
14035TIP3    H163596   0.324   3.644   5.676  0.0797  0.7900 -0.7879
14035TIP3    H263597   0.175   3.641   5.648 -0.1997  1.5059  0.5374
14036TIP3   OH263598   0.387   2.911   4.718  0.4304  0.2114 -0.3981
14036TIP3    H163599   0.375   2.986   4.660  2.5966 -0.6154 -2.0269
14036TIP3    H263600   0.302   2.866   4.717  0.5471 -0.1262 -3.5055
14037TIP3   OH263601   4.526   2.158  11.558 -0.3094 -0.2214 -0.1931
14037TIP3    H163602   4.480   2.233  11.521 -1.2706 -0.8938 -0.4008
14037TIP3    H263603   4.458   2.093  11.573 -0.2274  0.3742  3.8075
14038TIP3   OH263604   5.653   5.251   6.162 -0.5682  0.1753  0.7006
14038TIP3    H163605   5.662   5.164   6.123  1.6872  0.8185 -0.3835
14038TIP3    H263606   5.625   5.235   6.252 -0.0383 -1.6789  0.5691
14039TIP3   OH263607   6.459   1.182   1.525  0.3504 -0.4004 -0.7886
14039TIP3    H163608   6.447   1.251   1.590  1.3205 -0.6002 -0.3797
14039TIP3    H263609   6.374   1.175   1.481  0.6389  2.2268 -2.0010
14040TIP3   OH263610   0.766   3.434  13.245  0.3235  0.1989  0.3966
14040TIP3    H163611   0.802   3.508  13.295 -0.0584 -1.3499  3.2066
14040TIP3    H263612   0.673   3.454  13.236  0.3951  0.4990  0.3235
14041TIP3   OH263613   0.457   5.610  14.868  0.3078 -0.1993  0.0356
14041TIP3    H163614   0.433   5.682  14.927 -1.7439 -1.0585  0.3287
14041TIP3    H263615   0.497   5.654  14.793 -0.9047  1.2658  0.1901
14042TIP3   OH263616   5.669   0.777  11.374 -0.6359  0.5101  0.5444
14042TIP3    H163617   5.746   0.834  11.367 -0.0373 -0.1986  1.1178
14042TIP3    H263618   5.600   0.823  11.325  0.1590  1.1431 -0.0121
14043TIP3   OH263619   2.207   0.103   6.369 -0.1310  0.1169 -0.0034
14043TIP3    H163620   2.260   0.054   6.431 -0.6676 -0.7993 -0.2560
14043TIP3    H263621   2.242   0.192   6.373  1.5509 -0.4896 -0.3192
14044TIP3   OH263622   2.137   3.089  14.918  0.1518 -0.0355 -0.0797
14044TIP3    H163623   2.195   3.070  14.991  0.1432  2.1490  0.5649
14044TIP3    H263624   2.073   3.018  14.919  0.5913 -0.4534  1.5476
14045TIP3   OH263625   1.936   6.459   0.166 -0.0597 -0.3294  0.4764
14045TIP3    H163626   1.999   6.488   0.232  1.0126 -0.3129 -0.4983
14045TIP3    H263627   1.949   6.364   0.162 -0.6594 -0.4282  0.8125
14046TIP3   OH263628   3.159   5.379  14.705 -0.5261 -0.0801  0.2010
14046TIP3    H163629   3.130   5.397  14.616  0.4156  2.1831  0.2778
14046TIP3    H263630   3.223   5.449  14.724  2.2605 -2.6839  1.2779
14047TIP3   OH263631   6.560   2.532   1.928 -0.2117  0.2625 -0.3238
14047TIP3    H163632   6.553   2.578   2.011 -0.2933  0.4644 -0.4438
14047TIP3    H263633   6.619   2.458   1.946 -0.3995  0.1842 -0.0347
14048TIP3   OH263634   3.441   2.547   0.022  0.9145 -0.3473  0.1076
14048TIP3    H163635   3.435   2.624   0.080 -0.4566  0.6328 -1.2501
14048TIP3    H263636   3.534   2.539   0.002  1.0638  1.1043  0.1132
14049TIP3   OH263637   4.969   1.993  12.849 -0.2253  0.6692 -0.1960
14049TIP3    H163638   4.899   2.024  12.792  0.5338  0.7523 -1.1086
14049TIP3    H263639   4.943   1.903  12.870 -0.2179  0.4207 -1.1845
14050TIP3   OH263640   0.215   0.675  15.509  0.1896  0.0534  0.1669
14050TIP3    H163641   0.240   0.743  15.447 -0.0009  1.6800  1.7865
14050TIP3    H263642   0.123   0.692  15.529 -0.4890 -1.9748 -0.9256
14051TIP3   OH263643   1.788   4.734   0.106 -0.0002  0.1737 -0.2826
14051TIP3    H163644   1.876   4.758   0.136 -0.1695  1.3089 -0.6363
14051TIP3    H263645   1.751   4.681   0.177  0.7356  0.2081  0.1350
14052TIP3   OH263646   2.327   2.415  13.255 -0.0732 -0.5075 -0.4867
14052TIP3    H163647   2.417   2.383  13.255 -0.5537 -1.9191 -0.9663
14052TIP3    H263648   2.322   2.473  13.331  1.2752 -0.2696 -0.5541
14053TIP3   OH263649   2.611   4.449  12.751  0.4698  0.1796 -0.1597
14053TIP3    H163650   2.543   4.388  12.779  0.4076  0.5636  0.5595
14053TIP3    H263651   2.691   4.397  12.749  0.3694  0.0101  0.1872
14054TIP3   OH263652   6.008   6.693   2.282  0.2821 -0.4289  0.9101
14054TIP3    H163653   6.055   6.650   2.211 -0.4057 -1.3577  0.9987
14054TIP3    H263654   5.923   6.650   2.283 -1.2102  2.3085 -0.2885
14055TIP3   OH263655   4.737   4.253   2.867 -0.2624 -0.0041 -0.0723
14055TIP3    H163656   4.709   4.253   2.959  0.0989 -0.1514  0.0361
14055TIP3    H263657   4.758   4.161   2.848  2.7379  0.4285  0.6373
14056TIP3   OH263658   0.433   6.769   4.808  0.9352 -0.1734  0.2596
14056TIP3    H163659   0.489   6.722   4.869  1.2685  0.4207  0.4198
14056TIP3    H263660   0.356   6.794   4.860  1.0100 -0.0642  0.3181
14057TIP3   OH263661   1.763   2.219   2.683 -0.7069  0.4637  0.4847
14057TIP3    H163662   1.671   2.227   2.711 -0.2896 -1.5117  2.7619
14057TIP3    H263663   1.797   2.308   2.688 -2.4167  1.2064 -0.1718
14058TIP3   OH263664   1.221   2.856  16.865  0.7135 -0.0464  0.3513
14058TIP3    H163665   1.258   2.773  16.895  1.5485 -0.0895 -0.7384
14058TIP3    H263666   1.246   2.919  16.933 -1.9888 -1.0516  2.4509
14059TIP3   OH263667   5.686   1.057  11.955 -0.5338 -0.5523 -0.3716
14059TIP3    H163668   5.693   1.063  11.860  1.1545 -1.1263 -0.3199
14059TIP3    H263669   5.620   0.990  11.970 -1.0855 -0.1963 -1.1250
14060TIP3   OH263670   6.093   1.819   4.538  0.0899 -0.2321 -0.3888
14060TIP3    H163671   6.109   1.771   4.619  1.0268 -1.5262 -1.2950
14060TIP3    H263672   6.169   1.877   4.530 -1.3581  1.9934  1.0421
14061TIP3   OH263673   2.605   0.608  11.295 -0.2719  0.1527  0.2162
14061TIP3    H163674   2.526   0.655  11.269 -0.2885 -0.3202 -0.6241
14061TIP3    H263675   2.672   0.637  11.232 -0.0791 -0.3122  0.1993
14062TIP3   OH263676   2.483   6.588   2.029 -0.8576 -0.0175 -0.7379
14062TIP3    H163677   2.487   6.683   2.019  1.2184 -0.0380 -0.5885
14062TIP3    H263678   2.438   6.575   2.112 -2.5415  0.7525 -1.4837
14063TIP3   OH263679   0.189   5.201  12.738 -0.1188 -0.8983 -0.0507
14063TIP3    H163680   0.111   5.172  12.785  0.1608  0.2998  1.2135
14063TIP3    H263681   0.199   5.137  12.668 -3.0722 -0.2642 -1.2088
14064TIP3   OH263682   3.207   6.729  13.745  0.2412  0.6673  0.3963
14064TIP3    H163683   3.216   6.820  13.718 -1.5486  0.0165 -3.1805
14064TIP3    H263684   3.124   6.726  13.793 -0.8508  0.7227 -1.3703
14065TIP3   OH263685   0.565   1.397   1.738  0.0688 -0.5413  0.4813
14065TIP3    H163686   0.517   1.339   1.797  0.1626 -1.6459 -0.4757
14065TIP3    H263687   0.571   1.347   1.656 -1.5818  1.6207 -1.0513
14066TIP3   OH263688   2.579   0.364  11.141 -0.2897  0.1080  0.1394
14066TIP3    H163689   2.519   0.398  11.075  0.8488  1.5739 -0.2069
14066TIP3    H263690   2.579   0.431  11.210 -0.1025 -0.5401  0.7839
14067TIP3   OH263691   0.098   4.548   0.572 -0.2581  0.1378 -0.2420
14067TIP3    H163692   0.010   4.513   0.585 -0.2377  0.0599 -0.3089
14067TIP3    H263693   0.092   4.640   0.599  0.0150 -0.2505  1.1846
14068TIP3   OH263694   4.870   2.874  12.110  0.0695 -0.0569 -0.3371
14068TIP3    H163695   4.807   2.932  12.154 -0.9912 -0.1735 -1.6300
14068TIP3    H263696   4.926   2.842  12.180  0.5153  2.2961  0.4746
14069TIP3   OH263697   3.512   4.973  12.929  0.7109  0.0606  0.9832
14069TIP3    H163698   3.576   4.968  13.000 -0.0117  1.4350  1.7809
14069TIP3    H263699   3.427   4.971  12.974  0.2214 -0.1064  0.0677
14070TIP3   OH263700   4.487   4.878   0.764 -0.5708  0.2780  0.4948
14070TIP3    H163701   4.554   4.934   0.804 -0.2127  0.9568 -0.9962
14070TIP3    H263702   4.470   4.810   0.830  1.5056  0.1469  0.9620
14071TIP3   OH263703   1.856   6.135  12.657  0.4842 -0.7383 -0.3889
14071TIP3    H163704   1.881   6.108  12.746  0.2140 -1.9457 -0.6521
14071TIP3    H263705   1.939   6.141  12.610  0.5631 -1.0338 -0.2932
14072TIP3   OH263706   6.719   1.319   5.685  0.3590 -0.0409 -0.1071
14072TIP3    H163707   6.799   1.288   5.642  1.4092  1.2330  0.8474
14072TIP3    H263708   6.713   1.267   5.765 -1.9760 -2.9111 -1.9356
14073TIP3   OH263709   2.703   5.706   6.640  0.3470 -0.0140 -0.2077
14073TIP3    H163710   2.654   5.774   6.593  0.0091  1.0086  1.5252
14073TIP3    H263711   2.724   5.641   6.574  0.6616  1.7686 -1.9376
14074TIP3   OH263712   0.837   0.220   0.469 -0.2241 -0.0548 -0.3747
14074TIP3    H163713   0.896   0.224   0.544 -0.1275  1.2507 -0.4848
14074TIP3    H263714   0.838   0.129   0.442  2.6471  0.0827 -1.0566
14075TIP3   OH263715   4.201   2.198  11.029  0.4561 -0.0142 -0.6535
14075TIP3    H163716   4.123   2.145  11.044 -0.4407  1.4270 -0.0088
14075TIP3    H263717   4.169   2.274  10.980  1.3967  0.7439 -0.1193
14076TIP3   OH263718   3.187   2.066  10.768  0.4904 -0.5137 -0.3175
14076TIP3    H163719   3.214   2.030  10.852  1.1033 -0.2269 -0.3881
14076TIP3    H263720   3.187   1.991  10.709 -0.5198 -0.8323  0.0613
14077TIP3   OH263721   4.626   2.596  15.660 -0.2879  0.2110 -0.2405
14077TIP3    H163722   4.715   2.566  15.641  0.3219  1.6126  0.1945
14077TIP3    H263723   4.569   2.527  15.627  0.9965 -1.4785  0.9110
14078TIP3   OH263724   3.060   4.603  12.308  0.1878 -0.2430  0.2521
14078TIP3    H163725   3.119   4.535  12.342 -1.2869 -1.4446  0.5289
14078TIP3    H263726   3.027   4.647  12.387  1.1111  0.8118  0.0745
14079TIP3   OH263727   0.671   4.431  16.658 -0.0999 -0.6372  0.5522
14079TIP3    H163728   0.680   4.440  16.753  0.4118 -0.2756  0.4755
14079TIP3    H263729   0.699   4.516  16.623 -0.8638 -0.5578  0.1077
14080TIP3   OH263730   4.986   3.356  12.668  0.8669  0.4717  0.3934
14080TIP3    H163731   4.979   3.293  12.597  1.8483 -0.6826  1.2922
14080TIP3    H263732   4.914   3.418  12.652  0.4785 -0.3133 -1.0395
14081TIP3   OH263733   2.146   5.374  11.963 -0.0852 -0.1807 -0.0972
14081TIP3    H163734   2.077   5.388  11.898 -0.9126 -0.9787  0.5731
14081TIP3    H263735   2.139   5.281  11.984 -1.9201  0.6062  3.3915
14082TIP3   OH263736   6.528   3.580   4.289 -0.4616 -0.6861 -0.3889
14082TIP3    H163737   6.621   3.599   4.298 -0.4954 -0.8453  0.3943
14082TIP3    H263738   6.524   3.505   4.230  0.0399 -1.8676  1.0203
14083TIP3   OH263739   4.478   0.072  17.065  0.0774 -0.1529 -0.1063
14083TIP3    H163740   4.510   0.003  17.122  1.0096  2.5525  2.9429
14083TIP3    H263741   4.406   0.113  17.114  0.2420  1.6884 -1.2971
14084TIP3   OH263742   6.519   4.454  14.869  0.1385  0.7387  0.1835
14084TIP3    H163743   6.596   4.402  14.846  0.6357  1.3631  0.4260
14084TIP3    H263744   6.477   4.404  14.938  0.9783  0.9669  0.8816
14085TIP3   OH263745   6.348   4.409   4.767  0.5835 -0.1573 -0.4278
14085TIP3    H163746   6.305   4.483   4.811 -0.2218 -1.2021  0.5984
14085TIP3    H263747   6.442   4.428   4.776  0.3987  1.0693 -0.7888
14086TIP3   OH263748   3.795   2.775  11.497  0.2087  0.3351 -0.4962
14086TIP3    H163749   3.888   2.791  11.512  0.2112  0.9012 -1.0599
14086TIP3    H263750   3.792   2.690  11.452  0.6364  1.2296 -2.3215
14087TIP3   OH263751   5.499   2.161  12.588 -0.1318 -0.3627 -0.2543
14087TIP3    H163752   5.457   2.117  12.514 -1.7961  1.0079 -0.1938
14087TIP3    H263753   5.576   2.108  12.608 -0.4251 -1.5297 -2.0674
14088TIP3   OH263754   4.464   0.308   2.441  0.4585 -0.2397 -0.7336
14088TIP3    H163755   4.521   0.313   2.518 -0.6748  1.7222  0.0647
14088TIP3    H263756   4.448   0.399   2.418 -3.4266 -0.5631 -0.0446
14089TIP3   OH263757   4.639   1.587  16.239 -0.1041 -0.2879  0.2867
14089TIP3    H163758   4.634   1.504  16.287 -0.9419 -0.5211 -0.1811
14089TIP3    H263759   4.634   1.562  16.147  0.9737  0.1947  0.0865
14090TIP3   OH263760   0.774   0.472   1.644 -0.5704  0.2906  0.3549
14090TIP3    H163761   0.709   0.454   1.577 -0.9405  0.3472  0.6910
14090TIP3    H263762   0.799   0.563   1.630  0.1837 -0.0213 -0.4002
14091TIP3   OH263763   6.414   3.461  12.974  0.6140 -0.4957 -0.1208
14091TIP3    H163764   6.497   3.448  12.927  0.7164  1.3488 -0.5176
14091TIP3    H263765   6.360   3.386  12.948  1.5610 -0.8473 -1.1723
14092TIP3   OH263766   3.534   5.073  13.649  0.1871  0.5995 -0.2571
14092TIP3    H163767   3.629   5.070  13.647  0.2413 -2.3309  1.4107
14092TIP3    H263768   3.512   5.086  13.741 -0.9664 -0.7274 -0.3098
14093TIP3   OH263769   0.977   2.006  12.938 -0.0234 -0.3606 -0.7656
14093TIP3    H163770   1.031   1.927  12.947 -1.9206 -1.8284 -1.4822
14093TIP3    H263771   0.893   1.982  12.979 -0.6104  1.3309 -0.9131
14094TIP3   OH263772   2.284   6.454  12.868  0.1822  0.0170  0.4661
14094TIP3    H163773   2.350   6.492  12.810  1.4939 -1.7967  0.6717
14094TIP3    H263774   2.272   6.365  12.835 -0.2205 -0.5340  2.0145
14095TIP3   OH263775   0.359   4.758   0.900  0.2665 -0.0580 -0.2471
14095TIP3    H163776   0.329   4.678   0.857  0.3511 -0.4107  0.3521
14095TIP3    H263777   0.441   4.779   0.856  0.7388 -0.8378  0.2522
14096TIP3   OH263778   6.532   0.679  16.470  0.2922 -0.0113  0.1739
14096TIP3    H163779   6.455   0.623  16.483  0.6605 -0.4383  0.5605
14096TIP3    H263780   6.572   0.685  16.557  0.4796  0.5246  0.0521
14097TIP3   OH263781   0.246   5.860   3.197 -0.2283  0.1289  0.6159
14097TIP3    H163782   0.260   5.843   3.104 -0.4488  4.3295 -0.3704
14097TIP3    H263783   0.333   5.856   3.235 -0.0824 -1.2196  0.1809
14098TIP3   OH263784   4.368   6.110  15.965 -0.4026 -0.3808  0.4524
14098TIP3    H163785   4.445   6.146  15.922  0.2054 -0.7691  1.1908
14098TIP3    H263786   4.326   6.056  15.898  1.2030 -1.9705  0.6391
14099TIP3   OH263787   5.175   1.156   0.622 -0.3817  0.4615  0.1306
14099TIP3    H163788   5.221   1.238   0.603  0.8768 -0.6949 -2.3460
14099TIP3    H263789   5.094   1.162   0.572 -0.9826  0.7380  1.1030
14100TIP3   OH263790   0.317   6.456  13.689  0.0772  0.7577  0.2858
14100TIP3    H163791   0.238   6.407  13.714  0.9755 -0.1141  1.4839
14100TIP3    H263792   0.291   6.503  13.610 -1.5616  0.2592  0.4857
14101TIP3   OH263793   6.464   0.032  14.174 -0.0191  0.1096 -0.3634
14101TIP3    H163794   6.457   0.072  14.261  0.1778  0.1587 -0.3711
14101TIP3    H263795   6.514   0.095  14.123  0.4440 -0.2295 -0.3274
14102TIP3   OH263796   5.784   1.078  14.266 -0.2556 -0.3030 -0.4835
14102TIP3    H163797   5.788   1.121  14.352  1.5807 -1.4772  0.0688
14102TIP3    H263798   5.694   1.046  14.260 -0.5115  0.0782  0.8703
14103TIP3   OH263799   0.025   2.911   2.331  0.5773 -0.2762  0.1385
14103TIP3    H163800  -0.060   2.868   2.320  1.4686 -1.7927 -1.3071
14103TIP3    H263801   0.080   2.872   2.264  2.3703  0.8562  0.8821
14104TIP3   OH263802   5.589   2.749  14.262 -0.1407  0.3235  0.1904
14104TIP3    H163803   5.511   2.733  14.315  1.8301  0.8595  3.5904
14104TIP3    H263804   5.659   2.763  14.326  3.2603 -2.1915 -2.5635
14105TIP3   OH263805   3.085   6.144   4.018 -0.6257 -0.7224  0.4989
14105TIP3    H163806   3.105   6.228   3.976 -1.2668 -1.0395 -0.4927
14105TIP3    H263807   3.110   6.156   4.109  1.5910 -0.2528 -0.1104
14106TIP3   OH263808   2.807   3.944   4.750 -0.2588 -0.1794  0.1482
14106TIP3    H163809   2.774   3.859   4.722 -0.6735  0.2914 -0.8858
14106TIP3    H263810   2.759   3.964   4.831  0.9101 -1.5533  1.2143
14107TIP3   OH263811   5.917   1.252   0.375 -0.2647 -0.4745  0.7061
14107TIP3    H163812   5.954   1.334   0.342  2.3527 -1.0858  1.8177
14107TIP3    H263813   5.883   1.208   0.297  0.4618  0.6367 -0.2728
14108TIP3   OH263814   1.109   4.466   0.578 -0.0658  0.0665  0.8054
14108TIP3    H163815   1.051   4.542   0.573  0.4532  0.5666  2.1257
14108TIP3    H263816   1.127   4.444   0.486  1.3162  2.7219  0.3529
14109TIP3   OH263817   4.731   6.320   0.031 -0.1278  0.0568 -0.4286
14109TIP3    H163818   4.712   6.408  -0.000  0.7822  0.1428 -0.7630
14109TIP3    H263819   4.794   6.285  -0.032  0.9598 -0.1377  0.7155
14110TIP3   OH263820   2.102   0.022  16.470 -0.6137  0.5592 -0.8430
14110TIP3    H163821   2.039   0.036  16.400  0.1967 -1.7960 -2.1302
14110TIP3    H263822   2.048   0.004  16.548 -1.5682 -0.4434 -1.7017
14111TIP3   OH263823   1.953   6.256  13.270  0.1774  0.1780 -0.5010
14111TIP3    H163824   1.984   6.179  13.222 -0.6105  0.7861 -2.0865
14111TIP3    H263825   1.880   6.289  13.216 -0.0527  1.5258  0.5924
14112TIP3   OH263826   3.140   1.151   0.876  0.5115  0.3939 -0.0969
14112TIP3    H163827   3.153   1.090   0.948  0.1570 -0.3272 -0.6310
14112TIP3    H263828   3.076   1.108   0.819  3.9494 -1.2523 -3.1925
14113TIP3   OH263829   3.125   1.611  11.269  0.4744  0.4188  0.2938
14113TIP3    H163830   3.115   1.526  11.312  0.8408  1.0183  1.6369
14113TIP3    H263831   3.208   1.605  11.222 -0.1905 -0.4338 -0.7951
14114TIP3   OH263832   2.005   3.706  15.682 -0.4207  0.5171 -0.5612
14114TIP3    H163833   1.913   3.732  15.671 -0.4604  0.2365 -0.8992
14114TIP3    H263834   2.043   3.775  15.737 -1.3235 -0.3840  1.2770
14115TIP3   OH263835   0.498   6.733   2.321  0.6089 -0.2365 -0.1867
14115TIP3    H163836   0.494   6.774   2.407  0.7740  0.3083 -0.4302
14115TIP3    H263837   0.418   6.761   2.277 -1.0939 -3.0864  0.8800
14116TIP3   OH263838   2.936   0.701   2.470  0.2878 -0.1658 -0.4758
14116TIP3    H163839   3.002   0.768   2.492  1.3713 -1.2449 -0.3214
14116TIP3    H263840   2.890   0.686   2.552  0.1168  0.3048 -0.4830
14117TIP3   OH263841   3.656   5.588   1.018  0.3719  0.1418 -0.4469
14117TIP3    H163842   3.708   5.659   1.056 -0.8250  0.9901 -0.3582
14117TIP3    H263843   3.651   5.609   0.925 -2.8134  2.1345  0.0192
14118TIP3   OH263844   4.117   2.173  11.315  1.0280  0.1069 -0.2059
14118TIP3    H163845   4.035   2.160  11.267  1.8171 -0.9681 -1.3178
14118TIP3    H263846   4.153   2.254  11.279  0.4582  0.6028  0.3120
14119TIP3   OH263847   1.029   3.659   1.118 -0.3853 -0.0735 -0.1194
14119TIP3    H163848   0.981   3.584   1.083  0.4705 -1.0636  0.7503
14119TIP3    H263849   1.059   3.630   1.204  0.4514  1.0625 -0.0058
14120TIP3   OH263850   4.548   4.738   0.531 -0.0864 -0.3683  0.8141
14120TIP3    H163851   4.588   4.796   0.466  3.5646 -2.6940  0.7083
14120TIP3    H263852   4.553   4.787   0.613  0.2747  0.5666  0.2483
14121TIP3   OH263853   3.401   1.932  16.694  0.2211 -0.1813 -0.0520
14121TIP3    H163854   3.413   1.912  16.787  0.0696 -0.2139 -0.0382
14121TIP3    H263855   3.310   1.906  16.676  1.1483 -3.2371 -0.9722
14122TIP3   OH263856   4.175   6.169  14.780  0.3445 -0.1085  0.7679
14122TIP3    H163857   4.234   6.200  14.849  0.9701  0.8109 -0.1360
14122TIP3    H263858   4.221   6.191  14.699  0.1524 -2.1590  0.0362
14123TIP3   OH263859   2.591   2.465   0.836 -0.2445 -0.3059  0.7187
14123TIP3    H163860   2.535   2.522   0.783  0.2920  0.0404  0.5172
14123TIP3    H263861   2.533   2.394   0.864 -0.8279  0.1393  0.6608
14124TIP3   OH263862   2.167   0.382   0.743 -0.5697  0.3551 -0.0121
14124TIP3    H163863   2.093   0.439   0.724 -0.9515 -0.1359 -0.0081
14124TIP3    H263864   2.141   0.296   0.710 -0.0786  0.1382  0.1517
14125TIP3   OH263865   0.560   0.641   3.449 -0.3054  0.0361 -0.3947
14125TIP3    H163866   0.529   0.660   3.360 -0.0712 -1.2986 -0.7740
14125TIP3    H263867   0.654   0.658   3.446 -0.5964  2.0313  0.1938
14126TIP3   OH263868   6.361   0.434  15.866 -0.0020  0.0365 -0.2615
14126TIP3    H163869   6.450   0.453  15.834 -0.6961  2.6664 -0.9553
14126TIP3    H263870   6.338   0.510  15.919 -1.2103 -1.4372  1.4384
14127TIP3   OH263871   2.398   4.978   3.379 -0.1161 -0.2241  0.2894
14127TIP3    H163872   2.481   4.943   3.345 -0.3130 -0.2338 -0.1847
14127TIP3    H263873   2.336   4.907   3.370 -0.2811 -0.0765  0.2475
14128TIP3   OH263874   5.522   0.361   0.625 -0.0110 -0.7216  0.7443
14128TIP3    H163875   5.618   0.354   0.625  0.0825  0.3419 -0.4848
14128TIP3    H263876   5.503   0.421   0.697  0.2518 -0.7345  0.8278
14129TIP3   OH263877   2.364   5.148   0.528  0.1450  0.7126  0.6665
14129TIP3    H163878   2.439   5.088   0.537  0.6493  1.0070 -1.1105
14129TIP3    H263879   2.393   5.229   0.569  0.5719  0.6323  0.5323
14130TIP3   OH263880   5.328   0.237   1.171  0.0884  0.6051 -0.1195
14130TIP3    H163881   5.346   0.147   1.143 -0.7263 -0.1391  1.5641
14130TIP3    H263882   5.260   0.268   1.112 -1.2892 -0.7549  0.6720
14131TIP3   OH263883   4.074   2.797   6.505  0.4582  0.5138 -0.2862
14131TIP3    H163884   4.078   2.702   6.500 -1.1343  0.5075 -2.4115
14131TIP3    H263885   4.166   2.825   6.503  0.9085 -0.9182 -0.7844
14132TIP3   OH263886   6.117   3.687  16.245  0.2901 -0.5172  0.0046
14132TIP3    H163887   6.143   3.605  16.202  1.1976 -0.4592  0.4055
14132TIP3    H263888   6.126   3.668  16.338  2.8476  0.7127  0.0932
14133TIP3   OH263889   2.118   2.577   0.274 -0.0358  0.1150  0.1374
14133TIP3    H163890   2.087   2.545   0.189  2.3384 -2.3403  0.0824
14133TIP3    H263891   2.054   2.544   0.337 -1.0010  0.6869 -0.5157
14134TIP3   OH263892   4.803   6.445  14.979  0.2830 -0.0051 -0.1202
14134TIP3    H163893   4.828   6.524  15.026 -0.0649  0.3971 -0.6005
14134TIP3    H263894   4.766   6.387  15.046 -0.3068  0.6023  0.0878
14135TIP3   OH263895   4.364   6.288   4.248  0.6507 -0.0871 -0.3449
14135TIP3    H163896   4.318   6.335   4.317  0.1304 -1.0256 -0.0366
14135TIP3    H263897   4.387   6.204   4.287  0.6003 -0.5216 -1.2221
14136TIP3   OH263898   3.858   3.156  13.527 -0.1021  0.7302  0.1878
14136TIP3    H163899   3.951   3.171  13.513  0.3076 -2.2680 -1.1059
14136TIP3    H263900   3.830   3.109  13.448 -2.2962 -0.0230  1.3440
14137TIP3   OH263901   0.827   5.263  13.163  0.1856 -0.3879 -0.5209
14137TIP3    H163902   0.844   5.353  13.192  0.3581 -0.3604 -0.7062
14137TIP3    H263903   0.790   5.273  13.076 -0.2987 -0.4730 -0.3320
14138TIP3   OH263904   5.327   0.965  14.610  0.5815 -0.1305 -0.1830
14138TIP3    H163905   5.387   0.944  14.537  1.5650  1.9786 -0.0464
14138TIP3    H263906   5.299   0.879  14.642  1.7829 -1.1616 -1.6878
14139TIP3   OH263907   3.091   6.677   5.412 -0.4149  0.4388 -0.0994
14139TIP3    H163908   3.066   6.689   5.504  0.6921  0.2205  0.2437
14139TIP3    H263909   3.186   6.687   5.412 -0.3209 -0.3732 -1.0940
14140TIP3   OH263910   2.771   1.741   6.415 -0.4724  0.2912  0.0285
14140TIP3    H163911   2.748   1.824   6.457  0.3175 -0.7826  2.8005
14140TIP3    H263912   2.867   1.738   6.421 -0.2965  0.1423 -2.1133
14141TIP3   OH263913   4.871   4.738  10.721  0.3964  0.5377  0.3376
14141TIP3    H163914   4.947   4.709  10.772  0.7602 -0.9793 -1.0036
14141TIP3    H263915   4.811   4.663  10.723  0.4807  0.3810 -1.5385
14142TIP3   OH263916   0.731   3.409  15.340 -0.2687 -0.0246  0.0464
14142TIP3    H163917   0.774   3.481  15.387  2.1702 -1.0943 -0.3857
14142TIP3    H263918   0.715   3.445  15.252  1.1914 -0.0352 -0.2544
14143TIP3   OH263919   6.040   4.982  12.842 -0.0260  0.2337 -0.0707
14143TIP3    H163920   6.070   5.016  12.758 -0.5578  0.2091 -0.2751
14143TIP3    H263921   6.083   4.897  12.850  0.1071  0.2810 -0.2744
14144TIP3   OH263922   1.233   2.790   5.213 -0.2573  0.0075  0.5568
14144TIP3    H163923   1.320   2.800   5.253 -0.4183  3.4281  0.3740
14144TIP3    H263924   1.250   2.751   5.127  1.4761  2.6663 -0.4209
14145TIP3   OH263925   5.549   1.464   1.327  0.0075  0.3865  0.5485
14145TIP3    H163926   5.611   1.497   1.392  0.5564 -1.3236  0.9366
14145TIP3    H263927   5.577   1.504   1.245 -0.5143  2.3367  1.2623
14146TIP3   OH263928   5.250   0.503  16.845 -0.1739 -0.2817  0.1721
14146TIP3    H163929   5.163   0.466  16.856  0.1427 -1.2870 -0.6293
14146TIP3    H263930   5.281   0.517  16.935 -1.9055  1.9916  0.5205
14147TIP3   OH263931   1.206   4.552   0.113 -0.4074  0.3877  0.6684
14147TIP3    H163932   1.245   4.611   0.048  1.5990  0.3481  1.7623
14147TIP3    H263933   1.172   4.610   0.181  1.1936  0.3786  1.5396
14148TIP3   OH263934   1.085   1.439   4.978 -0.7698  0.2354  0.0536
14148TIP3    H163935   0.997   1.471   4.957 -1.1011 -0.5376  0.2477
14148TIP3    H263936   1.087   1.349   4.947 -0.7808 -0.4733  1.9511
14149TIP3   OH263937   1.450   4.645  12.815 -0.1794  0.2902  0.0073
14149TIP3    H163938   1.537   4.608  12.826  0.0474  1.0431  0.8297
14149TIP3    H263939   1.464   4.739  12.811 -0.7624  0.3461 -1.8974
14150TIP3   OH263940   3.890   6.173   2.706  0.2036  0.3052 -0.2791
14150TIP3    H163941   3.984   6.159   2.719  0.0486 -1.1368 -0.5854
14150TIP3    H263942   3.856   6.088   2.679 -0.7508  1.3694 -2.8118
14151TIP3   OH263943   5.543   5.395  15.836  0.5163  0.1003  0.0600
14151TIP3    H163944   5.534   5.300  15.842 -0.0211  0.0409 -1.2155
14151TIP3    H263945   5.514   5.428  15.921  0.9991 -0.8822  0.6252
14152TIP3   OH263946   3.003   5.348  11.479  0.3819  0.0407 -0.3624
14152TIP3    H163947   2.911   5.332  11.500  1.0055 -1.6725  1.3635
14152TIP3    H263948   3.004   5.359  11.384 -1.5758 -0.0880 -0.4452
14153TIP3   OH263949   3.274   4.761   0.923 -0.4555 -0.0044  0.6424
14153TIP3    H163950   3.278   4.776   0.829  1.5803 -0.8940  0.5288
14153TIP3    H263951   3.342   4.818   0.960 -0.0670 -0.8964  1.3632
14154TIP3   OH263952   1.814   5.033  12.599  0.0754  0.4820  0.2913
14154TIP3    H163953   1.758   4.972  12.647  0.7142 -0.4581 -0.1407
14154TIP3    H263954   1.896   5.034  12.650 -0.3952  2.0554  1.0751
14155TIP3   OH263955   5.481   0.371   4.147 -0.0472  0.0022 -0.3579
14155TIP3    H163956   5.546   0.436   4.117  0.2302 -0.0552  0.1219
14155TIP3    H263957   5.398   0.404   4.112  0.1332  0.4634 -0.3622
14156TIP3   OH263958   1.630   6.673  11.258 -0.3212 -0.0148 -0.0914
14156TIP3    H163959   1.691   6.727  11.309 -0.6832 -0.3381  0.6956
14156TIP3    H263960   1.544   6.693  11.294 -0.5910 -0.1788 -0.6438
14157TIP3   OH263961   2.213   5.578   4.976  0.2812  0.3367  0.4803
14157TIP3    H163962   2.159   5.503   4.999  0.2950  0.4247  0.8177
14157TIP3    H263963   2.209   5.583   4.881  0.2372 -0.0588  0.4589
14158TIP3   OH263964   2.366   0.707  16.367 -0.1953 -0.2570 -0.0363
14158TIP3    H163965   2.310   0.720  16.444  1.5644  1.4767  1.0311
14158TIP3    H263966   2.304   0.686  16.296 -1.8414 -2.3062  1.8541
14159TIP3   OH263967   6.419   1.631   5.549  0.7976  0.0073  0.0909
14159TIP3    H163968   6.469   1.711   5.535  1.1214 -0.2798 -0.4535
14159TIP3    H263969   6.329   1.660   5.562  0.7465  0.4029 -1.0743
14160TIP3   OH263970   2.419   5.612   5.720 -0.4939 -0.2620 -0.1751
14160TIP3    H163971   2.509   5.612   5.754 -0.7812  1.6820  0.7332
14160TIP3    H263972   2.429   5.584   5.629  0.6871 -2.4826  0.5581
14161TIP3   OH263973   2.289   0.707   3.355 -0.1196  0.2483 -0.5108
14161TIP3    H163974   2.233   0.749   3.420  0.5738  1.1262 -0.4597
14161TIP3    H263975   2.348   0.776   3.326 -0.1341 -0.2344 -1.7637
14162TIP3   OH263976   1.935   2.932   3.936 -0.0798 -0.1774 -0.4806
14162TIP3    H163977   1.885   2.895   3.863 -1.4171 -0.7397  0.6665
14162TIP3    H263978   1.890   3.013   3.958  1.7040  1.2275 -1.7326
14163TIP3   OH263979   5.242   1.887   3.548  0.0208  0.2094 -0.2955
14163TIP3    H163980   5.190   1.819   3.505 -1.5423  1.1966 -0.0249
14163TIP3    H263981   5.290   1.929   3.476  1.5626 -1.5964 -0.3839
14164TIP3   OH263982   4.257   2.414  14.253 -0.6242 -0.1799 -0.3840
14164TIP3    H163983   4.252   2.435  14.346 -1.1498  1.3665 -0.7279
14164TIP3    H263984   4.306   2.332  14.249  0.0156  0.0955  1.2022
14165TIP3   OH263985   4.583   1.336   2.789 -0.0548 -0.4466 -0.8153
14165TIP3    H163986   4.570   1.256   2.738  0.1213 -1.0015 -0.0247
14165TIP3    H263987   4.667   1.321   2.834 -0.8199 -0.5611  0.6457
14166TIP3   OH263988   4.632   0.871  16.112 -0.0276 -0.4800  0.2321
14166TIP3    H163989   4.620   0.923  16.191 -1.4351 -0.8275  0.2682
14166TIP3    H263990   4.627   0.935  16.040  3.7324  0.2595  0.4114
14167TIP3   OH263991   4.271   2.212   5.277 -0.1934 -0.1076 -0.0218
14167TIP3    H163992   4.202   2.190   5.339 -1.6140  0.7847 -1.2311
14167TIP3    H263993   4.275   2.307   5.277 -1.1158 -0.0083 -2.1718
14168TIP3   OH263994   3.825   5.558  12.310  0.6246  0.0672 -0.2052
14168TIP3    H163995   3.859   5.494  12.248 -1.1427 -1.3307  0.1925
14168TIP3    H263996   3.812   5.509  12.391 -1.0720  0.8360  0.0237
14169TIP3   OH263997   0.395   1.127   5.173  0.6084 -0.0023 -0.0988
14169TIP3    H163998   0.351   1.209   5.197  1.1381  0.0411  0.7725
14169TIP3    H263999   0.467   1.155   5.116 -0.0102 -0.0007 -0.8958
14170TIP3   OH264000   4.448   6.689  14.860  0.0027  0.2846 -0.4137
14170TIP3    H164001   4.493   6.632  14.922 -1.8953 -1.4120 -0.4930
14170TIP3    H264002   4.393   6.745  14.916  1.1414  1.4567 -0.4006
14171TIP3   OH264003   4.938   5.929  16.615 -0.6517  0.1710  0.0178
14171TIP3    H164004   5.003   5.903  16.549 -0.9962 -2.3214  0.6002
14171TIP3    H264005   4.861   5.953  16.563  0.1117  1.4636 -0.5903
14172TIP3   OH264006   2.530   2.860  16.282  0.0086  0.4162  0.4821
14172TIP3    H164007   2.452   2.905  16.315  0.5763  2.1427 -0.4272
14172TIP3    H264008   2.521   2.862  16.187 -0.2453 -2.0261  0.3913
14173TIP3   OH264009   1.650   0.539  12.506  0.2693 -0.5201  0.1148
14173TIP3    H164010   1.741   0.563  12.490 -0.0045  0.7557  0.3866
14173TIP3    H264011   1.623   0.490  12.428  0.2092  1.9245 -1.4957
14174TIP3   OH264012   4.031   0.875  16.880 -0.2093  0.0221  0.3313
14174TIP3    H164013   4.085   0.951  16.900  0.8510 -0.8534  0.9002
14174TIP3    H264014   4.089   0.800  16.893 -1.1297 -0.8779 -0.5476
14175TIP3   OH264015   3.040   5.908  10.491 -0.7463  0.1718  0.0416
14175TIP3    H164016   3.063   5.815  10.485  2.7839  0.8373  0.8952
14175TIP3    H264017   3.058   5.943  10.404  2.4372  0.7529  0.7838
14176TIP3   OH264018   6.718   3.840   1.685 -0.0985  0.7857 -0.1478
14176TIP3    H164019   6.629   3.862   1.711 -0.3773  0.3616 -0.7438
14176TIP3    H264020   6.748   3.776   1.751  0.5544  2.5096  1.3324
14177TIP3   OH264021   3.967   2.544  12.386 -0.2744  0.8548 -0.0957
14177TIP3    H164022   4.014   2.625  12.408 -0.9831  1.7346 -1.6039
14177TIP3    H264023   4.027   2.496  12.329  0.4022 -0.0279  1.3087
14178TIP3   OH264024   0.452   1.565  15.816  0.2344  0.1287 -0.7236
14178TIP3    H164025   0.370   1.516  15.825  1.2799 -1.3131  2.6204
14178TIP3    H264026   0.425   1.654  15.796 -2.1264 -0.4399 -0.3106
14179TIP3   OH264027   3.091   6.764  14.191  0.6215 -0.0683 -0.0041
14179TIP3    H164028   3.127   6.843  14.153  1.1543 -1.3610 -2.4119
14179TIP3    H264029   2.996   6.774  14.184  0.6298  0.9254  1.0622
14180TIP3   OH264030   1.509   2.330  15.796  0.4650  0.6647  0.1954
14180TIP3    H164031   1.551   2.338  15.710  0.4698  1.2675  0.2476
14180TIP3    H264032   1.416   2.322  15.776  0.5624 -0.3230  0.0936
14181TIP3   OH264033   4.753   4.512  15.387  0.4890  0.3153  0.2071
14181TIP3    H164034   4.662   4.539  15.373 -0.1455 -1.7417  0.0512
14181TIP3    H264035   4.795   4.526  15.302  0.1892  0.7840  0.1337
14182TIP3   OH264036   2.110   2.615   3.321 -0.6721  0.2988  0.2647
14182TIP3    H164037   2.139   2.685   3.262  3.2783 -1.3528 -0.1332
14182TIP3    H264038   2.110   2.537   3.265 -1.2361 -0.6149  1.5087
14183TIP3   OH264039   2.144   3.966   0.560 -0.9362 -0.1020 -0.3377
14183TIP3    H164040   2.059   3.979   0.602 -0.7131  0.2066  0.0277
14183TIP3    H264041   2.207   3.983   0.630 -0.5468  0.7805 -0.8966
14184TIP3   OH264042   3.420   4.713   6.034  0.4766  0.0131  0.2668
14184TIP3    H164043   3.334   4.705   5.994  0.4945  1.5177 -0.1363
14184TIP3    H264044   3.464   4.780   5.982  1.9139 -0.7668  0.4417
14185TIP3   OH264045   3.650   6.651  16.753  0.3134  0.3989  0.1200
14185TIP3    H164046   3.639   6.567  16.797 -3.6145  0.4429 -0.4359
14185TIP3    H264047   3.631   6.633  16.661 -1.8607  2.0269  0.1906
14186TIP3   OH264048   1.555   5.286   4.894  0.1279  0.2451 -0.3450
14186TIP3    H164049   1.590   5.350   4.956  0.5656  1.3632 -1.6971
14186TIP3    H264050   1.460   5.298   4.900  0.2167  1.4662 -0.9966
14187TIP3   OH264051   0.840   5.043  13.323  0.2268  0.0484 -0.0565
14187TIP3    H164052   0.848   5.107  13.251  1.8202  1.6118  1.4150
14187TIP3    H264053   0.777   5.082  13.383  1.2913  0.3431  0.9093
14188TIP3   OH264054   3.290   0.276   5.580 -0.3138 -0.6497 -0.0181
14188TIP3    H164055   3.270   0.311   5.667  1.4103 -0.2669  0.2581
14188TIP3    H264056   3.296   0.182   5.594 -2.6870 -0.9075 -0.3043
14189TIP3   OH264057   5.524   1.633   3.397 -0.1317 -0.3376 -0.1268
14189TIP3    H164058   5.497   1.545   3.424  2.2228 -1.1896 -0.3280
14189TIP3    H264059   5.612   1.643   3.432  0.5126  1.0738 -1.9793
14190TIP3   OH264060   4.092   1.998   3.356  0.2893 -0.1675  0.2799
14190TIP3    H164061   4.185   2.017   3.347  0.2805 -0.6378 -0.9373
14190TIP3    H264062   4.089   1.906   3.385  0.2023 -0.3653 -0.3371
14191TIP3   OH264063   4.348   2.737  13.319  0.4764 -0.7261  0.5834
14191TIP3    H164064   4.389   2.698  13.242 -0.8800  2.1570 -1.7683
14191TIP3    H264065   4.410   2.802  13.350  0.5615 -1.1437  1.3184
14192TIP3   OH264066   2.137   1.151   4.277 -0.0026  0.0220 -0.0333
14192TIP3    H164067   2.171   1.094   4.208 -2.2857  0.9759 -2.0816
14192TIP3    H264068   2.090   1.091   4.336 -1.9123 -0.4112 -1.8584
14193TIP3   OH264069   6.176   1.245  12.153  0.0287  0.4435 -0.3824
14193TIP3    H164070   6.173   1.295  12.234 -0.0731 -2.2395  1.3930
14193TIP3    H264071   6.084   1.228  12.132  0.0434 -2.0349  1.1570
14194TIP3   OH264072   4.470   1.394   4.211  0.2170  0.0961 -0.1904
14194TIP3    H164073   4.408   1.387   4.283  0.1705  0.8488 -0.1525
14194TIP3    H264074   4.553   1.365   4.248 -0.4436 -2.7895 -0.7494
14195TIP3   OH264075   1.892   5.596   5.204  0.2403  0.2855  0.6039
14195TIP3    H164076   1.840   5.654   5.149 -1.4692 -0.7392  1.0597
14195TIP3    H264077   1.956   5.556   5.145 -0.1348  0.8293 -0.1777
14196TIP3   OH264078   4.702   4.852   2.441 -0.1561  0.1607  0.8237
14196TIP3    H164079   4.730   4.943   2.440 -2.1312  0.8210 -0.3440
14196TIP3    H264080   4.764   4.807   2.384 -1.7153  1.6953 -2.2799
14197TIP3   OH264081   3.761   0.048  12.106  0.1732 -0.1493 -0.1876
14197TIP3    H164082   3.686   0.078  12.158  0.9317  0.6662  0.4726
14197TIP3    H264083   3.788   0.125  12.055  1.1198 -0.1495  0.2820
14198TIP3   OH264084   4.079   5.232   6.015  0.1451 -0.2732 -0.1506
14198TIP3    H164085   4.084   5.325   5.992 -0.0617 -0.5373 -1.3286
14198TIP3    H264086   3.987   5.210   6.006  0.5517 -1.2700 -2.8483
14199TIP3   OH264087   5.572   6.390   5.444  0.0087  0.5703  0.6292
14199TIP3    H164088   5.634   6.384   5.516 -0.5057  1.4458  1.1712
14199TIP3    H264089   5.491   6.421   5.485 -0.7277 -0.3579 -0.0921
14200TIP3   OH264090   5.058   4.662   1.606 -0.2830  0.0695 -0.0116
14200TIP3    H164091   5.028   4.590   1.552  0.2261 -1.9293  2.2223
14200TIP3    H264092   4.978   4.702   1.641 -0.5458 -1.2598  0.9683
14201TIP3   OH264093   5.925   0.967   2.091 -0.0437  0.0837  0.0565
14201TIP3    H164094   6.000   0.909   2.075  1.4802  1.1636  2.6766
14201TIP3    H264095   5.955   1.053   2.059  0.2054  0.6822  1.7831
14202TIP3   OH264096   0.509   3.911  14.220  0.1790 -0.5565 -0.0249
14202TIP3    H164097   0.550   3.843  14.273 -2.2590 -0.6012  2.0300
14202TIP3    H264098   0.465   3.864  14.149 -1.6026 -1.2660  1.4564
14203TIP3   OH264099   6.109   5.733  13.598 -0.3210  0.0181  0.1289
14203TIP3    H164100   6.186   5.761  13.549 -0.7135 -0.4938 -0.8125
14203TIP3    H264101   6.067   5.814  13.625  0.9552  0.3075  1.3390
14204TIP3   OH264102   2.842   3.288  10.656 -0.0737 -0.1739  0.1617
14204TIP3    H164103   2.751   3.260  10.654 -0.0958 -0.0773 -0.2353
14204TIP3    H264104   2.855   3.332  10.572  0.8534 -1.7687 -0.5608
14205TIP3   OH264105   0.404   3.529  14.239 -0.5230  0.3452  0.8954
14205TIP3    H164106   0.492   3.562  14.257 -0.3488  0.5811 -0.3249
14205TIP3    H264107   0.345   3.598  14.269 -0.2698  0.5000  1.0365
14206TIP3   OH264108   1.947   4.085   0.730 -0.9437 -0.3722 -0.0831
14206TIP3    H164109   1.885   4.102   0.659 -0.9019  1.3751  0.2708
14206TIP3    H264110   1.895   4.045   0.799 -1.1159 -1.4634 -0.8234
14207TIP3   OH264111   6.723   6.500   0.361  0.1731 -0.4232  0.2626
14207TIP3    H164112   6.746   6.546   0.280 -0.7244 -0.2017  0.1276
14207TIP3    H264113   6.754   6.410   0.346  0.0369 -0.3788 -0.3219
14208TIP3   OH264114   4.579   1.642   1.298  0.5625 -0.1086 -0.8082
14208TIP3    H164115   4.534   1.575   1.247  1.7187 -2.0797  0.6065
14208TIP3    H264116   4.670   1.614   1.300  0.9425  1.0623  0.5223
14209TIP3   OH264117   1.125   2.915  13.788 -0.2065 -0.3501  0.0060
14209TIP3    H164118   1.219   2.930  13.782  0.0573 -2.2177 -1.3558
14209TIP3    H264119   1.087   3.003  13.792  1.4705  0.5119 -1.4888
14210TIP3   OH264120   5.407   1.729   2.628 -0.9556  0.8660  0.1476
14210TIP3    H164121   5.325   1.778   2.623 -0.2597  1.9625 -2.6201
14210TIP3    H264122   5.474   1.791   2.601 -0.0825 -1.5565 -4.2050
14211TIP3   OH264123   1.214   4.887  15.089  0.6790 -0.6271  0.8113
14211TIP3    H164124   1.277   4.926  15.150  1.0182 -0.7385  0.5395
14211TIP3    H264125   1.265   4.821  15.041  1.4796  2.0039 -2.2581
14212TIP3   OH264126   3.904   5.211   0.002  0.2187 -0.0978 -0.0740
14212TIP3    H164127   3.853   5.143  -0.042 -1.2878  1.7942 -1.4561
14212TIP3    H264128   3.962   5.245  -0.067 -0.3080  1.1697  0.0919
14213TIP3   OH264129   5.541   3.000   3.180 -0.2733 -0.8181 -0.5068
14213TIP3    H164130   5.593   3.070   3.140  0.9087 -1.6255 -0.4255
14213TIP3    H264131   5.554   2.925   3.122  1.3762 -1.9859  1.2788
14214TIP3   OH264132   3.724   2.614   3.770  0.9449 -0.0592 -0.3516
14214TIP3    H164133   3.661   2.551   3.735  0.4484  0.0770  0.2840
14214TIP3    H264134   3.691   2.699   3.740  0.5210  0.0576  0.4180
14215TIP3   OH264135   4.413   5.073  17.056  0.0442 -0.1282 -0.8546
14215TIP3    H164136   4.439   5.160  17.088 -0.6855  0.0331 -0.6910
14215TIP3    H264137   4.370   5.091  16.972  1.4496 -0.4979 -1.6835
14216TIP3   OH264138   0.331   1.179   0.242  0.0699 -0.6439  0.6298
14216TIP3    H164139   0.261   1.230   0.283 -0.3599 -2.1023  1.7959
14216TIP3    H264140   0.402   1.180   0.306  0.0097 -1.5755  0.7334
14217TIP3   OH264141   0.936   1.240   0.969  0.1062  0.2602 -0.1953
14217TIP3    H164142   0.864   1.300   0.951 -2.5112 -2.7324 -0.5363
14217TIP3    H264143   0.980   1.230   0.885 -1.0963 -0.2454 -0.7943
14218TIP3   OH264144   0.272   0.439   5.998  0.1221  0.1716  0.4781
14218TIP3    H164145   0.182   0.470   6.007  0.4078  0.7312  1.5503
14218TIP3    H264146   0.274   0.395   5.912 -0.9565  0.8476  0.0879
14219TIP3   OH264147   0.018   0.236  13.243 -0.7124  0.2450 -0.3706
14219TIP3    H164148   0.113   0.239  13.255 -0.6131 -2.9804  0.6643
14219TIP3    H264149  -0.018   0.241  13.332 -1.4246 -0.0359 -0.6314
14220TIP3   OH264150   2.549   2.559  14.597 -0.0004 -0.5362 -0.0689
14220TIP3    H164151   2.482   2.609  14.643 -0.0500  0.0429 -0.7691
14220TIP3    H264152   2.508   2.531  14.515  0.2649 -1.1075 -0.0180
14221TIP3   OH264153   6.068   6.227   3.457 -0.1415 -1.1240  0.2231
14221TIP3    H164154   5.982   6.185   3.465 -1.3537  0.8218 -1.4688
14221TIP3    H264155   6.128   6.155   3.435 -1.5456 -2.3591  0.2779
14222TIP3   OH264156   1.365   4.235  13.901  0.4372  0.5747  0.1955
14222TIP3    H164157   1.334   4.264  13.987 -0.8681  0.4470 -0.2134
14222TIP3    H264158   1.290   4.190  13.863  0.9348  0.8226 -1.1055
14223TIP3   OH264159   3.555   1.649  15.708 -0.0890  0.2859  0.1041
14223TIP3    H164160   3.578   1.575  15.764  1.1815  1.1720  0.8336
14223TIP3    H264161   3.465   1.633  15.682  0.0173 -1.2818  0.5965
14224TIP3   OH264162   6.834   0.449   6.063  0.2861  0.0600  0.3253
14224TIP3    H164163   6.750   0.456   6.019  0.2250 -2.0004  0.0423
14224TIP3    H264164   6.830   0.514   6.133 -1.7350 -0.3128  0.6122
14225TIP3   OH264165   3.954   6.061   4.252 -0.0781 -0.3522 -0.2155
14225TIP3    H164166   4.032   6.048   4.306 -0.3987 -0.7823  0.1535
14225TIP3    H264167   3.938   6.155   4.255 -0.2438 -0.4032  0.6545
14226TIP3   OH264168   1.186   2.164   5.422  0.6746  0.1781  0.2563
14226TIP3    H164169   1.210   2.246   5.465  0.1931  0.4309  0.0447
14226TIP3    H264170   1.101   2.142   5.459  0.0772  0.5936 -0.8453
14227TIP3   OH264171   5.187   1.010  13.391 -0.3287 -0.4950 -0.2167
14227TIP3    H164172   5.136   0.959  13.328  1.2392 -3.6531  0.8381
14227TIP3    H264173   5.186   0.957  13.471  1.1416  1.3550  1.1163
14228TIP3   OH264174   3.494   6.817   2.300  0.4725 -0.2152 -0.2823
14228TIP3    H164175   3.413   6.798   2.253  1.4461 -1.1331 -1.6742
14228TIP3    H264176   3.546   6.737   2.292  0.8342 -0.2987  2.1245
14229TIP3   OH264177   6.316   2.302   6.135 -0.4038 -0.1559  0.1635
14229TIP3    H164178   6.355   2.248   6.204 -0.7295 -0.3750  0.1810
14229TIP3    H264179   6.319   2.248   6.057 -2.1645 -0.8445  0.5222
14230TIP3   OH264180   1.587   5.922   0.126  0.4104  0.7334  0.1856
14230TIP3    H164181   1.602   6.004   0.079  1.4401  0.4341 -0.0351
14230TIP3    H264182   1.672   5.878   0.126  0.1565  0.2022  1.3478
14231TIP3   OH264183   6.480   5.588   0.371 -0.7052  0.1451  0.6377
14231TIP3    H164184   6.553   5.528   0.383 -0.9162 -0.0371  1.0487
14231TIP3    H264185   6.518   5.666   0.331 -0.0512  0.5699  2.0407
14232TIP3   OH264186   1.901   0.204   4.732 -0.3019 -0.5142  0.5839
14232TIP3    H164187   1.927   0.212   4.640 -1.4967 -1.3342  0.1526
14232TIP3    H264188   1.958   0.266   4.778  0.1894  0.0537 -0.7285
14233TIP3   OH264189   6.687   4.960   2.733  0.6311 -0.6001 -0.6009
14233TIP3    H164190   6.606   4.995   2.771  1.9928  1.4559  0.6372
14233TIP3    H264191   6.710   5.022   2.664  1.2344 -1.0919 -0.8516
14234TIP3   OH264192   1.157   5.952   5.067  0.4949 -0.3947 -0.8447
14234TIP3    H164193   1.194   5.978   5.152 -1.4163 -0.4391  0.0529
14234TIP3    H264194   1.190   6.017   5.005 -0.6963  1.6475  0.5631
14235TIP3   OH264195   6.729   1.773  13.817  0.1292 -0.1225  0.4117
14235TIP3    H164196   6.671   1.840  13.852  2.1822  1.2895  1.3085
14235TIP3    H264197   6.680   1.691  13.827 -1.8662  1.0430  0.6334
14236TIP3   OH264198   3.808   6.455  14.424  0.3640  0.1953 -0.0547
14236TIP3    H164199   3.742   6.502  14.476  0.2643 -1.9512  1.9230
14236TIP3    H264200   3.823   6.511  14.348 -2.7336  1.4007  0.0944
14237TIP3   OH264201   3.784   2.454   3.102  0.4070  0.0643  0.5890
14237TIP3    H164202   3.739   2.374   3.076 -0.6561  0.8104  0.0716
14237TIP3    H264203   3.715   2.511   3.136  1.1012  0.8846  0.6600
14238TIP3   OH264204   4.128   2.658   3.025  0.0095  0.1521 -0.2641
14238TIP3    H164205   4.184   2.697   2.957  1.9194 -1.9958 -0.0251
14238TIP3    H264206   4.110   2.570   2.994 -0.7028 -0.2225  1.1449
14239TIP3   OH264207   6.805   0.872  14.707 -0.0771 -0.0344  0.0187
14239TIP3    H164208   6.810   0.958  14.666  1.2715 -0.2359 -0.2800
14239TIP3    H264209   6.723   0.834  14.672 -0.4290  0.9178 -0.2240
14240TIP3   OH264210   0.883   0.033   1.753 -0.6383 -0.1212 -0.8518
14240TIP3    H164211   0.900   0.107   1.694 -2.4399  0.3122 -0.8755
14240TIP3    H264212   0.905   0.066   1.840 -0.3481  0.0630 -0.9927
14241TIP3   OH264213   6.532   5.952  16.979  0.8641  0.1180 -0.1806
14241TIP3    H164214   6.565   5.925  17.065  2.4668  2.8585  0.1862
14241TIP3    H264215   6.508   5.870  16.936  1.0651 -1.4401  2.4262
14242TIP3   OH264216   0.248   2.469   1.581  0.0012  0.0584  0.1894
14242TIP3    H164217   0.211   2.510   1.502 -2.0050 -0.7412  0.6811
14242TIP3    H264218   0.234   2.533   1.650 -0.1711 -0.1179  0.3174
14243TIP3   OH264219   2.471   5.280  12.700 -0.6725 -0.0029  0.5390
14243TIP3    H164220   2.523   5.358  12.681  0.6873 -0.9263  0.3301
14243TIP3    H264221   2.522   5.232  12.765 -0.0191 -2.1085 -1.3778
14244TIP3   OH264222   2.001   6.586  15.036  0.0376 -0.5762 -0.0309
14244TIP3    H164223   2.063   6.659  15.032 -0.4178 -0.2004 -0.2698
14244TIP3    H264224   1.916   6.627  15.052 -0.0666 -1.1303  0.8937
14245TIP3   OH264225   1.833   5.979  16.639  0.1976 -0.1989 -0.1891
14245TIP3    H164226   1.926   5.988  16.619  0.0836 -0.1273 -0.7006
14245TIP3    H264227   1.822   5.886  16.659  0.6606  0.0575  1.3878
14246TIP3   OH264228   6.237   1.472   4.444  0.4176  0.1153  0.3482
14246TIP3    H164229   6.300   1.416   4.489 -1.1927 -1.2851  0.9817
14246TIP3    H264230   6.244   1.447   4.352  2.5749  1.8414 -0.0373
14247TIP3   OH264231   4.974   2.777   4.353  0.0669 -0.1901 -0.3401
14247TIP3    H164232   5.008   2.706   4.407 -0.3283 -0.8376 -0.9350
14247TIP3    H264233   4.916   2.826   4.411 -0.3666 -0.8890 -0.1699
14248TIP3   OH264234   0.845   1.622   1.089  0.6964  0.1840  0.7731
14248TIP3    H164235   0.929   1.595   1.125  0.8607 -0.5952 -0.1395
14248TIP3    H264236   0.819   1.550   1.031 -0.3607  0.6298  0.6564
14249TIP3   OH264237   6.780   3.981  14.126 -0.0318 -0.2218 -0.0927
14249TIP3    H164238   6.794   4.056  14.069 -0.3278 -0.7926 -0.9467
14249TIP3    H264239   6.867   3.961  14.161 -0.0593  0.9123  0.6756
14250TIP3   OH264240   0.751   3.312  11.831  0.5221 -0.1017  0.4208
14250TIP3    H164241   0.717   3.315  11.742 -1.9540 -0.1944  1.2824
14250TIP3    H264242   0.766   3.219  11.848  2.4718  0.0132 -0.3297
14251TIP3   OH264243   4.055   6.236  13.911  0.2544 -0.4293  0.6500
14251TIP3    H164244   4.067   6.330  13.922  2.0219 -0.4876 -0.4719
14251TIP3    H264245   3.980   6.228  13.852  3.1960  0.5564 -3.5959
14252TIP3   OH264246   1.365   2.545  13.593 -0.1904 -0.0323 -0.4812
14252TIP3    H164247   1.379   2.622  13.537  0.8702  0.5657  0.5520
14252TIP3    H264248   1.276   2.556  13.627 -0.3193  0.3429 -0.9300
14253TIP3   OH264249   0.530   5.295   1.149 -0.0088  0.0409  0.4263
14253TIP3    H164250   0.567   5.310   1.236 -2.1457 -0.5585  1.5011
14253TIP3    H264251   0.444   5.255   1.165 -1.4833  1.9804 -1.8998
14254TIP3   OH264252   2.215   5.389  14.545 -0.2485  0.0979 -0.2693
14254TIP3    H164253   2.125   5.357  14.538 -0.1803 -0.0916 -0.2937
14254TIP3    H264254   2.207   5.484  14.550 -0.4704  0.0648  0.0347
14255TIP3   OH264255   5.574   2.134   1.885  0.2639 -0.3248 -0.6569
14255TIP3    H164256   5.661   2.110   1.917 -0.3326 -0.5238  0.9030
14255TIP3    H264257   5.537   2.052   1.853 -0.5634 -0.9641  1.7344
14256TIP3   OH264258   3.561   3.827   0.301  0.2050  0.7913  0.0221
14256TIP3    H164259   3.589   3.830   0.393  0.5250  1.5774 -0.0941
14256TIP3    H264260   3.510   3.747   0.295  0.3747  0.6072  0.8361
14257TIP3   OH264261   6.525   1.052   4.248 -0.0732 -0.4354  0.2745
14257TIP3    H164262   6.518   0.987   4.177 -1.3177 -1.3444  1.1777
14257TIP3    H264263   6.450   1.033   4.305  0.7399  0.4484  1.6964
14258TIP3   OH264264   3.737   3.804   4.364 -0.9988 -0.1677  0.2411
14258TIP3    H164265   3.655   3.761   4.390  0.0898 -3.2702 -1.0229
14258TIP3    H264266   3.753   3.773   4.275  0.6662  1.8182 -0.2037
14259TIP3   OH264267   1.982   6.765   4.712 -0.4934  0.0878  0.2161
14259TIP3    H164268   2.038   6.765   4.635 -0.8877 -1.6505 -0.0991
14259TIP3    H264269   1.986   6.855   4.745  2.7040 -0.0262  0.3767
14260TIP3   OH264270   1.550   6.262  13.015 -0.0210 -0.5919 -0.4915
14260TIP3    H164271   1.637   6.223  13.010 -0.0452 -0.5516 -1.5076
14260TIP3    H264272   1.565   6.352  13.043  0.4063 -0.2051 -1.8544
14261TIP3   OH264273   0.748   5.502   3.985 -0.5283 -0.0900 -0.1780
14261TIP3    H164274   0.726   5.410   3.967  0.3778 -0.5035  0.7967
14261TIP3    H264275   0.811   5.525   3.917 -1.5881  0.1691 -1.1050
14262TIP3   OH264276   4.683   4.560   2.681 -0.0102  0.5073 -0.9627
14262TIP3    H164277   4.623   4.489   2.661 -0.6983 -0.0624  2.5003
14262TIP3    H264278   4.759   4.518   2.721  0.1615  1.5972 -0.0714
14263TIP3   OH264279   2.113   3.909   4.511  0.3878 -0.0687  0.0260
14263TIP3    H164280   2.019   3.921   4.526  0.1863 -0.2382 -1.0259
14263TIP3    H264281   2.126   3.814   4.509  0.0895 -0.1159 -2.5012
14264TIP3   OH264282   2.145   3.824  12.356 -0.6010  0.2615  0.0847
14264TIP3    H164283   2.192   3.845  12.276 -0.9624  0.1360 -0.1608
14264TIP3    H264284   2.214   3.794  12.416 -0.2137  1.2178  0.1286
14265TIP3   OH264285   6.221   3.480  13.769  0.3549  0.1438  0.0722
14265TIP3    H164286   6.230   3.399  13.718 -0.7319 -0.3698  0.6604
14265TIP3    H264287   6.227   3.452  13.860 -2.0317  0.3893  0.3580
14266TIP3   OH264288   4.033   6.381  14.546  0.0657 -0.3945 -0.2944
14266TIP3    H164289   3.947   6.420  14.533 -0.4388 -0.9514  1.2327
14266TIP3    H264290   4.094   6.455  14.537 -0.8180  0.6730  1.7849
14267TIP3   OH264291   3.751   1.045   1.095  0.2363  0.2671 -0.0386
14267TIP3    H164292   3.674   1.071   1.144 -0.3550  0.5997 -1.1266
14267TIP3    H264293   3.821   1.102   1.126  0.2085 -0.4348  1.3806
14268TIP3   OH264294   3.481   3.572   0.435 -0.1143  0.1690 -0.2464
14268TIP3    H164295   3.413   3.559   0.369 -1.8427  0.5861  1.3842
14268TIP3    H264296   3.436   3.613   0.509  1.6764 -0.5448  1.3261
14269TIP3   OH264297   6.475   3.046  11.313  0.4075 -0.3005 -0.0322
14269TIP3    H164298   6.510   2.964  11.348 -0.8232 -1.7171 -1.8832
14269TIP3    H264299   6.531   3.066  11.238  0.2796  0.1717 -0.0052
14270TIP3   OH264300   5.527   5.693   3.350  1.0120 -0.6218  0.4161
14270TIP3    H164301   5.543   5.633   3.423 -1.7866 -1.9863  0.0396
14270TIP3    H264302   5.580   5.657   3.278  0.0805 -2.1819  0.4598
14271TIP3   OH264303   6.411   3.494   1.915 -0.6694 -0.4325  0.1854
14271TIP3    H164304   6.367   3.440   1.980  0.0439 -0.9040  0.2854
14271TIP3    H264305   6.501   3.461   1.913 -0.0702  1.0985  0.6422
14272TIP3   OH264306   6.414   2.624  17.031  0.1746  0.5573 -0.4377
14272TIP3    H164307   6.486   2.622  16.968  1.3378 -1.5735  0.8827
14272TIP3    H264308   6.446   2.576  17.107 -2.0456  1.0185  0.8842
14273TIP3   OH264309   2.328   5.514   6.750 -0.4085 -1.1491 -0.9200
14273TIP3    H164310   2.375   5.592   6.779  0.3544 -1.3977 -1.4740
14273TIP3    H264311   2.241   5.546   6.724 -0.4756 -0.6565 -0.1093
14274TIP3   OH264312   3.994   3.248   5.017 -0.1348  0.1409  0.3427
14274TIP3    H164313   3.977   3.192   4.941 -0.3968  3.0190 -1.8872
14274TIP3    H264314   3.912   3.249   5.066 -0.1962 -1.1822  0.2912
14275TIP3   OH264315   0.994   4.636   1.242 -0.0620  0.2751  0.2361
14275TIP3    H164316   1.061   4.698   1.215  0.3257 -0.7086 -1.2179
14275TIP3    H264317   0.945   4.680   1.311  0.9324  1.7170  0.0452
14276TIP3   OH264318   6.199   1.049   3.148 -0.0335 -0.8309 -0.2672
14276TIP3    H164319   6.134   0.983   3.124  1.2719 -2.2416 -0.0951
14276TIP3    H264320   6.148   1.123   3.180 -1.5206 -2.2758  0.8396
14277TIP3   OH264321   0.593   6.701  13.005 -0.6580 -0.0605  0.3221
14277TIP3    H164322   0.657   6.771  13.021 -0.4164  0.2542 -1.7078
14277TIP3    H264323   0.571   6.668  13.092  2.1276 -0.0573  1.1323
14278TIP3   OH264324   2.415   3.305  15.963  0.1545 -0.3167  0.1602
14278TIP3    H164325   2.422   3.384  16.016 -0.0134 -0.7559  0.8638
14278TIP3    H264326   2.487   3.312  15.900  0.5425  0.0902  0.6320
14279TIP3   OH264327   6.509   0.860   3.578 -0.1173  0.5043  0.2721
14279TIP3    H164328   6.427   0.861   3.530 -0.1907  1.1012  0.3920
14279TIP3    H264329   6.564   0.797   3.531 -0.6761  0.0177  0.2609
14280TIP3   OH264330   5.243   6.053   0.590  0.1470  0.7017 -0.2690
14280TIP3    H164331   5.243   6.127   0.651 -1.3726  1.5461 -1.2327
14280TIP3    H264332   5.184   6.080   0.520 -0.4522 -1.4275 -0.6552
14281TIP3   OH264333   5.535   2.456   3.156  0.1525 -0.4541  0.7095
14281TIP3    H164334   5.567   2.542   3.184  3.7941 -1.0272 -1.1064
14281TIP3    H264335   5.547   2.456   3.061 -1.7987 -2.2700  0.3976
14282TIP3   OH264336   5.496   2.353  16.966  0.5151  0.1445 -0.4142
14282TIP3    H164337   5.412   2.309  16.980  0.5736  0.0242 -0.4416
14282TIP3    H264338   5.484   2.441  17.002  0.4797  0.0229 -0.1284
14283TIP3   OH264339   5.256   1.166  10.251  0.0099 -0.2080 -0.2540
14283TIP3    H164340   5.235   1.191  10.341  1.3992  0.4407 -0.0779
14283TIP3    H264341   5.217   1.079  10.241 -1.2287  0.2190  0.5556
14284TIP3   OH264342   5.718   5.920   1.797 -0.6428 -0.3343  0.3825
14284TIP3    H164343   5.673   5.937   1.714 -0.6927  3.2531  0.9479
14284TIP3    H264344   5.650   5.887   1.855 -1.6363  1.0001  0.0466
14285TIP3   OH264345   2.450   5.594  13.194 -0.5483 -0.3015  0.5279
14285TIP3    H164346   2.445   5.553  13.108  3.7511  1.9895 -1.0908
14285TIP3    H264347   2.515   5.543  13.242 -0.9096  0.0530  1.4316
14286TIP3   OH264348   2.586   5.768   3.013 -0.3562 -0.4445  0.5954
14286TIP3    H164349   2.512   5.707   3.019 -0.6754  0.0186  1.4900
14286TIP3    H264350   2.558   5.845   3.061  1.2111 -0.7565  2.0966
14287TIP3   OH264351   4.013   1.112  17.076 -0.4737 -0.2766  0.4002
14287TIP3    H164352   3.966   1.187  17.114 -0.1869 -0.8753  1.9969
14287TIP3    H264353   4.091   1.102  17.130  0.5709 -0.4637 -1.0784
14288TIP3   OH264354   2.250   3.453   5.351 -0.4668 -0.1396  0.0603
14288TIP3    H164355   2.185   3.521   5.333  0.9661  0.8841 -1.6360
14288TIP3    H264356   2.251   3.399   5.272  0.4112 -0.4066  0.2476
14289TIP3   OH264357   1.899   2.994   2.075 -0.6183  0.4423 -0.1625
14289TIP3    H164358   1.976   2.982   2.020  0.2713 -3.9210  1.6189
14289TIP3    H264359   1.827   2.954   2.025 -0.2103 -1.6790  0.8201
14290TIP3   OH264360   6.192   4.011  14.135 -0.2965  0.0786  0.4644
14290TIP3    H164361   6.152   3.929  14.162  0.8448 -0.1561  1.5527
14290TIP3    H264362   6.132   4.079  14.166 -0.7275 -0.3071  0.4793
14291TIP3   OH264363   6.844   4.146   2.253 -0.2926 -0.1449  0.2465
14291TIP3    H164364   6.903   4.071   2.256  2.7767  2.0664  0.6748
14291TIP3    H264365   6.814   4.149   2.162 -0.8802 -2.0960  0.3327
14292TIP3   OH264366   2.634   3.329   2.010  0.5288  0.0848 -0.2110
14292TIP3    H164367   2.562   3.324   1.947  1.2403  0.0574 -1.0435
14292TIP3    H264368   2.682   3.247   1.998 -0.1254 -0.5865  1.3868
14293TIP3   OH264369   1.298   3.788   5.321  0.3958  0.6247 -0.5779
14293TIP3    H164370   1.329   3.822   5.237 -0.6157  1.6009 -0.5637
14293TIP3    H264371   1.203   3.794   5.316  0.3331  0.8981  0.7212
14294TIP3   OH264372   4.264   0.620  14.192  0.3321  0.6011  0.5375
14294TIP3    H164373   4.291   0.690  14.251  1.5080 -1.7175  2.9239
14294TIP3    H264374   4.337   0.558  14.192 -0.2643 -0.2751 -2.2258
14295TIP3   OH264375   6.303   0.680  16.752 -0.4448  0.5775 -0.2335
14295TIP3    H164376   6.388   0.636  16.751 -0.6402  0.0583 -2.9048
14295TIP3    H264377   6.240   0.608  16.762 -0.6517  1.0838  3.3476
14296TIP3   OH264378   2.461   4.428  16.439 -0.3184  0.2778  0.1042
14296TIP3    H164379   2.402   4.354  16.424  0.5253 -0.1120 -1.5974
14296TIP3    H264380   2.548   4.388  16.448  0.0698  1.0155 -0.2493
14297TIP3   OH264381   1.065   3.579  11.341 -0.3328  0.1271  0.2849
14297TIP3    H164382   1.014   3.563  11.420 -2.2376  1.5765 -0.5673
14297TIP3    H264383   1.124   3.504  11.335 -0.7915 -0.4816  2.5521
14298TIP3   OH264384   2.823   0.237   2.234 -0.5190  0.5091  0.0808
14298TIP3    H164385   2.849   0.327   2.254 -0.4807  0.4718  0.2017
14298TIP3    H264386   2.836   0.190   2.317  0.3536  0.1890 -0.2287
14299TIP3   OH264387   6.413   3.722  12.767  0.7240  0.6459 -0.0651
14299TIP3    H164388   6.329   3.759  12.793  0.7170  0.5687  0.0205
14299TIP3    H264389   6.394   3.630  12.749  1.3720 -0.1872  2.9523
14300TIP3   OH264390   5.218   0.891  17.041  0.6942  0.5819  0.4654
14300TIP3    H164391   5.289   0.927  16.988 -0.0960 -2.3655 -2.9903
14300TIP3    H264392   5.248   0.803  17.064 -1.3242 -0.3102 -0.1274
14301TIP3   OH264393   5.582   1.053  13.600  0.7760 -0.2874  0.1627
14301TIP3    H164394   5.537   0.981  13.555  0.5618 -0.5347  0.7661
14301TIP3    H264395   5.636   1.093  13.532 -2.5319  1.9154 -1.4203
14302TIP3   OH264396   5.201   0.382   4.369 -0.3993 -0.0741  0.3097
14302TIP3    H164397   5.156   0.426   4.298 -2.2028 -0.4250  1.1885
14302TIP3    H264398   5.276   0.438   4.388 -1.7409  1.7887  0.3494
14303TIP3   OH264399   4.040   3.648  15.250 -0.3067 -0.4847 -0.1735
14303TIP3    H164400   4.098   3.723  15.237  0.4626 -1.1589 -0.7985
14303TIP3    H264401   3.969   3.662  15.187 -0.8994  0.4004  0.6699
14304TIP3   OH264402   0.531   4.811  12.640 -0.5230 -0.1273 -0.1922
14304TIP3    H164403   0.606   4.869  12.624  1.3696 -2.1351  0.9133
14304TIP3    H264404   0.503   4.783  12.554  1.3924 -0.9651 -0.5993
14305TIP3   OH264405   5.761   0.318  10.680  0.0327 -0.1714 -0.4908
14305TIP3    H164406   5.679   0.326  10.632  0.7802  1.4946 -1.5892
14305TIP3    H264407   5.741   0.352  10.767 -0.2846  0.8817 -0.9633
14306TIP3   OH264408   5.750   3.240   6.089 -0.0618  0.1213 -0.3542
14306TIP3    H164409   5.726   3.289   6.011  0.0472  0.9567  0.1224
14306TIP3    H264410   5.783   3.306   6.150  0.9261 -0.6606 -0.0134
14307TIP3   OH264411   5.329   5.074   2.836  0.1224 -0.3487  0.2762
14307TIP3    H164412   5.392   5.069   2.909  1.7329  1.8085 -0.8412
14307TIP3    H264413   5.274   5.150   2.857  0.1563 -0.1334 -0.3830
14308TIP3   OH264414   1.219   3.129   4.456  0.1680 -0.3010  0.1885
14308TIP3    H164415   1.244   3.188   4.526 -0.4759  0.9333 -0.5864
14308TIP3    H264416   1.202   3.046   4.499 -0.9770  0.6309  1.5995
14309TIP3   OH264417   0.257   3.340   5.748  1.0597 -0.0422  0.6181
14309TIP3    H164418   0.336   3.393   5.737  0.0448  1.3553 -0.2948
14309TIP3    H264419   0.187   3.392   5.707  0.1830 -2.5827 -1.4283
14310TIP3   OH264420   2.611   3.122  11.291  0.0114 -0.8937 -0.1639
14310TIP3    H164421   2.567   3.048  11.334 -0.6126 -0.4512 -0.0246
14310TIP3    H264422   2.540   3.177  11.258  0.3872  0.5393  1.2517
14311TIP3   OH264423   6.095   5.584  16.485  0.6141  0.7240 -0.4200
14311TIP3    H164424   6.181   5.626  16.495  0.3628  0.8253  1.6693
14311TIP3    H264425   6.051   5.636  16.418  1.2583  2.2381  0.2874
14312TIP3   OH264426   4.488   6.515  12.586  0.4975 -0.0522  0.8746
14312TIP3    H164427   4.580   6.541  12.588  0.4195  0.1990  1.1777
14312TIP3    H264428   4.439   6.596  12.569  0.4424 -0.4715 -1.2325
14313TIP3   OH264429   6.136   0.465  16.774  0.1986 -0.7174  0.5436
14313TIP3    H164430   6.190   0.387  16.786  0.1672 -0.8132  0.0794
14313TIP3    H264431   6.067   0.457  16.840  0.4251 -0.8797  0.7628
14314TIP3   OH264432   5.797   0.352   1.645 -0.0882  0.2164  0.1080
14314TIP3    H164433   5.796   0.354   1.549 -2.2915 -1.8018 -0.0302
14314TIP3    H264434   5.761   0.436   1.672  1.2970  1.1231 -0.7717
14315TIP3   OH264435   1.037   5.231   3.933 -0.7373 -0.0662  0.6404
14315TIP3    H164436   1.027   5.249   3.839  2.4302 -1.7949 -0.2102
14315TIP3    H264437   1.010   5.139   3.943  0.0817 -0.2716  1.1160
14316TIP3   OH264438   2.351   3.257   2.517 -0.4243 -0.1899  0.3790
14316TIP3    H164439   2.275   3.299   2.559  0.4286  2.2394 -0.3116
14316TIP3    H264440   2.422   3.320   2.530  0.9875 -1.5076 -0.7181
14317TIP3   OH264441   6.181   2.027   4.178 -0.0647  0.0742 -0.4626
14317TIP3    H164442   6.270   2.051   4.152  0.3653 -1.1187 -0.1362
14317TIP3    H264443   6.189   1.939   4.215 -1.6209 -0.8044 -2.0199
14318TIP3   OH264444   0.150   0.628  15.870 -0.0530 -0.4513 -0.8243
14318TIP3    H164445   0.122   0.539  15.846 -1.1325  0.5527 -3.6338
14318TIP3    H264446   0.071   0.669  15.906  0.5554 -0.6932  0.8863
14319TIP3   OH264447   1.743   4.107   5.852  0.4280 -0.2962 -0.4584
14319TIP3    H164448   1.713   4.094   5.762  0.9141  0.7563 -0.7890
14319TIP3    H264449   1.665   4.133   5.901  0.2342 -0.5063 -0.6563
14320TIP3   OH264450   1.575   1.308   5.945 -0.4041  0.3499 -0.4952
14320TIP3    H164451   1.605   1.386   5.900  1.0990 -0.1560 -0.4567
14320TIP3    H264452   1.581   1.331   6.038  0.0537  0.2022 -0.4832
14321TIP3   OH264453   5.272   5.680   3.778  0.3505 -0.7069  0.3034
14321TIP3    H164454   5.184   5.663   3.813 -0.1289 -0.7124 -0.8598
14321TIP3    H264455   5.287   5.773   3.795 -1.1698  0.0850 -2.1309
14322TIP3   OH264456   5.633   4.987   2.276 -0.0493  0.0764  0.0442
14322TIP3    H164457   5.630   5.047   2.351 -0.7021  0.9944 -0.6811
14322TIP3    H264458   5.633   4.900   2.315  0.0116  0.5324  1.1161
14323TIP3   OH264459   5.671   3.265  10.627 -0.0237  0.9780 -0.0139
14323TIP3    H164460   5.674   3.206  10.702 -0.1881  0.0121 -0.7436
14323TIP3    H264461   5.587   3.246  10.585  1.0044 -0.1371 -1.6943
14324TIP3   OH264462   2.713   6.140   0.448  0.7772 -0.1035 -0.1391
14324TIP3    H164463   2.759   6.202   0.391  1.1195 -0.4218 -0.2133
14324TIP3    H264464   2.661   6.196   0.506  1.1145  0.2577 -0.1742
14325TIP3   OH264465   6.149   1.990  11.714  0.1313  0.0134  0.4535
14325TIP3    H164466   6.075   2.030  11.667  1.7061  0.1543 -2.1395
14325TIP3    H264467   6.184   2.061  11.767 -0.0592  0.7130 -0.3255
14326TIP3   OH264468   6.348   1.392  13.346 -0.2667 -0.2674  0.8734
14326TIP3    H164469   6.283   1.391  13.417 -1.3663 -0.6900 -0.1046
14326TIP3    H264470   6.368   1.299  13.331 -1.3563 -0.3139 -0.5000
14327TIP3   OH264471   1.277   0.932   0.595 -0.0589  0.6166 -0.5024
14327TIP3    H164472   1.210   0.942   0.526 -1.0842 -1.1265  0.1776
14327TIP3    H264473   1.239   0.868   0.655  1.5052  0.9227  0.8560
14328TIP3   OH264474   1.705   4.791   6.026 -0.4342 -0.5398  0.1244
14328TIP3    H164475   1.672   4.801   6.115 -0.8114 -0.1211 -0.0639
14328TIP3    H264476   1.641   4.834   5.970  1.0147  1.3918 -0.1457
14329TIP3   OH264477   5.601   2.043  16.936 -0.2270 -0.2398  0.1903
14329TIP3    H164478   5.516   2.074  16.903 -0.0952  1.3853  1.3049
14329TIP3    H264479   5.580   1.960  16.979 -1.6205  0.9471  1.9647
14330TIP3   OH264480   1.518   1.517   1.859  0.5363 -1.1252  0.0718
14330TIP3    H164481   1.467   1.436   1.863 -1.6264  0.0732 -1.1225
14330TIP3    H264482   1.493   1.564   1.938 -1.6994  0.1863 -1.2889
14331TIP3   OH264483   2.107   5.019  11.762  0.0810  0.5138  0.0122
14331TIP3    H164484   2.079   5.100  11.718 -0.2643 -0.1987 -1.1204
14331TIP3    H264485   2.105   4.953  11.693  2.5293 -0.0282  0.3707
14332TIP3   OH264486   5.453   2.235  11.406 -0.4940  0.2380 -0.5307
14332TIP3    H164487   5.439   2.196  11.319 -1.2264  0.3701 -0.4792
14332TIP3    H264488   5.508   2.311  11.389  1.9508 -1.4078 -0.4947
14333TIP3   OH264489   0.314   0.289  12.939  0.3180  0.8139 -0.1004
14333TIP3    H164490   0.353   0.208  12.906 -0.8252  0.2303 -0.0897
14333TIP3    H264491   0.220   0.270  12.942  0.0351  2.1392 -0.0778
14334TIP3   OH264492   1.383   0.062  17.003  0.0040  0.2442  0.6843
14334TIP3    H164493   1.452   0.127  16.985  1.0077 -0.8664  0.3729
14334TIP3    H264494   1.307   0.095  16.954  0.8122  0.6302 -0.3785
14335TIP3   OH264495   3.633   4.285  13.595 -0.0856  0.5199  0.7388
14335TIP3    H164496   3.575   4.316  13.525  0.4565  1.3017  0.6309
14335TIP3    H264497   3.635   4.356  13.659  2.0832  1.2727 -0.0692
14336TIP3   OH264498   2.544   2.180   3.368  0.1105 -0.1796  1.2474
14336TIP3    H164499   2.584   2.215   3.288 -0.1266 -1.6452  0.4604
14336TIP3    H264500   2.533   2.257   3.424 -1.9143  1.3362 -1.0375
14337TIP3   OH264501   5.701   2.838  12.832  0.1042  0.1243  0.3746
14337TIP3    H164502   5.778   2.893  12.818 -1.7462  2.4163 -1.7769
14337TIP3    H264503   5.705   2.773  12.762  0.6165 -0.5485  0.9954
14338TIP3   OH264504   5.753   2.260   2.728  0.2489 -0.3546  0.0973
14338TIP3    H164505   5.664   2.254   2.695 -0.2497  2.1992  0.7585
14338TIP3    H264506   5.806   2.213   2.663 -1.1657  1.0769 -2.2277
14339TIP3   OH264507   1.321   2.539   1.805 -0.2277 -0.2066  0.8259
14339TIP3    H164508   1.265   2.462   1.804 -1.5892  0.6551 -2.4531
14339TIP3    H264509   1.295   2.587   1.884  0.2788 -2.7048  2.6449
14340TIP3   OH264510   0.751   5.337   2.383  0.1623 -0.0811  0.0859
14340TIP3    H164511   0.841   5.305   2.375  0.7856  1.4721  0.5073
14340TIP3    H264512   0.729   5.369   2.296 -0.6028 -1.8859 -0.4384
14341TIP3   OH264513   3.302   1.866   1.663  0.2591 -0.1698 -0.2302
14341TIP3    H164514   3.354   1.935   1.622  1.5145 -0.8319  0.1959
14341TIP3    H264515   3.302   1.794   1.599 -0.3147 -0.1069 -0.3109
14342TIP3   OH264516   6.533   3.796  13.217 -0.5164  0.3432  0.2503
14342TIP3    H164517   6.593   3.864  13.247 -1.5996  1.1933  0.5516
14342TIP3    H264518   6.589   3.720  13.202  0.7730  1.3687 -0.3663
14343TIP3   OH264519   4.382   4.301   0.898  0.1074  0.9453 -0.1566
14343TIP3    H164520   4.326   4.247   0.843 -1.4672  3.1716 -0.8518
14343TIP3    H264521   4.344   4.294   0.986  2.1096 -1.9029  0.6512
14344TIP3   OH264522   6.021   0.109   5.805  0.3684  0.1326  0.6314
14344TIP3    H164523   5.986   0.049   5.740 -0.6518  0.6217  0.7105
14344TIP3    H264524   6.111   0.080   5.818  0.0629 -1.0374  0.2751
14345TIP3   OH264525   5.548   5.673  14.438  0.3409  0.2468 -0.5573
14345TIP3    H164526   5.543   5.646  14.346  0.2259  1.8941 -1.0654
14345TIP3    H264527   5.466   5.719  14.454  0.7853  0.8524  0.0572
14346TIP3   OH264528   1.895   4.846   5.410  0.0122  0.1514  0.1368
14346TIP3    H164529   1.831   4.803   5.353  0.5753 -0.3709 -0.1049
14346TIP3    H264530   1.841   4.900   5.469 -0.4990  2.0345 -1.9397
14347TIP3   OH264531   1.928   1.264  16.643  0.1211  0.1800 -0.4607
14347TIP3    H164532   1.904   1.182  16.687 -1.0469 -0.6082 -2.4332
14347TIP3    H264533   1.958   1.321  16.713 -0.1025 -1.5497  1.1251
14348TIP3   OH264534   0.497   5.575   0.715  0.2666 -0.0695  0.2211
14348TIP3    H164535   0.581   5.592   0.673  0.4254  0.8246  0.8867
14348TIP3    H264536   0.461   5.661   0.733 -1.3614 -0.4250 -1.1323
14349TIP3   OH264537   4.162   5.615   5.094 -0.3226  0.7588  0.1736
14349TIP3    H164538   4.068   5.606   5.114 -0.0184 -0.6627  1.1511
14349TIP3    H264539   4.190   5.692   5.144 -0.2754 -0.8522  2.8063
14350TIP3   OH264540   2.447   5.150   2.045  0.2104  0.8372 -1.4396
14350TIP3    H164541   2.372   5.194   2.005 -0.7688 -0.3549 -0.9974
14350TIP3    H264542   2.428   5.151   2.139  0.1483 -0.5036 -1.4209
14351TIP3   OH264543   6.272   3.751  11.604  0.2171 -0.2622  0.3101
14351TIP3    H164544   6.202   3.811  11.629  1.8367  1.4640  0.9488
14351TIP3    H264545   6.259   3.736  11.510 -0.6395  0.5388  0.2926
14352TIP3   OH264546   1.233   3.303   0.110 -0.4549  0.1667  0.0161
14352TIP3    H164547   1.179   3.268   0.039  2.4132 -3.0732 -0.8113
14352TIP3    H264548   1.191   3.272   0.190 -1.7952  0.8901 -0.3793
14353TIP3   OH264549   2.058   4.994  16.431 -0.2222 -0.2178 -0.0309
14353TIP3    H164550   2.009   4.949  16.499 -1.5238 -1.5305 -1.7255
14353TIP3    H264551   2.122   4.930  16.401  1.2052  0.7839  0.7644
14354TIP3   OH264552   1.281   2.722   2.041  0.5597  0.4565  0.6543
14354TIP3    H164553   1.218   2.772   1.989 -0.8171 -2.1255 -0.3317
14354TIP3    H264554   1.270   2.756   2.130 -0.6692  1.5354  0.1376
14355TIP3   OH264555   2.356   5.046   0.225 -0.0528 -0.0922  0.3218
14355TIP3    H164556   2.369   5.077   0.315  0.9564 -1.1542  0.5743
14355TIP3    H264557   2.417   4.972   0.217 -1.9008 -1.6134 -0.4133
14356TIP3   OH264558   5.714   2.368  10.842  0.5875 -0.3315  0.6591
14356TIP3    H164559   5.747   2.361  10.752  1.7234  0.6836  0.9791
14356TIP3    H264560   5.774   2.314  10.893 -0.3120 -1.2600  0.7761
14357TIP3   OH264561   6.594   6.546  13.100  0.2490  0.4541 -0.3247
14357TIP3    H164562   6.580   6.617  13.162 -0.5701  1.0000 -1.0977
14357TIP3    H264563   6.509   6.536  13.055  1.1766  1.0795 -2.3576
14358TIP3   OH264564   1.936   5.361  12.281  0.5732  0.1363  0.0813
14358TIP3    H164565   2.002   5.368  12.350 -1.3165 -0.3330  2.0329
14358TIP3    H264566   1.945   5.442  12.231  2.5457  0.1145  0.3019
14359TIP3   OH264567   4.952   5.478   0.998  0.3595  0.0976  0.1020
14359TIP3    H164568   4.986   5.437   1.077 -0.5411  0.4137  0.6619
14359TIP3    H264569   5.029   5.512   0.953  0.8282  0.3955  1.1147
14360TIP3   OH264570   2.967   6.750  15.943 -0.1714 -0.3077 -0.9169
14360TIP3    H164571   2.940   6.674  15.891 -1.1880  1.6874 -3.5623
14360TIP3    H264572   2.885   6.786  15.977 -0.0460  1.1284 -2.0556
14361TIP3   OH264573   0.972   0.007   0.213 -0.1268 -0.3051  0.4790
14361TIP3    H164574   1.030  -0.013   0.286  1.3445 -1.9446 -1.0459
14361TIP3    H264575   1.026   0.057   0.152 -0.9268 -0.1352 -0.1163
14362TIP3   OH264576   4.387   4.438   3.749  0.6216 -0.1236  0.6653
14362TIP3    H164577   4.453   4.383   3.706  1.3014  0.9133  0.3520
14362TIP3    H264578   4.311   4.434   3.690 -0.3335 -2.7917  1.9123
14363TIP3   OH264579   0.530   4.614   4.687  0.3522 -0.6037  0.0352
14363TIP3    H164580   0.590   4.652   4.623  1.6897  1.5889  2.4176
14363TIP3    H264581   0.559   4.523   4.697  2.0319 -0.1356 -0.3305
14364TIP3   OH264582   3.456   2.014  10.549  0.1367 -0.1897 -0.2919
14364TIP3    H164583   3.490   1.962  10.476  0.1254  0.7865 -1.0148
14364TIP3    H264584   3.385   2.066  10.511 -0.7694 -0.6342  0.7211
14365TIP3   OH264585   0.888   5.465   6.255  0.2944  0.2834  0.1479
14365TIP3    H164586   0.927   5.393   6.305  0.3074 -0.1679 -0.5056
14365TIP3    H264587   0.795   5.443   6.250 -0.2595  1.7843  2.4430
14366TIP3   OH264588   4.328   3.577   0.829  0.0255  0.0464 -0.2786
14366TIP3    H164589   4.362   3.619   0.750 -2.6173  0.1729 -1.4687
14366TIP3    H264590   4.337   3.643   0.898  4.2485 -0.7456  0.2040
14367TIP3   OH264591   1.170   5.534   0.827  0.0356  0.0264 -0.0487
14367TIP3    H164592   1.246   5.513   0.882 -1.6798 -1.2736  2.0097
14367TIP3    H264593   1.155   5.455   0.776 -0.9746 -0.4211  0.9056
14368TIP3   OH264594   4.680   0.207  15.700 -0.3371  0.5066 -0.2976
14368TIP3    H164595   4.683   0.169  15.612 -2.1706  1.0469 -0.6419
14368TIP3    H264596   4.615   0.276  15.694 -1.5281 -0.3241  1.7931
14369TIP3   OH264597   5.088   2.916  14.086  0.2907  0.3549 -0.1102
14369TIP3    H164598   5.090   2.993  14.143 -0.9083 -0.7516  1.5151
14369TIP3    H264599   4.996   2.907  14.062  0.2294 -1.1999  0.6398
14370TIP3   OH264600   2.066   2.826   0.369  0.1159  0.5571  0.8681
14370TIP3    H164601   2.083   2.737   0.338 -1.4331 -0.0591  1.6541
14370TIP3    H264602   2.121   2.882   0.314  1.0096 -0.8718  0.2599
14371TIP3   OH264603   1.898   2.210  15.090 -0.4600  0.9629  0.7420
14371TIP3    H164604   1.977   2.161  15.114 -1.9056 -1.1184  1.5643
14371TIP3    H264605   1.828   2.145  15.092 -1.8293  2.1125 -2.7128
14372TIP3   OH264606   2.491   5.500   2.181 -0.4412 -0.0716  0.3803
14372TIP3    H164607   2.550   5.558   2.229  0.7407 -1.2688  0.4588
14372TIP3    H264608   2.442   5.557   2.123  0.3522  1.0454  0.7775
14373TIP3   OH264609   6.281   1.042  15.159 -0.1202  0.0462 -0.0300
14373TIP3    H164610   6.256   1.093  15.082  1.8996  0.8068 -0.2453
14373TIP3    H264611   6.361   0.997  15.133 -0.8274 -1.7910  0.7908
14374TIP3   OH264612   1.996   5.181   2.076  0.3077  0.3600 -0.0841
14374TIP3    H164613   2.024   5.170   2.167  0.0970  0.9832  0.0547
14374TIP3    H264614   1.996   5.092   2.041  1.3325  0.2117  0.2462
14375TIP3   OH264615   5.019   1.458   5.008  0.5305 -0.0804 -0.7136
14375TIP3    H164616   5.110   1.443   5.035  0.3620  0.4817  0.1850
14375TIP3    H264617   4.967   1.436   5.085 -0.0843 -0.1828 -1.1549
14376TIP3   OH264618   3.991   5.749  10.433 -0.3095  0.2934 -0.3432
14376TIP3    H164619   3.904   5.717  10.456 -0.5479  0.6830 -0.6921
14376TIP3    H264620   3.986   5.768  10.339  0.3043 -0.1699 -0.4723
14377TIP3   OH264621   0.706   4.070  13.327 -0.2291 -0.0363 -0.2328
14377TIP3    H164622   0.780   4.060  13.266  0.2108 -0.1001  0.2973
14377TIP3    H264623   0.746   4.107  13.406 -0.7949  0.0586  0.0120
14378TIP3   OH264624   3.382   0.526   4.071 -0.5112  0.6129  0.3748
14378TIP3    H164625   3.306   0.467   4.072 -0.4486  0.5385  0.8634
14378TIP3    H264626   3.399   0.545   4.163  0.5153  0.0408  0.3258
14379TIP3   OH264627   1.828   3.751  12.930 -0.2822  0.2978 -0.1115
14379TIP3    H164628   1.873   3.739  12.846  2.6067 -0.0124  1.3767
14379TIP3    H264629   1.879   3.700  12.992 -0.6317  2.7875  2.4064
14380TIP3   OH264630   4.484   5.228   4.270  0.3795 -0.5611  0.2125
14380TIP3    H164631   4.544   5.303   4.269  0.7382 -0.8402 -0.4872
14380TIP3    H264632   4.519   5.171   4.339  0.3232 -0.2515  0.4964
14381TIP3   OH264633   6.592   5.224  16.141 -0.2994  0.1103  0.2519
14381TIP3    H164634   6.530   5.208  16.212  1.0306 -0.5321  1.3198
14381TIP3    H264635   6.605   5.319  16.141 -1.4299  0.2699 -0.1277
14382TIP3   OH264636   4.635   4.387  16.341  0.2344  0.4126 -0.2095
14382TIP3    H164637   4.579   4.314  16.369 -0.1424  1.4959  2.1471
14382TIP3    H264638   4.604   4.408  16.253  1.5764 -3.3751 -1.8030
14383TIP3   OH264639   4.028   1.173   5.818  0.8793  0.6848  0.0431
14383TIP3    H164640   3.963   1.218   5.873 -2.3540 -2.9165 -0.3815
14383TIP3    H264641   4.072   1.113   5.877  1.2692  0.5744 -0.3556
14384TIP3   OH264642   0.958   0.037   5.204  0.1968 -0.3717 -0.8162
14384TIP3    H164643   1.027   0.073   5.149  0.3759 -0.0132 -0.3553
14384TIP3    H264644   0.960   0.089   5.284 -0.4596 -0.4996 -0.7072
14385TIP3   OH264645   1.500   2.527  13.088  0.1163  0.3386  0.1308
14385TIP3    H164646   1.589   2.504  13.062 -1.0151 -1.3175 -2.8363
14385TIP3    H264647   1.472   2.455  13.144  0.0285 -0.2044 -0.5880
14386TIP3   OH264648   1.333   4.997   1.920 -0.0219  0.4760 -0.1516
14386TIP3    H164649   1.386   5.040   1.853  2.4169 -0.6438  0.9417
14386TIP3    H264650   1.395   4.944   1.970 -1.4796  1.8980  3.5632
14387TIP3   OH264651   5.758   3.815   1.239  0.0644 -0.2064 -0.3456
14387TIP3    H164652   5.789   3.905   1.238  1.6281 -0.7011 -1.0307
14387TIP3    H264653   5.771   3.786   1.330 -1.7451  0.6329  0.2200
14388TIP3   OH264654   5.277   6.191   1.636  0.7767 -0.1947  0.3724
14388TIP3    H164655   5.229   6.260   1.681 -0.0214  0.0700 -0.8351
14388TIP3    H264656   5.238   6.187   1.549  3.5708  0.7545 -1.0745
14389TIP3   OH264657   5.759   5.059  11.916 -0.1514  0.5399 -0.4796
14389TIP3    H164658   5.850   5.058  11.885 -0.2770 -0.7647 -0.8680
14389TIP3    H264659   5.727   5.145  11.891  0.5856  0.5265 -1.5551
14390TIP3   OH264660   5.367   0.652  14.696 -0.5101 -0.3452 -0.4424
14390TIP3    H164661   5.365   0.675  14.789 -1.0196  2.0668 -0.9799
14390TIP3    H264662   5.457   0.669  14.669 -0.7205  0.4247 -0.6915
14391TIP3   OH264663   3.225   1.830   6.691  0.1991 -0.2195 -0.0193
14391TIP3    H164664   3.179   1.748   6.674 -0.0081  0.2763 -2.0541
14391TIP3    H264665   3.162   1.898   6.668  0.8292  0.5076  0.3561
14392TIP3   OH264666   1.862   3.869   0.237 -0.1958 -0.1471  0.1865
14392TIP3    H164667   1.839   3.921   0.314  0.4319  0.3116  0.0728
14392TIP3    H264668   1.778   3.849   0.195 -0.4605  0.5973  0.3514
14393TIP3   OH264669   4.375   4.631  16.887  0.9355  0.7064 -0.3585
14393TIP3    H164670   4.464   4.654  16.858  1.3729 -2.1106 -1.5274
14393TIP3    H264671   4.326   4.619  16.806  1.0463 -3.1347 -0.0333
14394TIP3   OH264672   0.216   1.087   5.467 -0.9304  0.3765 -0.3144
14394TIP3    H164673   0.239   1.109   5.377 -0.3923  1.0156 -0.0279
14394TIP3    H264674   0.270   1.010   5.488 -0.5078  0.6730 -0.2994
14395TIP3   OH264675   5.733   1.767   0.957 -0.1567 -0.1247  0.5391
14395TIP3    H164676   5.719   1.837   0.892  0.0253  1.9408  2.5822
14395TIP3    H264677   5.814   1.725   0.929  1.0117  2.0104  0.4297
14396TIP3   OH264678   0.985   3.874  13.601 -0.3921 -0.2735  0.0104
14396TIP3    H164679   1.046   3.805  13.626 -1.9905 -1.4098  0.9709
14396TIP3    H264680   0.933   3.889  13.680 -1.2106  0.8120 -0.7033
14397TIP3   OH264681   1.431   1.766   5.760 -0.3013  0.1212  0.6692
14397TIP3    H164682   1.366   1.743   5.693  0.9129 -0.6276 -0.2962
14397TIP3    H264683   1.488   1.831   5.717  0.2862 -0.1133  1.0802
14398TIP3   OH264684   6.033   0.666  16.289 -0.5068 -0.6815 -0.1872
14398TIP3    H164685   6.011   0.752  16.326 -0.0378 -0.8001  0.3760
14398TIP3    H264686   6.030   0.606  16.364 -1.9233 -1.3754 -0.7622
14399TIP3   OH264687   6.537   5.659  16.156 -0.6825 -0.1088  0.0798
14399TIP3    H164688   6.450   5.630  16.185 -0.5758 -0.4851  0.0305
14399TIP3    H264689   6.536   5.754  16.168 -0.9963 -0.1450  0.3612
14400TIP3   OH264690   3.908   0.361  13.175 -0.0276  0.1787 -0.5516
14400TIP3    H164691   3.818   0.332  13.159 -0.0775  1.0896 -2.2591
14400TIP3    H264692   3.940   0.305  13.245 -1.2033 -1.6767 -1.4196
14401TIP3   OH264693   3.345   3.557  15.463  0.0284 -0.0702 -0.3492
14401TIP3    H164694   3.315   3.584  15.550 -1.8859 -2.6761 -0.0974
14401TIP3    H264695   3.400   3.480  15.479 -0.5921 -0.7652 -1.4317
14402TIP3   OH264696   4.017   2.351  16.439  0.2335 -0.0346 -0.0171
14402TIP3    H164697   3.993   2.433  16.396  1.3004 -0.6692 -1.9360
14402TIP3    H264698   4.019   2.286  16.369 -0.8892 -1.8232  1.4798
14403TIP3   OH264699   1.923   1.178  16.296 -0.2322 -0.0192 -0.6409
14403TIP3    H164700   2.007   1.206  16.333 -0.7717  0.3249  0.3688
14403TIP3    H264701   1.904   1.095  16.341 -0.6007  0.0914 -0.5875
14404TIP3   OH264702   2.084   0.486   2.967  0.1618  0.5089 -0.2889
14404TIP3    H164703   2.082   0.428   3.043  1.5381  2.5314  1.3992
14404TIP3    H264704   2.169   0.468   2.925  0.0719  0.4799 -0.4617
14405TIP3   OH264705   0.972   0.841   0.757 -0.3572  0.4414 -0.3779
14405TIP3    H164706   0.983   0.908   0.824  0.0818 -0.9370  0.9653
14405TIP3    H264707   0.905   0.782   0.792  0.2106 -0.5573 -0.9206
14406TIP3   OH264708   1.259   4.738   3.590 -0.3639  0.0316 -0.3143
14406TIP3    H164709   1.173   4.765   3.557 -0.4263  0.6362  0.3315
14406TIP3    H264710   1.303   4.699   3.514 -0.3547  1.7569 -1.2409
14407TIP3   OH264711   4.477   2.886   6.261 -0.3341  0.3923 -0.3316
14407TIP3    H164712   4.408   2.950   6.277 -0.6917  0.2452 -1.2514
14407TIP3    H264713   4.524   2.880   6.345 -1.6422  0.2357  0.4159
14408TIP3   OH264714   3.431   6.649   4.940  0.4140 -0.5412  0.2792
14408TIP3    H164715   3.371   6.681   5.008  1.1694 -0.2455  0.8106
14408TIP3    H264716   3.503   6.711   4.940 -0.1188  0.1444 -1.6394
14409TIP3   OH264717   2.244   2.924   3.287 -0.1611 -0.6149 -0.0582
14409TIP3    H164718   2.308   2.954   3.351  0.5171 -0.6860 -0.6833
14409TIP3    H264719   2.177   2.993   3.285 -0.3887 -0.7938  0.9838
14410TIP3   OH264720   1.604   6.849  11.606  0.1857 -0.1924  0.2120
14410TIP3    H164721   1.614   6.768  11.655  1.2566  1.5738  3.2097
14410TIP3    H264722   1.515   6.879  11.628  1.6618  2.1397  4.0220
14411TIP3   OH264723   3.566   6.586  12.146  0.1010  0.2716 -0.0049
14411TIP3    H164724   3.488   6.639  12.131 -0.2764  0.0812  1.1746
14411TIP3    H264725   3.584   6.545  12.062 -1.0681  0.3224 -0.2960
14412TIP3   OH264726   6.236   6.443  15.845 -0.6323  0.6690  0.1909
14412TIP3    H164727   6.217   6.357  15.807 -4.1404 -0.2030  3.2495
14412TIP3    H264728   6.178   6.503  15.798 -0.0812  0.8621 -0.2408
14413TIP3   OH264729   5.196   6.219  14.382 -0.3811 -0.1017 -0.2885
14413TIP3    H164730   5.279   6.201  14.337 -1.2856 -0.9309 -1.6734
14413TIP3    H264731   5.210   6.188  14.471  0.8714 -0.0048 -0.4311
14414TIP3   OH264732   6.455   3.780   3.390  0.6579 -0.0925  0.1640
14414TIP3    H164733   6.496   3.835   3.457 -1.3768 -0.2485  1.6564
14414TIP3    H264734   6.377   3.829   3.363  0.3936 -0.9328 -0.6500
14415TIP3   OH264735   5.402   2.724  11.288  0.1415  0.0896 -0.4227
14415TIP3    H164736   5.477   2.690  11.336 -0.3693 -0.7165 -0.1782
14415TIP3    H264737   5.368   2.649  11.240 -0.3142  0.5214 -0.7917
14416TIP3   OH264738   0.237   4.820   2.193 -0.3832  0.1508  0.5858
14416TIP3    H164739   0.181   4.894   2.216 -0.9859  0.0300 -0.4207
14416TIP3    H264740   0.309   4.859   2.142 -0.8389  0.0363 -0.1696
14417TIP3   OH264741   5.149   4.903  17.076 -0.1040  0.0002 -0.2092
14417TIP3    H164742   5.101   4.824  17.101 -0.6889  0.0550 -1.1196
14417TIP3    H264743   5.196   4.878  16.996  0.0781  0.4301 -0.2370
14418TIP3   OH264744   2.137   4.749  14.362 -0.1872 -0.4869  0.2433
14418TIP3    H164745   2.135   4.839  14.328  1.0661 -0.3171  0.5699
14418TIP3    H264746   2.196   4.753  14.437 -1.8860 -1.1402  1.6881
14419TIP3   OH264747   1.462   4.711   1.856 -0.1058 -0.3022 -0.5792
14419TIP3    H164748   1.457   4.771   1.930 -0.6537 -0.0932 -0.7786
14419TIP3    H264749   1.441   4.625   1.893 -2.9287  0.1532 -0.8991
14420TIP3   OH264750   1.095   1.254   1.403  0.4884  0.0339 -0.2910
14420TIP3    H164751   1.025   1.234   1.464 -0.1447  2.1788 -0.2523
14420TIP3    H264752   1.171   1.273   1.459  0.3412  0.4423 -0.2297
14421TIP3   OH264753   0.893   5.759  13.756 -0.0731 -0.3343  0.3929
14421TIP3    H164754   0.840   5.823  13.805 -1.2553  0.7396 -2.0837
14421TIP3    H264755   0.968   5.809  13.725 -0.1485 -0.5668 -0.1779
14422TIP3   OH264756   6.111   0.833  12.641  0.0200  0.3168 -0.2106
14422TIP3    H164757   6.095   0.852  12.549 -1.5329  1.3747  0.2414
14422TIP3    H264758   6.199   0.867  12.658  0.7659 -0.8495 -1.5282
14423TIP3   OH264759   2.247   6.664   0.016 -0.2048  0.0889  0.7341
14423TIP3    H164760   2.234   6.573   0.042  3.6930 -0.7786  0.2366
14423TIP3    H264761   2.230   6.714   0.096 -0.3522 -1.2722  1.5995
14424TIP3   OH264762   5.077   1.683   2.895  0.0723  0.2955 -1.0840
14424TIP3    H164763   5.073   1.771   2.857  0.9716  0.0830 -1.7233
14424TIP3    H264764   5.169   1.672   2.919 -0.2893  0.0212  0.2262
14425TIP3   OH264765   5.512   2.342   2.600 -0.0300  0.4041  0.4514
14425TIP3    H164766   5.452   2.385   2.538  0.4779  0.8092  0.2265
14425TIP3    H264767   5.459   2.325   2.677  0.0024  2.4575  0.9788
14426TIP3   OH264768   6.502   0.992  14.834  0.2111 -0.3431  1.0873
14426TIP3    H164769   6.511   0.898  14.819  1.9822 -0.3778  2.0817
14426TIP3    H264770   6.592   1.023  14.845 -0.1309  1.8703 -1.3507
14427TIP3   OH264771   6.215   3.797   0.286  0.1427  0.0820  0.2173
14427TIP3    H164772   6.156   3.722   0.271  0.0169  0.0214  0.9590
14427TIP3    H264773   6.196   3.857   0.214  2.1537 -1.7337 -1.9829
14428TIP3   OH264774   3.341   3.920  15.211 -0.4063  0.3001 -0.4467
14428TIP3    H164775   3.388   3.838  15.198 -0.5421  0.1230  0.1487
14428TIP3    H264776   3.284   3.904  15.286 -1.5293  0.4636 -1.2292
14429TIP3   OH264777   1.631   2.329  14.988  0.2780  0.4030 -0.1515
14429TIP3    H164778   1.708   2.287  14.950  0.6450  2.0855 -1.4237
14429TIP3    H264779   1.603   2.271  15.059  2.3596 -0.5306 -0.0410
14430TIP3   OH264780   2.089   5.298   2.356 -0.0676 -0.2760  0.2312
14430TIP3    H164781   2.095   5.375   2.413  1.2428  0.6715 -1.1134
14430TIP3    H264782   2.000   5.264   2.370 -0.6350  1.4161  0.9412
14431TIP3   OH264783   6.454   5.367   1.188 -0.2207 -0.4798 -0.2955
14431TIP3    H164784   6.447   5.273   1.172  0.7489 -0.5600 -0.3183
14431TIP3    H264785   6.378   5.405   1.145  0.9812 -0.9214 -3.0307
14432TIP3   OH264786   5.941   2.750  13.163  0.3380 -0.2634 -0.3824
14432TIP3    H164787   5.928   2.735  13.257  2.2182  1.5700  0.2337
14432TIP3    H264788   5.857   2.784  13.133 -0.4658 -1.3697  0.4723
14433TIP3   OH264789   5.673   4.407   1.764  0.0524  0.1068  0.2771
14433TIP3    H164790   5.648   4.376   1.677  0.2410  0.1039  0.2241
14433TIP3    H264791   5.637   4.496   1.768 -1.0479 -0.3403  0.6733
14434TIP3   OH264792   3.322   3.998   6.201  0.4148 -0.4966  0.3568
14434TIP3    H164793   3.406   3.965   6.169 -0.1031 -0.2304 -1.3656
14434TIP3    H264794   3.306   4.078   6.152 -1.5572 -1.3572 -0.5455
14435TIP3   OH264795   6.633   0.667   0.991  0.1084 -0.3524 -0.0825
14435TIP3    H164796   6.567   0.599   1.002 -0.3178 -0.0015 -0.4323
14435TIP3    H264797   6.692   0.633   0.923 -0.6434  0.0123 -0.9500
14436TIP3   OH264798   5.780   5.082   4.741 -0.2121 -0.1776  0.1408
14436TIP3    H164799   5.826   5.158   4.705 -0.9546 -0.7344 -2.1165
14436TIP3    H264800   5.843   5.042   4.801  1.0357  0.9126 -0.4012
14437TIP3   OH264801   3.128   6.330  14.383 -0.4659  0.3092 -0.4743
14437TIP3    H164802   3.177   6.393  14.436  2.8424 -2.0422 -0.3598
14437TIP3    H264803   3.106   6.259  14.444 -1.6081  0.0763 -1.1361
14438TIP3   OH264804   2.581   5.917  13.526 -0.0162 -0.0538  0.0056
14438TIP3    H164805   2.578   5.968  13.445  1.2024 -2.3339 -1.5783
14438TIP3    H264806   2.509   5.855  13.516 -0.3734  0.1803  1.0809
14439TIP3   OH264807   1.737   2.826  12.556  0.2021 -0.2151 -0.0035
14439TIP3    H164808   1.657   2.860  12.597 -0.1576 -0.0747 -0.8043
14439TIP3    H264809   1.785   2.786  12.628 -0.7357 -0.5805  0.4363
14440TIP3   OH264810   3.847   3.428   2.838  0.5503 -0.5678  0.4739
14440TIP3    H164811   3.797   3.421   2.756  0.8127 -2.0902  0.4135
14440TIP3    H264812   3.877   3.518   2.840 -0.9712 -0.0121 -0.2170
14441TIP3   OH264813   1.853   0.289  16.865  0.1377  0.1569 -0.1662
14441TIP3    H164814   1.926   0.310  16.807  0.3236  0.1922  0.0792
14441TIP3    H264815   1.873   0.203  16.900  0.5496  0.5731  0.6511
14442TIP3   OH264816   0.555   3.816   1.907 -0.1603 -0.3693  0.7287
14442TIP3    H164817   0.494   3.886   1.930  0.5786  0.8145 -0.7431
14442TIP3    H264818   0.641   3.858   1.907  0.2666 -1.2004 -0.4344
14443TIP3   OH264819   4.284   6.414   3.955 -0.0347 -0.8746 -0.1880
14443TIP3    H164820   4.309   6.391   4.044  0.2494  1.8950  0.5586
14443TIP3    H264821   4.194   6.446   3.963 -0.0376 -0.6890 -0.9000
14444TIP3   OH264822   2.128   0.093   2.683  0.1648  0.1734 -0.1156
14444TIP3    H164823   2.172   0.164   2.729 -0.5131  1.9627 -2.0895
14444TIP3    H264824   2.191   0.064   2.617 -0.4233  0.5411 -0.8438
14445TIP3   OH264825   2.742   3.273  11.080 -0.7543 -0.3888  0.7973
14445TIP3    H164826   2.685   3.344  11.110 -0.5192  1.5712 -2.8790
14445TIP3    H264827   2.682   3.200  11.063 -2.1998  1.2218 -1.7704
14446TIP3   OH264828   3.908   1.186  10.199 -0.5094  0.1129  0.8835
14446TIP3    H164829   3.860   1.253  10.248 -1.1318  0.6569 -0.4213
14446TIP3    H264830   3.848   1.159  10.130  0.5661 -0.1774  0.0396
14447TIP3   OH264831   5.735   4.151  17.020  0.1662 -0.6240 -0.0469
14447TIP3    H164832   5.710   4.062  17.044 -1.5953 -0.0257  0.4798
14447TIP3    H264833   5.692   4.166  16.936 -0.7607  0.2030  0.5539
14448TIP3   OH264834   0.465   1.259   4.350  0.0181  1.2297 -0.4375
14448TIP3    H164835   0.482   1.175   4.307  1.2456  0.2255  1.8477
14448TIP3    H264836   0.533   1.317   4.318  0.3439  0.7831 -0.5626
14449TIP3   OH264837   0.228   1.578  13.527 -0.0190 -0.6039 -0.5794
14449TIP3    H164838   0.218   1.500  13.472 -2.1850 -0.6146 -0.2826
14449TIP3    H264839   0.138   1.606  13.544  0.5366  4.0186 -3.5097
14450TIP3   OH264840   4.956   3.717   2.074 -0.2875  1.2666  0.2634
14450TIP3    H164841   4.918   3.704   1.986  1.9504 -1.1237 -0.4807
14450TIP3    H264842   4.903   3.662   2.131 -1.0560  1.9419  0.2122
14451TIP3   OH264843   3.891   2.537   4.922  0.0713 -0.3768  0.5441
14451TIP3    H164844   3.927   2.483   4.852  0.1289 -0.0877  0.3507
14451TIP3    H264845   3.842   2.476   4.977  0.1940 -0.6362  0.3632
14452TIP3   OH264846   4.811   6.594   5.334 -0.1885  0.0388 -1.2968
14452TIP3    H164847   4.840   6.502   5.335  2.6560  0.8690 -0.7451
14452TIP3    H264848   4.864   6.635   5.266  0.9842  1.9456  0.6681
14453TIP3   OH264849   3.256   0.931  14.373 -0.3823 -0.1326 -0.2241
14453TIP3    H164850   3.255   0.863  14.305  2.4874 -1.0968  0.5659
14453TIP3    H264851   3.169   0.969  14.369 -1.3302 -2.2346 -2.3460
14454TIP3   OH264852   4.445   0.080   4.898 -0.2869 -0.1205 -0.2593
14454TIP3    H164853   4.353   0.066   4.875 -0.2941 -0.3588 -0.0882
14454TIP3    H264854   4.490   0.002   4.864  0.0103  0.4638 -1.2421
14455TIP3   OH264855   3.961   4.489  12.845 -0.2040  0.2046  0.3754
14455TIP3    H164856   3.970   4.533  12.760 -1.9359 -0.1779 -0.0543
14455TIP3    H264857   3.997   4.402  12.831 -0.5684  0.1121 -0.0070
14456TIP3   OH264858   1.703   6.606   3.641 -0.1283 -0.0678 -0.1368
14456TIP3    H164859   1.637   6.549   3.601  0.0906 -1.2510  1.1154
14456TIP3    H264860   1.772   6.546   3.668  0.1686  0.8092  1.1114
14457TIP3   OH264861   2.224   5.654  14.508  0.1400  0.8485  0.4363
14457TIP3    H164862   2.259   5.743  14.508  0.9315  0.5470 -0.6880
14457TIP3    H264863   2.251   5.616  14.424 -1.3501 -0.0043  0.2947
14458TIP3   OH264864   6.606   6.264   1.367 -0.3164  0.0958 -0.0791
14458TIP3    H164865   6.641   6.298   1.284  0.8621  0.4410  0.5448
14458TIP3    H264866   6.540   6.328   1.393  1.0446  1.3121  0.4789
14459TIP3   OH264867   0.870   5.677  14.710  0.1096  0.1130 -0.3282
14459TIP3    H164868   0.855   5.760  14.754  0.2617  0.4733 -0.9457
14459TIP3    H264869   0.846   5.611  14.775  0.6329  0.6243  0.4057
14460TIP3   OH264870   1.165   1.493   2.088 -0.0139  0.0525 -0.2141
14460TIP3    H164871   1.213   1.574   2.073  2.3775 -1.6256 -2.7250
14460TIP3    H264872   1.178   1.474   2.181  0.5910  1.7941  0.0993
14461TIP3   OH264873   5.660   5.337   0.729  0.2734  0.1737 -0.0643
14461TIP3    H164874   5.670   5.432   0.738  2.6059  0.1549 -1.6743
14461TIP3    H264875   5.570   5.320   0.757 -0.4626  2.9447 -0.4375
14462TIP3   OH264876   4.989   4.282  14.810  0.3497 -0.0113  0.5021
14462TIP3    H164877   4.913   4.230  14.836  0.5300 -0.9064 -0.6707
14462TIP3    H264878   4.955   4.348  14.751  0.5056 -0.6132 -0.2788
14463TIP3   OH264879   3.995   5.658  13.463 -0.5645  0.0004  0.0499
14463TIP3    H164880   4.039   5.574  13.477  1.0113  0.5434 -1.3482
14463TIP3    H264881   3.999   5.672  13.369 -2.6894  0.6955 -0.0055
14464TIP3   OH264882   2.560   5.744   3.461 -0.3031  0.1585  0.5681
14464TIP3    H164883   2.525   5.832   3.444 -3.1453 -0.3092  2.9994
14464TIP3    H264884   2.485   5.686   3.447  1.0503 -1.6955  0.6997
14465TIP3   OH264885   2.593   2.958   0.991  0.5621 -0.7179  0.6214
14465TIP3    H164886   2.662   2.900   0.957  1.3805 -1.4117  3.2564
14465TIP3    H264887   2.635   3.043   0.998  0.8993 -0.9427  1.3980
14466TIP3   OH264888   3.476   5.901   0.952  0.5598  0.3392 -0.2851
14466TIP3    H164889   3.433   5.849   1.020  0.3608 -1.0210 -1.3948
14466TIP3    H264890   3.403   5.937   0.901  0.6592  2.7551  1.1634
14467TIP3   OH264891   1.092   5.611  15.246 -0.1887  0.1377  0.5892
14467TIP3    H164892   1.148   5.571  15.180  0.5654 -1.3114  2.0284
14467TIP3    H264893   1.007   5.568  15.235  0.3004 -1.0787  1.3715
14468TIP3   OH264894   2.490   1.005   1.907  0.8333  0.3264 -0.1775
14468TIP3    H164895   2.520   1.021   1.817  0.2333 -0.4925 -0.5290
14468TIP3    H264896   2.409   1.055   1.915  1.7720  1.8275  0.4952
14469TIP3   OH264897   6.303   1.993   5.695  0.5376  0.5031  0.1519
14469TIP3    H164898   6.360   1.947   5.635  1.4899  1.2435  0.4667
14469TIP3    H264899   6.328   2.085   5.687  0.0562  0.7226  1.0101
14470TIP3   OH264900   0.955   6.117  10.740 -0.0352 -0.1313  0.3735
14470TIP3    H164901   1.024   6.095  10.677 -0.5346  2.5296 -1.2682
14470TIP3    H264902   0.876   6.076  10.704 -0.0061 -0.0510  0.2199
14471TIP3   OH264903   4.257   3.856   4.975 -0.1581 -0.6148 -0.4777
14471TIP3    H164904   4.243   3.913   4.899  1.5688 -1.4857 -1.5313
14471TIP3    H264905   4.220   3.772   4.948  0.9729 -1.0864 -0.6247
14472TIP3   OH264906   2.337   6.779   1.386 -0.0830  0.1644 -0.6028
14472TIP3    H164907   2.432   6.777   1.378  0.1111 -1.2094  1.3140
14472TIP3    H264908   2.309   6.845   1.323  1.9822 -0.5492 -2.3958
14473TIP3   OH264909   0.281   3.024  14.499  0.2194  0.4464 -0.3776
14473TIP3    H164910   0.194   2.995  14.473 -0.5015  1.1449  1.1269
14473TIP3    H264911   0.307   3.086  14.431 -0.4336  0.1835 -0.8752
14474TIP3   OH264912   2.497   1.790  13.067 -0.3450 -0.6927 -0.2364
14474TIP3    H164913   2.479   1.697  13.067 -0.0660 -0.7771 -1.7226
14474TIP3    H264914   2.504   1.813  12.974  0.9895  0.5206  0.1260
14475TIP3   OH264915   1.136   0.662   0.624 -0.1952 -0.4602 -0.3333
14475TIP3    H164916   1.091   0.658   0.540  0.3697  0.7713 -0.7178
14475TIP3    H264917   1.075   0.707   0.683  0.0576  0.1687 -0.5430
14476TIP3   OH264918   6.339   3.819  14.571 -0.1543 -0.0692 -0.3801
14476TIP3    H164919   6.349   3.863  14.487  0.0769  0.2233 -0.2028
14476TIP3    H264920   6.305   3.886  14.629 -1.8395 -0.6771 -0.6158
14477TIP3   OH264921   4.182   5.604  11.002 -0.3273 -0.2297 -0.1794
14477TIP3    H164922   4.095   5.644  11.001 -0.1873  0.1098  0.4159
14477TIP3    H264923   4.184   5.549  10.924 -1.4185 -0.9973  0.3087
14478TIP3   OH264924   4.759   5.359   3.716  0.2746  0.5850 -0.7337
14478TIP3    H164925   4.815   5.425   3.674  1.0281  1.1917  1.1152
14478TIP3    H264926   4.703   5.410   3.775 -1.2383 -0.1697 -1.4510
14479TIP3   OH264927   6.279   0.034   2.097  0.1494  0.2022  0.1703
14479TIP3    H164928   6.259  -0.054   2.064 -0.0457  0.2924  0.0497
14479TIP3    H264929   6.278   0.090   2.020 -3.9419  1.1146  0.6073
14480TIP3   OH264930   2.831   6.699   4.494  0.2082  0.4058  0.3602
14480TIP3    H164931   2.839   6.751   4.574  2.2196 -0.2732  0.6769
14480TIP3    H264932   2.803   6.613   4.524 -1.8486  0.8972 -0.0238
14481TIP3   OH264933   5.956   3.085   0.744  0.3920 -0.9401 -0.4505
14481TIP3    H164934   5.903   3.112   0.819  0.0656  0.7524 -1.2261
14481TIP3    H264935   6.040   3.058   0.782 -0.0704 -0.9511  0.5846
14482TIP3   OH264936   6.059   6.656  11.372 -0.2162 -0.1801 -0.3826
14482TIP3    H164937   6.132   6.595  11.360 -0.4583 -0.5005 -0.2364
14482TIP3    H264938   5.987   6.602  11.402  0.0936  0.4307  1.6400
14483TIP3   OH264939   2.772   2.813  16.070 -0.3241 -0.0039  0.3233
14483TIP3    H164940   2.719   2.749  16.022 -0.6023 -0.5265  1.2924
14483TIP3    H264941   2.822   2.858  16.003 -0.3915 -1.0020 -0.4174
14484TIP3   OH264942   0.149   0.412   3.667  0.6096 -0.9719  0.0109
14484TIP3    H164943   0.189   0.330   3.695  0.4221 -0.7905  0.8689
14484TIP3    H264944   0.222   0.466   3.638  0.5896 -1.9620 -2.0332
14485TIP3   OH264945   0.701   3.608   2.189 -0.5720 -0.0743  0.3677
14485TIP3    H164946   0.790   3.640   2.171 -1.4320  1.5366 -1.4750
14485TIP3    H264947   0.689   3.623   2.283  0.3911  1.6780  0.2574
14486TIP3   OH264948   5.062   0.900   1.422 -0.3368 -0.2248 -0.3282
14486TIP3    H164949   5.003   0.870   1.491  1.4633  1.1334  1.9754
14486TIP3    H264950   5.133   0.835   1.422  0.7172  0.8525  0.6845
14487TIP3   OH264951   6.744   4.796  16.326  0.4006  0.1594  0.2306
14487TIP3    H164952   6.743   4.750  16.242 -1.8203  1.2982 -0.4616
14487TIP3    H264953   6.806   4.868  16.313  1.9725 -1.0947  0.4755
14488TIP3   OH264954   0.569   3.210   3.976  0.1877  0.0092 -0.0238
14488TIP3    H164955   0.610   3.135   4.019 -0.4407 -0.7943 -0.7779
14488TIP3    H264956   0.547   3.179   3.888 -1.3260  0.6327  0.0864
14489TIP3   OH264957   3.338   4.550  11.576  0.3897 -0.2570 -0.0322
14489TIP3    H164958   3.290   4.499  11.511  2.9997 -0.1883 -2.1618
14489TIP3    H264959   3.399   4.603  11.525 -0.4270  3.2179  2.2342
14490TIP3   OH264960   1.384   0.220  11.942  0.3735 -0.3437 -0.1131
14490TIP3    H164961   1.414   0.167  12.016  0.5329 -1.1077 -0.7039
14490TIP3    H264962   1.373   0.156  11.871 -1.7140  0.0303 -0.1983
14491TIP3   OH264963   0.834   0.899  15.709 -0.0273 -0.0119  0.3041
14491TIP3    H164964   0.774   0.840  15.755 -0.4758  0.1737 -0.0302
14491TIP3    H264965   0.834   0.868  15.618 -0.5540  0.7071  0.0420
14492TIP3   OH264966   1.592   3.813   0.203 -0.0425  0.3819  0.1343
14492TIP3    H164967   1.582   3.721   0.225  2.4154  0.3131  1.2662
14492TIP3    H264968   1.521   3.857   0.251 -2.8447 -1.0160 -2.3621
14493TIP3   OH264969   3.876   0.484   6.521 -0.3429  0.0227 -0.4999
14493TIP3    H164970   3.882   0.406   6.467 -1.3752 -0.0095 -0.5868
14493TIP3    H264971   3.964   0.496   6.557 -0.0724 -0.9126 -0.8425
14494TIP3   OH264972   2.663   4.349  13.062 -0.5558  0.1766  0.2578
14494TIP3    H164973   2.715   4.344  12.982 -2.2399  0.8085 -0.9324
14494TIP3    H264974   2.636   4.441  13.068 -0.7078  0.0784  1.3982
14495TIP3   OH264975   2.913   4.202   5.688 -0.4056 -0.0476  0.3425
14495TIP3    H164976   2.850   4.255   5.639  0.9865  2.1232  0.7631
14495TIP3    H264977   2.931   4.127   5.631 -2.5858 -0.2355 -0.2013
14496TIP3   OH264978   1.254   0.794  16.280  0.1252  0.0589 -0.3244
14496TIP3    H164979   1.245   0.699  16.290  0.4813  0.1019  0.4640
14496TIP3    H264980   1.318   0.805  16.210  0.3913 -0.2863 -0.1374
14497TIP3   OH264981   1.501   1.329   3.293 -0.2091  0.2753 -0.2217
14497TIP3    H164982   1.467   1.259   3.349 -1.7493  0.0042 -1.4509
14497TIP3    H264983   1.549   1.283   3.224 -1.1604  0.4127 -0.9887
14498TIP3   OH264984   0.481   1.539  14.722 -0.3172 -0.2440 -0.2474
14498TIP3    H164985   0.425   1.522  14.646 -0.1792  1.0268 -0.6580
14498TIP3    H264986   0.503   1.452  14.755 -1.5032 -0.7973 -0.8336
14499TIP3   OH264987   5.134   5.949  14.827 -0.5919 -0.4036 -0.5781
14499TIP3    H164988   5.044   5.970  14.801 -0.6511 -0.4643 -0.4202
14499TIP3    H264989   5.125   5.872  14.884 -0.4824 -0.1293 -0.1903
14500TIP3   OH264990   6.053   3.409   2.002  0.0463 -0.1219 -0.1889
14500TIP3    H164991   5.971   3.364   1.983  0.4395 -0.7106 -0.5302
14500TIP3    H264992   6.052   3.487   1.945  0.8314 -1.4249 -2.0972
14501TIP3   OH264993   1.029   6.704  14.774 -0.3031 -0.0712  0.0124
14501TIP3    H164994   1.032   6.724  14.680 -1.3741 -1.5838 -0.3931
14501TIP3    H264995   1.090   6.631  14.785  0.4177  0.6104  0.6642
14502TIP3   OH264996   1.852   1.390   6.015  0.3750 -0.7386 -0.5878
14502TIP3    H164997   1.810   1.456   5.959 -1.0548 -1.6590 -0.6583
14502TIP3    H264998   1.931   1.432   6.047  0.1299  0.5673 -1.6205
14503TIP3   OH264999   4.971   2.251   4.142 -0.0113  0.2753  0.3257
14503TIP3    H165000   4.988   2.255   4.048  0.7432  0.7438  0.4790
14503TIP3    H265001   5.012   2.330   4.178  2.7811 -1.5662  1.5226
14504TIP3   OH265002   5.696   0.787  13.784  0.1957 -0.2042 -0.4007
14504TIP3    H165003   5.655   0.703  13.801 -1.9570  1.0879  1.3249
14504TIP3    H265004   5.652   0.820  13.706  0.0874 -0.1106 -0.3007
14505TIP3   OH265005   5.311   1.482   5.559 -0.7022 -0.6080 -0.2371
14505TIP3    H165006   5.302   1.502   5.652  0.0275  1.0925 -0.4921
14505TIP3    H265007   5.306   1.387   5.554 -0.5585 -0.7387  1.5583
14506TIP3   OH265008   1.378   3.918  15.224  0.2196 -0.4327  0.3161
14506TIP3    H165009   1.429   3.869  15.160  0.3486  0.1415 -0.0313
14506TIP3    H265010   1.380   4.008  15.192 -1.6176 -0.5029 -0.1001
14507TIP3   OH265011   5.766   2.702  15.894  0.0484  0.7343 -0.5493
14507TIP3    H165012   5.779   2.620  15.845 -0.4103  0.4724 -0.2445
14507TIP3    H265013   5.814   2.768  15.844  0.6436  0.2265 -0.6548
14508TIP3   OH265014   6.661   0.219   3.120  0.2269 -0.5327  0.1353
14508TIP3    H165015   6.710   0.224   3.038 -0.3606 -0.3317 -0.2094
14508TIP3    H265016   6.686   0.135   3.159  0.6054 -0.5681 -0.1888
14509TIP3   OH265017   5.193   2.825  11.124  0.0244  0.5752 -0.1473
14509TIP3    H165018   5.247   2.800  11.198  0.3101  2.2362  0.2406
14509TIP3    H265019   5.105   2.793  11.146  0.5938 -1.2539 -0.3306
14510TIP3   OH265020   3.504   1.865   5.712  0.3101  0.2820  0.0464
14510TIP3    H165021   3.466   1.842   5.797  0.4764  0.3558  0.1415
14510TIP3    H265022   3.540   1.952   5.725 -0.3299  0.6094 -0.3152
14511TIP3   OH265023   0.409   1.469  16.240  0.3295 -0.3254  0.1190
14511TIP3    H165024   0.321   1.441  16.216  0.3208  0.5062 -0.8850
14511TIP3    H265025   0.440   1.402  16.301 -1.0075 -0.6064  0.5214
14512TIP3   OH265026   4.275   3.493  15.892 -0.0012 -0.0889  0.0793
14512TIP3    H165027   4.209   3.561  15.906 -0.5654 -0.6705  0.2853
14512TIP3    H265028   4.247   3.420  15.947  0.2577 -0.7140 -0.6017
14513TIP3   OH265029   1.189   0.920  14.620 -0.0873 -0.0479  0.3851
14513TIP3    H165030   1.150   0.911  14.707  0.2833 -1.3192  0.4340
14513TIP3    H265031   1.260   0.855  14.618  1.6179  1.7106  0.0627
14514TIP3   OH265032   4.821   2.483   4.890  0.1049 -0.2686  0.0592
14514TIP3    H165033   4.903   2.504   4.846  0.1150  1.6548  0.8941
14514TIP3    H265034   4.797   2.396   4.856  2.1942 -0.6511 -0.5794
14515TIP3   OH265035   4.345   2.853  11.632  0.1673 -0.2654 -0.3900
14515TIP3    H165036   4.372   2.938  11.666  0.1643  0.3416 -1.8529
14515TIP3    H265037   4.422   2.797  11.643 -0.3890 -0.6493  2.2681
14516TIP3   OH265038   3.027   4.656   1.014 -0.4228  0.1967  0.1231
14516TIP3    H165039   2.993   4.734   0.972 -1.3324 -0.5881 -0.6546
14516TIP3    H265040   3.122   4.662   1.004 -0.5853  0.3162 -1.5616
14517TIP3   OH265041   5.185   0.547  12.657 -0.1537 -0.1888  0.0278
14517TIP3    H165042   5.107   0.593  12.625  1.1951  1.5724 -0.8997
14517TIP3    H265043   5.227   0.610  12.716  0.5535 -1.1361  0.5688
14518TIP3   OH265044   1.853   4.854   3.517  0.4110  0.0890  0.4618
14518TIP3    H165045   1.880   4.936   3.476 -2.8475  0.4416 -1.2975
14518TIP3    H265046   1.860   4.871   3.611  3.0781  1.0827  0.1849
14519TIP3   OH265047   3.782   1.847   5.994  0.1979 -0.9944 -0.3532
14519TIP3    H165048   3.801   1.812   6.081  0.2411  0.8504  0.4180
14519TIP3    H265049   3.861   1.897   5.971 -0.9570  1.0778 -0.0707
14520TIP3   OH265050   4.498   5.097  11.477 -0.6085 -0.7522 -0.1614
14520TIP3    H165051   4.519   5.190  11.468  0.4356 -1.0202 -0.7182
14520TIP3    H265052   4.536   5.072  11.562  4.2592 -1.8853 -2.3325
14521TIP3   OH265053   1.442   2.136  13.180  0.0228  0.3557 -0.0252
14521TIP3    H165054   1.447   2.086  13.099 -2.2432  0.4907 -0.3278
14521TIP3    H265055   1.509   2.204  13.171 -0.3130  0.4923 -1.9117
14522TIP3   OH265056   4.872   6.484   0.442 -0.6078 -0.5726  1.1244
14522TIP3    H165057   4.816   6.407   0.446  1.1340 -2.0644 -0.6847
14522TIP3    H265058   4.873   6.507   0.349  0.5857  0.3115  1.3387
14523TIP3   OH265059   3.228   3.264   3.945 -0.4103 -0.5010 -0.1900
14523TIP3    H165060   3.307   3.309   3.914  0.0768 -0.0093  1.6548
14523TIP3    H265061   3.169   3.265   3.870  0.5681  0.9222 -0.9912
14524TIP3   OH265062   2.447   0.410  10.902 -0.3182  0.3014  0.4971
14524TIP3    H165063   2.411   0.497  10.883  0.5746  0.6410  0.2888
14524TIP3    H265064   2.422   0.357  10.827 -2.1035 -0.0262  1.2840
14525TIP3   OH265065   5.848   3.490   2.811  0.4783  0.2248 -0.0835
14525TIP3    H165066   5.752   3.495   2.818  0.6408  2.1891  1.7585
14525TIP3    H265067   5.867   3.536   2.729 -0.0765  2.3416  0.8906
14526TIP3   OH265068   0.329   3.698   2.618 -0.9497 -0.0766  0.1521
14526TIP3    H165069   0.313   3.694   2.713  0.1763 -0.3123  0.3492
14526TIP3    H265070   0.319   3.607   2.589 -1.4170  0.0164  0.0231
14527TIP3   OH265071   0.410   1.035   4.157 -0.1229  0.1461  0.5368
14527TIP3    H165072   0.496   0.992   4.154  0.2966  0.9330  0.9923
14527TIP3    H265073   0.367   0.995   4.233 -0.4738 -0.8028 -0.1438
14528TIP3   OH265074   5.445   0.120   0.756 -0.7461 -0.3536 -0.0352
14528TIP3    H165075   5.414   0.081   0.675  1.0716 -0.0136 -0.9329
14528TIP3    H265076   5.451   0.214   0.737  1.7138 -0.5031 -0.2487
14529TIP3   OH265077   0.434   5.604   2.365  0.4421  0.0193  0.0746
14529TIP3    H165078   0.445   5.681   2.421  2.4332  0.6857 -1.1154
14529TIP3    H265079   0.518   5.596   2.320  0.5365 -3.2555  0.6171
14530TIP3   OH265080   4.644   6.725   2.636  0.5698  0.0385  0.2197
14530TIP3    H165081   4.697   6.647   2.619 -2.0022 -1.4826 -1.4448
14530TIP3    H265082   4.604   6.710   2.721 -0.5474 -0.9317 -0.4392
14531TIP3   OH265083   3.394   5.089   4.032  0.3842 -0.5214 -0.2021
14531TIP3    H165084   3.485   5.088   4.003  0.2789 -0.6589 -0.5370
14531TIP3    H265085   3.349   5.031   3.971  0.1623 -0.8529  0.2634
14532TIP3   OH265086   6.552   1.831  11.520  1.0340 -0.5368  0.0497
14532TIP3    H165087   6.460   1.807  11.518 -0.0005  2.7023  1.3935
14532TIP3    H265088   6.571   1.861  11.431 -0.0647  1.2260  0.3546
14533TIP3   OH265089   4.759   1.219   3.710  0.0139  0.3273  0.2724
14533TIP3    H165090   4.669   1.191   3.728  0.2233  0.0737  0.9603
14533TIP3    H265091   4.803   1.140   3.680 -0.4469  0.8366 -1.9278
14534TIP3   OH265092   5.807   0.302  16.508  0.0450 -0.2052  0.1885
14534TIP3    H165093   5.860   0.223  16.511 -0.4734 -0.5689 -0.0072
14534TIP3    H265094   5.733   0.283  16.566  0.2292  0.3729  0.6255
14535TIP3   OH265095   5.673   2.913  16.427 -0.2412  0.1172  0.1474
14535TIP3    H165096   5.586   2.900  16.387  0.4041  0.3843 -1.4298
14535TIP3    H265097   5.682   2.841  16.489 -0.0117 -2.3696 -2.5626
14536TIP3   OH265098   3.818   3.386  14.814 -0.2565 -0.1162 -0.3355
14536TIP3    H165099   3.774   3.403  14.897  0.2558 -2.5331  0.5200
14536TIP3    H265100   3.748   3.360  14.754 -0.5082  0.6793 -0.4020
14537TIP3   OH265101   2.297   0.279   2.781  0.1860 -0.0319 -0.1029
14537TIP3    H165102   2.326   0.368   2.761  0.9460  0.0023  1.1053
14537TIP3    H265103   2.347   0.254   2.859 -0.2104 -1.4210 -0.2726
14538TIP3   OH265104   0.338   3.851  16.307  0.3444  0.3562  0.1723
14538TIP3    H165105   0.296   3.765  16.306  0.7234  0.1713 -0.8340
14538TIP3    H265106   0.284   3.903  16.366 -1.2707  0.1078 -1.0213
14539TIP3   OH265107   3.762   5.457   3.825 -0.3526 -0.2529 -0.0647
14539TIP3    H165108   3.678   5.428   3.791 -1.6461  2.0215  0.9693
14539TIP3    H265109   3.794   5.519   3.760  0.2578 -0.6693 -0.1696
14540TIP3   OH265110   0.012   6.531   4.630 -0.8157 -1.3022 -0.7123
14540TIP3    H165111   0.100   6.558   4.656 -2.1937  0.4609  2.8359
14540TIP3    H265112  -0.020   6.603   4.576 -1.1858 -0.2550  0.8400
14541TIP3   OH265113   6.207   3.891   3.294  0.3588  0.3359  0.0108
14541TIP3    H165114   6.226   3.925   3.206  0.4876  1.5284  0.4818
14541TIP3    H265115   6.170   3.965   3.341 -0.6670 -0.5677  0.6798
14542TIP3   OH265116   6.685   5.150   5.841 -0.2062  0.0123 -0.1194
14542TIP3    H165117   6.668   5.077   5.900  2.9467  0.0101  1.0132
14542TIP3    H265118   6.722   5.218   5.898  0.1892  1.1402 -1.6735
14543TIP3   OH265119   6.323   3.154  15.621  0.1503  0.0749  0.2563
14543TIP3    H165120   6.293   3.241  15.592  0.3390  0.1805  0.3740
14543TIP3    H265121   6.389   3.173  15.687 -0.0067 -0.1644  0.4793
14544TIP3   OH265122   5.922   5.122  14.482  0.5193 -0.5178  0.2170
14544TIP3    H165123   5.927   5.076  14.398  1.7175  0.9473 -0.5619
14544TIP3    H265124   6.010   5.157  14.495  0.0778  0.1468  1.5846
14545TIP3   OH265125   2.805   6.641   5.054 -0.3399  0.6499 -0.3625
14545TIP3    H165126   2.811   6.603   5.142  0.2366  1.3406 -0.1027
14545TIP3    H265127   2.730   6.700   5.059 -0.3317  0.6589 -0.3429
14546TIP3   OH265128   2.014   1.693  15.300  0.0700 -0.3064 -0.2563
14546TIP3    H165129   2.098   1.724  15.334  0.7846 -1.9726 -0.4418
14546TIP3    H265130   1.998   1.747  15.223  1.2356 -0.3282 -0.5234
14547TIP3   OH265131   2.746   2.283  12.006 -0.2189  0.1545  0.0397
14547TIP3    H165132   2.661   2.254  12.038 -0.5645  0.9790 -0.0945
14547TIP3    H265133   2.802   2.282  12.083 -0.3556 -0.3787  0.1338
14548TIP3   OH265134   3.922   3.779  14.520 -0.1900 -0.0426 -0.2491
14548TIP3    H165135   3.995   3.796  14.462 -0.2402  0.2987 -0.2127
14548TIP3    H265136   3.919   3.855  14.578 -0.9538  0.2400 -0.6456
14549TIP3   OH265137   2.807   1.412  14.674 -0.2843  0.1442  0.2360
14549TIP3    H165138   2.751   1.369  14.609 -0.1567 -0.1592  0.3253
14549TIP3    H265139   2.896   1.396  14.643 -0.2225 -0.0246  0.5000
14550TIP3   OH265140   6.819   4.391   4.122  1.0107 -0.3701  0.6912
14550TIP3    H165141   6.740   4.435   4.089  0.7991  0.9395  2.7565
14550TIP3    H265142   6.856   4.348   4.045 -1.4467 -0.6309 -0.4431
14551TIP3   OH265143   4.404   4.172  14.044 -0.0946 -0.7976  0.8439
14551TIP3    H165144   4.361   4.132  14.119  1.3169  0.1057  2.1838
14551TIP3    H265145   4.360   4.257  14.033 -1.2927 -1.5279 -0.3279
14552TIP3   OH265146   4.084   3.014   5.600  0.1193  0.3361 -0.0136
14552TIP3    H165147   4.063   3.000   5.508 -0.7532 -1.5321  0.4244
14552TIP3    H265148   4.015   3.072   5.632  0.9297  1.7385 -0.7014
14553TIP3   OH265149   3.078   1.337  16.963  0.3752 -0.2568 -0.2994
14553TIP3    H165150   3.062   1.423  17.000 -0.9750 -0.3124 -0.7048
14553TIP3    H265151   3.060   1.276  17.035  0.6750 -0.2402 -0.2085
14554TIP3   OH265152   2.493   1.820  11.747 -0.4499  0.0508 -0.0124
14554TIP3    H165153   2.518   1.891  11.687 -0.8436 -0.1996 -0.4800
14554TIP3    H265154   2.450   1.756  11.691  0.5863 -0.9248  0.2619
14555TIP3   OH265155   5.319   1.724  16.381 -0.2746  0.0880 -0.4561
14555TIP3    H165156   5.237   1.743  16.336 -1.3777 -0.8187  1.0991
14555TIP3    H265157   5.329   1.796  16.443  1.4811  1.5900 -2.3311
14556TIP3   OH265158   3.447   0.295   0.498  0.0012  0.1904 -0.0690
14556TIP3    H165159   3.450   0.206   0.463 -1.8524 -0.2655  0.7814
14556TIP3    H265160   3.517   0.298   0.563  1.4082  0.0389 -1.5348
14557TIP3   OH265161   3.657   0.876   1.827  0.2867  0.2106  0.3046
14557TIP3    H165162   3.604   0.798   1.811 -0.5093  0.8830 -0.3831
14557TIP3    H265163   3.655   0.887   1.922 -1.8664  0.9368  0.2105
14558TIP3   OH265164   3.170   3.782  13.311  0.0544  0.1946 -0.0169
14558TIP3    H165165   3.155   3.839  13.236 -1.3040  0.3451  0.3509
14558TIP3    H265166   3.090   3.788  13.363  1.1391  0.4423  1.6942
14559TIP3   OH265167   5.401   2.752  14.460 -0.5015 -0.0404 -0.0906
14559TIP3    H165168   5.305   2.761  14.465 -0.7183  1.6983 -3.8223
14559TIP3    H265169   5.434   2.827  14.509 -0.9286 -0.9486  1.6983
14560TIP3   OH265170   0.041   5.789  14.274 -0.3708  0.4202  0.2464
14560TIP3    H165171   0.043   5.881  14.300 -2.6544  0.8511 -0.8295
14560TIP3    H265172   0.080   5.788  14.187 -0.2101  0.3304  0.3188
14561TIP3   OH265173   4.913   3.631   5.473 -0.6679 -0.0144 -0.0019
14561TIP3    H165174   4.979   3.581   5.522  1.4241  2.3454 -0.2148
14561TIP3    H265175   4.852   3.661   5.540  0.6144  0.8697  0.8294
14562TIP3   OH265176   4.509   1.511   2.998  0.1708 -0.2714 -0.6178
14562TIP3    H165177   4.526   1.458   2.920  2.1998 -0.7663  0.0904
14562TIP3    H265178   4.574   1.582   2.994 -1.3752  1.2063 -0.6587
14563TIP3   OH265179   4.075   3.098  16.465 -0.2459  0.6062  0.2145
14563TIP3    H165180   4.133   3.143  16.526 -1.1797  1.6718  0.3587
14563TIP3    H265181   3.995   3.082  16.516  0.2318 -1.7294  0.3273
14564TIP3   OH265182   4.395   4.492  13.195 -0.0352 -0.0086  0.8179
14564TIP3    H165183   4.339   4.569  13.208  1.9351  1.6246  0.0101
14564TIP3    H265184   4.387   4.443  13.277 -0.4856  1.6280  1.7982
14565TIP3   OH265185   3.976   5.395  15.532  0.0287  0.4952  0.4929
14565TIP3    H165186   3.887   5.425  15.512 -0.2614 -0.3311  0.4767
14565TIP3    H265187   3.963   5.309  15.572  0.8562 -0.0533 -0.3681
14566TIP3   OH265188   6.009   3.816   2.881  0.2281 -0.6260 -0.1405
14566TIP3    H165189   5.917   3.838   2.861  0.2316  0.8501  1.2645
14566TIP3    H265190   6.003   3.754   2.954  0.3336  0.9468  1.2577
14567TIP3   OH265191   1.031   5.426  11.503 -0.3308  0.3662 -0.3210
14567TIP3    H165192   0.996   5.381  11.426 -1.2842 -1.1831  0.9605
14567TIP3    H265193   0.970   5.498  11.519 -2.5019 -1.6757  1.2671
14568TIP3   OH265194   3.687   0.781   4.011 -0.6168 -0.5257 -1.0145
14568TIP3    H165195   3.717   0.694   4.038 -2.2795 -1.1968 -1.1840
14568TIP3    H265196   3.613   0.800   4.068 -0.3572  0.7543 -1.0676
14569TIP3   OH265197   2.119   2.238   6.643 -0.3879 -0.3489  0.3322
14569TIP3    H165198   2.195   2.286   6.675  1.4785 -0.7812 -2.9399
14569TIP3    H265199   2.046   2.299   6.651  1.0959  1.5641  0.0084
14570TIP3   OH265200   6.407   1.675   4.159  0.7537  0.1777  0.5881
14570TIP3    H165201   6.343   1.744   4.178  1.7346  1.2849 -0.0061
14570TIP3    H265202   6.455   1.707   4.082  1.1527 -1.2318  0.2275
14571TIP3   OH265203   0.029   2.367  13.542  0.1467 -0.2940 -0.3482
14571TIP3    H165204   0.016   2.318  13.624  1.0001  0.0275 -0.0093
14571TIP3    H265205  -0.011   2.312  13.475  0.7718 -1.3139  0.0776
14572TIP3   OH265206   4.931   4.184  11.329 -0.4835  0.0438 -0.2322
14572TIP3    H165207   4.888   4.119  11.385 -0.2013 -0.7042 -0.8580
14572TIP3    H265208   4.931   4.144  11.242 -2.5563  1.9587 -1.2047
14573TIP3   OH265209   6.554   0.864  13.326 -0.5627 -0.9462 -0.1815
14573TIP3    H165210   6.630   0.869  13.269 -1.1046 -0.4715 -0.8724
14573TIP3    H265211   6.572   0.789  13.383 -0.6387 -2.3297 -1.9082
14574TIP3   OH265212   1.940   6.068  15.139 -0.2757  0.2694 -0.1613
14574TIP3    H165213   1.964   6.103  15.053  1.1481 -0.1832  0.0223
14574TIP3    H265214   1.924   6.146  15.193 -0.2042  0.5744 -0.5775
14575TIP3   OH265215   2.340   6.698   4.111 -0.0167  1.0616 -0.1583
14575TIP3    H165216   2.269   6.643   4.143 -0.1630 -0.2894 -2.5691
14575TIP3    H265217   2.413   6.679   4.170 -1.1236  1.1515  1.2975
14576TIP3   OH265218   5.957   3.343   3.760 -0.4723 -0.4459 -0.2004
14576TIP3    H165219   5.892   3.273   3.761 -0.6607 -0.2860 -0.6746
14576TIP3    H265220   5.958   3.377   3.849 -1.3045 -0.2221 -0.2636
14577TIP3   OH265221   0.734   0.669   5.573  0.1125  0.4149  0.6254
14577TIP3    H165222   0.732   0.679   5.668 -1.2523  0.7099  0.5861
14577TIP3    H265223   0.701   0.581   5.557  0.8378  0.1704  0.4341
14578TIP3   OH265224   0.587   1.612   0.748 -0.5506  0.2921  0.0978
14578TIP3    H165225   0.652   1.662   0.700 -1.4927  0.9138 -0.5831
14578TIP3    H265226   0.543   1.677   0.804  0.2778 -0.3494  1.5609
14579TIP3   OH265227   1.178   5.967  14.558 -0.2179 -0.2554  0.0809
14579TIP3    H165228   1.227   6.048  14.577 -0.5698 -0.0707  0.2179
14579TIP3    H265229   1.086   5.993  14.567 -0.3661 -0.4183 -0.9051
14580TIP3   OH265230   5.250   2.346   1.941 -0.3676  0.2195  0.7541
14580TIP3    H165231   5.228   2.258   1.973 -0.7726 -0.1802 -0.5537
14580TIP3    H265232   5.336   2.364   1.978 -0.1284 -0.8807  0.7860
14581TIP3   OH265233   4.727   3.425  13.383  0.9909  0.1387 -0.0931
14581TIP3    H165234   4.814   3.462  13.370  1.5435 -0.9240  0.4317
14581TIP3    H265235   4.718   3.421  13.479  0.0463  0.9553 -0.1388
14582TIP3   OH265236   1.251   6.814   3.843 -0.2464 -0.1700  0.1273
14582TIP3    H165237   1.314   6.873   3.885 -0.9056  0.3839  0.3466
14582TIP3    H265238   1.172   6.820   3.896 -0.1678 -1.6746  0.4679
14583TIP3   OH265239   2.697   4.103   3.615  0.3193 -0.6122 -0.2503
14583TIP3    H165240   2.759   4.082   3.544  0.7711  0.5530 -0.2350
14583TIP3    H265241   2.611   4.097   3.574  0.5473 -0.4539 -0.7645
14584TIP3   OH265242   3.340   0.319  11.959 -0.3156  0.1658  0.0890
14584TIP3    H165243   3.422   0.351  11.922  0.1749 -1.0941  0.0688
14584TIP3    H265244   3.350   0.224  11.963 -1.4993  0.0496  0.7464
14585TIP3   OH265245   5.873   3.463  15.931  0.5464  0.2891 -0.1808
14585TIP3    H165246   5.835   3.398  15.873  0.0889  0.6382 -0.2810
14585TIP3    H265247   5.864   3.546  15.884  1.4941  0.3747 -0.2329
14586TIP3   OH265248   5.035   0.357  11.366 -0.0080  0.2095  0.1145
14586TIP3    H165249   5.117   0.356  11.316 -0.4143  1.8598 -0.6602
14586TIP3    H265250   5.033   0.444  11.407 -1.3708  0.2177  0.0822
14587TIP3   OH265251   2.174   5.202  12.942  0.0605  0.2532 -0.2827
14587TIP3    H165252   2.181   5.241  13.029  1.2344 -0.3034 -0.1053
14587TIP3    H265253   2.250   5.144  12.935 -1.0503 -1.2171 -0.9275
14588TIP3   OH265254   0.769   4.029   1.946 -0.2344  0.6864  0.1362
14588TIP3    H165255   0.781   4.040   2.040  1.6702  1.0193 -0.1001
14588TIP3    H265256   0.846   3.980   1.918 -1.0697  0.0543 -1.1784
14589TIP3   OH265257   3.754   2.129   3.021 -0.5615  0.7575 -0.1403
14589TIP3    H165258   3.776   2.133   2.927  1.4389  0.1599  0.2435
14589TIP3    H265259   3.700   2.051   3.030  1.3264 -0.6500 -0.4818
14590TIP3   OH265260   0.445   4.690   4.262 -0.4221  0.2353 -0.2409
14590TIP3    H165261   0.469   4.598   4.273  0.0551  0.4926  1.0139
14590TIP3    H265262   0.505   4.738   4.319 -1.8107  1.1685  0.4938
14591TIP3   OH265263   2.734   2.610  14.309  0.4125 -0.1487  0.4173
14591TIP3    H165264   2.800   2.675  14.287  1.2737 -1.1518 -0.0920
14591TIP3    H265265   2.727   2.556  14.230  0.9591 -1.6839  1.3774
14592TIP3   OH265266   4.771   2.001   4.665  0.1086  0.3065  0.1685
14592TIP3    H165267   4.855   2.015   4.708 -0.1441 -0.6886  1.0204
14592TIP3    H265268   4.785   1.921   4.613  0.0359  0.8003 -0.6203
14593TIP3   OH265269   0.053   1.059  13.365 -0.1765 -0.1438 -0.3229
14593TIP3    H165270   0.039   0.978  13.414  0.2759 -0.2026 -0.2889
14593TIP3    H265271   0.019   1.039  13.277  1.6159 -1.0076 -0.8595
14594TIP3   OH265272   0.048   2.361  10.758 -0.1654  0.0855 -0.0182
14594TIP3    H165273   0.137   2.338  10.783 -0.5002 -0.3000  0.8684
14594TIP3    H265274   0.057   2.405  10.673  1.0141  1.5168  0.8158
14595TIP3   OH265275   1.966   1.182  12.549 -0.7523 -0.3856 -0.5615
14595TIP3    H165276   1.895   1.227  12.594  0.2097 -0.4139  1.0379
14595TIP3    H265277   2.045   1.204  12.598  0.3827 -0.3634 -2.2864
14596TIP3   OH265278   6.520   6.034  14.698 -0.9037 -0.5054 -0.4713
14596TIP3    H165279   6.613   6.055  14.683 -0.3896 -1.2645  1.4430
14596TIP3    H265280   6.513   5.941  14.675 -0.5602 -1.1423  1.8116
14597TIP3   OH265281   4.238   0.967  13.466  0.1498 -0.1992  0.7624
14597TIP3    H165282   4.321   0.982  13.420  0.0471 -2.0243 -0.0961
14597TIP3    H265283   4.211   0.879  13.440 -1.9073  0.2156  1.2835
14598TIP3   OH265284   0.432   0.495   4.221 -0.2727 -0.1834 -0.2345
14598TIP3    H165285   0.495   0.424   4.223  1.4965  1.1002 -3.1528
14598TIP3    H265286   0.369   0.470   4.154 -0.4652  0.3426 -0.2601
14599TIP3   OH265287   4.783   6.129  12.182  0.0897  0.3348  0.0142
14599TIP3    H165288   4.777   6.169  12.269  1.9345  0.4989  0.0911
14599TIP3    H265289   4.752   6.198  12.123  1.2959  1.1653  0.3270
14600TIP3   OH265290   0.510   1.772   1.206 -0.3080  0.4881 -0.6284
14600TIP3    H165291   0.459   1.836   1.255  0.8572  1.2457 -0.3644
14600TIP3    H265292   0.601   1.790   1.229  0.0640 -1.3323 -0.4805
14601TIP3   OH265293   4.517   3.525   4.297 -0.1908 -0.5792  0.3730
14601TIP3    H165294   4.444   3.486   4.248  0.3054  0.6674 -1.4382
14601TIP3    H265295   4.592   3.469   4.276 -0.3049 -0.9904  1.0392
14602TIP3   OH265296   5.241   6.083  13.280  0.3305  0.1692  0.5894
14602TIP3    H165297   5.326   6.044  13.258  0.8467  1.3798  0.3735
14602TIP3    H265298   5.178   6.011  13.270  0.9690 -0.1312 -1.7951
14603TIP3   OH265299   5.879   0.812   5.662  0.4288  0.7050 -0.2007
14603TIP3    H165300   5.962   0.763   5.659 -0.3564 -0.6822 -3.3527
14603TIP3    H265301   5.821   0.757   5.714  0.2673 -0.6527 -1.7163
14604TIP3   OH265302   0.950   2.656   5.518 -0.4359  0.1764  0.6523
14604TIP3    H165303   0.956   2.665   5.423 -1.1610 -1.0851  0.4643
14604TIP3    H265304   1.026   2.703   5.551  0.3630 -0.1827 -0.6022
14605TIP3   OH265305   6.401   5.882  11.511 -0.2788  0.4318 -0.1101
14605TIP3    H165306   6.400   5.831  11.430  0.9868  3.2909 -2.1122
14605TIP3    H265307   6.313   5.918  11.518 -1.5449 -2.6698  1.9411
14606TIP3   OH265308   2.350   3.274  13.391  0.0091 -0.0962  0.2239
14606TIP3    H165309   2.427   3.331  13.390  1.0940 -1.4943 -0.2822
14606TIP3    H265310   2.289   3.318  13.450  1.8004  0.3389  1.8976
14607TIP3   OH265311   3.894   1.604  15.361 -0.0061 -0.0840 -0.1937
14607TIP3    H165312   3.921   1.542  15.293  2.8053  1.4423 -0.5944
14607TIP3    H265313   3.970   1.660  15.375 -2.0662  2.6985  0.8504
14608TIP3   OH265314   2.450   4.332  13.856 -0.1099  0.7239 -0.5484
14608TIP3    H165315   2.373   4.282  13.881  1.5883 -0.9312  1.7883
14608TIP3    H265316   2.433   4.421  13.887 -1.6305  0.7608 -1.4040
14609TIP3   OH265317   1.905   6.654  10.743  0.6908 -0.6783 -0.1042
14609TIP3    H165318   1.912   6.668  10.648 -2.0041 -1.0549 -0.4276
14609TIP3    H265319   1.886   6.561  10.752 -0.3846 -0.3963  0.6930
14610TIP3   OH265320   3.354   2.647  15.145  0.1982  0.2515 -0.6661
14610TIP3    H165321   3.316   2.563  15.167 -0.3187  0.4271 -0.8594
14610TIP3    H265322   3.421   2.662  15.211 -0.8888  0.4840  0.4018
14611TIP3   OH265323   0.839   4.846   3.659  0.2505  0.0268 -0.5098
14611TIP3    H165324   0.906   4.852   3.591 -0.0076  1.5819 -0.6592
14611TIP3    H265325   0.886   4.867   3.740 -0.4479  3.6222 -0.9013
14612TIP3   OH265326   3.491   2.521  12.449 -0.0281 -0.4908  0.2124
14612TIP3    H165327   3.428   2.520  12.377 -0.1876 -2.1380  0.3497
14612TIP3    H265328   3.575   2.541  12.408 -0.4170  0.5035 -0.1358
14613TIP3   OH265329   3.399   2.645  14.869 -0.6368 -0.6490 -0.1375
14613TIP3    H165330   3.360   2.563  14.838 -2.5485  0.7847 -1.8350
14613TIP3    H265331   3.363   2.657  14.956 -3.3416  0.1057 -1.2684
14614TIP3   OH265332   3.600   2.978  17.080 -0.5946  0.2222 -0.4327
14614TIP3    H165333   3.514   2.947  17.052 -0.0351  1.8284 -4.7800
14614TIP3    H265334   3.585   3.067  17.111 -0.6906 -0.1541  0.6357
14615TIP3   OH265335   6.370   3.413  15.770  0.0952 -0.0116 -0.0243
14615TIP3    H165336   6.412   3.402  15.855  0.0140 -4.0290 -0.3130
14615TIP3    H265337   6.277   3.395  15.787 -0.2877  1.1678 -0.6967
14616TIP3   OH265338   2.802   3.847  15.224 -0.2720  0.2933  0.4830
14616TIP3    H165339   2.861   3.790  15.274  2.0144  1.0306 -1.2202
14616TIP3    H265340   2.771   3.792  15.152 -1.3986  0.0367  1.1371
14617TIP3   OH265341   0.173   4.448   2.143 -0.6577  0.2137 -0.6748
14617TIP3    H165342   0.216   4.370   2.108 -1.5115 -1.0261  0.9141
14617TIP3    H265343   0.080   4.436   2.123 -0.6482  1.6340 -1.8101
14618TIP3   OH265344   0.275   6.291  10.770  0.2845  0.6043  0.3836
14618TIP3    H165345   0.367   6.286  10.742  0.2877 -0.0618  0.4946
14618TIP3    H265346   0.226   6.296  10.688  0.3594 -0.1926  0.2819
14619TIP3   OH265347   5.122   1.446  15.625 -0.2156 -0.6637 -0.2545
14619TIP3    H165348   5.130   1.541  15.628 -1.0745 -0.6064  2.3455
14619TIP3    H265349   5.085   1.428  15.539  1.2396  1.1934 -1.3498
14620TIP3   OH265350   0.135   1.881   2.451 -0.0430 -0.5430  0.5064
14620TIP3    H165351   0.090   1.950   2.402 -1.5240 -1.6677  0.2201
14620TIP3    H265352   0.124   1.906   2.543 -0.0569 -0.0976  0.3843
14621TIP3   OH265353   4.732   0.510  12.211 -0.1276 -0.2181 -0.7978
14621TIP3    H165354   4.719   0.421  12.245  0.4615 -0.4528 -1.1694
14621TIP3    H265355   4.744   0.564  12.289  1.4827 -0.7931 -0.6023
14622TIP3   OH265356   6.695   2.535  11.187 -0.1976  0.4952  0.2018
14622TIP3    H165357   6.756   2.583  11.245 -1.4681  0.9163  1.2348
14622TIP3    H265358   6.616   2.525  11.239 -1.2290  0.4456 -1.3169
14623TIP3   OH265359   6.399   2.677   3.047 -0.1547  0.1916 -0.0982
14623TIP3    H165360   6.373   2.616   3.116 -0.1081  0.3744  0.0858
14623TIP3    H265361   6.325   2.679   2.986 -0.5001  0.5679  0.3209
14624TIP3   OH265362   6.764   6.805   1.924  0.2778 -0.1245 -0.4930
14624TIP3    H165363   6.754   6.725   1.976  0.2481  0.4790  0.4527
14624TIP3    H265364   6.700   6.795   1.853 -0.9674 -0.1747  0.5944
14625TIP3   OH265365   2.364   2.092   2.145 -0.1790  0.1418  0.4938
14625TIP3    H165366   2.411   2.158   2.196 -2.3138  2.1667  0.0118
14625TIP3    H265367   2.433   2.045   2.097  1.5625  0.6799  2.3414
14626TIP3   OH265368   5.045   4.789   2.623  0.0385 -0.4285 -0.2578
14626TIP3    H165369   5.077   4.856   2.563 -1.3699  0.2793 -0.2841
14626TIP3    H265370   4.987   4.734   2.570 -1.3805  0.3246  0.4260
14627TIP3   OH265371   4.737   4.837  14.046 -0.5139 -0.2854 -0.5499
14627TIP3    H165372   4.761   4.754  14.005  0.4654  0.2893 -1.1788
14627TIP3    H265373   4.668   4.872  13.990 -0.4979 -0.3812 -0.6303
14628TIP3   OH265374   1.999   1.235  15.820 -0.2876 -0.2368 -0.4519
14628TIP3    H165375   1.993   1.298  15.747 -0.0566  1.1953  0.7182
14628TIP3    H265376   1.999   1.290  15.898 -1.7515 -1.8113  0.7062
14629TIP3   OH265377   5.571   0.144   1.427  0.3571 -0.5190  0.3778
14629TIP3    H165378   5.556   0.218   1.486  2.2740 -0.0805  0.3841
14629TIP3    H265379   5.552   0.067   1.480 -1.7279 -0.0800  0.3505
14630TIP3   OH265380   1.148   1.214  16.257  0.2593  0.0074 -0.1307
14630TIP3    H165381   1.139   1.220  16.162  2.1931 -0.5431 -0.4013
14630TIP3    H265382   1.243   1.216  16.272 -0.0158  0.3754  1.8123
14631TIP3   OH265383   0.606   5.663  12.021  0.0074 -0.1896  0.0103
14631TIP3    H165384   0.534   5.609  12.053  2.7216 -3.9540  0.3889
14631TIP3    H265385   0.610   5.644  11.927  0.6569 -0.1642  0.0316
14632TIP3   OH265386   2.209   0.357  12.746  0.0005  0.1462 -0.6527
14632TIP3    H165387   2.153   0.412  12.691  0.5817  0.2001 -1.2107
14632TIP3    H265388   2.194   0.268  12.715 -2.8533 -0.4040  1.9184
14633TIP3   OH265389   5.995   4.056  14.644 -0.2432 -0.1414  0.1536
14633TIP3    H165390   5.983   4.002  14.566  1.4637  1.2142 -1.1417
14633TIP3    H265391   5.980   4.145  14.614  1.4064  0.5093  1.1179
14634TIP3   OH265392   3.788   0.069  16.099 -0.6389  0.3470 -0.1547
14634TIP3    H165393   3.713   0.083  16.156  0.1517 -0.0288  1.0294
14634TIP3    H265394   3.841   0.148  16.110  0.1985 -0.3107  0.7542
14635TIP3   OH265395   2.859   5.118   5.633 -0.1732 -0.0100  0.1729
14635TIP3    H165396   2.819   5.101   5.719  1.4310 -0.5540  0.8399
14635TIP3    H265397   2.846   5.036   5.585 -2.4306  0.7806 -0.7292
14636TIP3   OH265398   0.089   1.818  11.112 -0.4765 -0.7131 -0.0767
14636TIP3    H165399   0.103   1.872  11.033 -1.6656 -0.2531  0.0175
14636TIP3    H265400   0.031   1.748  11.083 -1.4621 -0.1614  0.5444
14637TIP3   OH265401   4.890   0.996   0.839  0.5592 -0.0637 -0.8158
14637TIP3    H165402   4.933   1.081   0.832 -1.4984  1.0806 -0.1637
14637TIP3    H265403   4.800   1.012   0.810 -0.8040 -1.2320  2.3523
14638TIP3   OH265404   4.079   4.607   2.367 -0.3095  0.0585 -0.2971
14638TIP3    H165405   4.104   4.698   2.383  1.3870  0.1795 -3.0141
14638TIP3    H265406   4.139   4.555   2.420 -0.0120  0.5030 -0.2020
14639TIP3   OH265407   0.397   1.726  11.428  0.4083  0.1963  0.1510
14639TIP3    H165408   0.455   1.696  11.357  0.3156  0.1779  0.0830
14639TIP3    H265409   0.335   1.784  11.385  0.5835  0.4818  0.2825
14640TIP3   OH265410   2.038   3.385  14.220  0.3476 -0.0438  0.3197
14640TIP3    H165411   1.952   3.370  14.259  0.0756  0.6159 -0.0117
14640TIP3    H265412   2.098   3.387  14.294 -0.3733  2.8628  0.9704
14641TIP3   OH265413   2.271   5.690  12.531 -0.4615 -0.4604 -0.7099
14641TIP3    H165414   2.269   5.617  12.469 -2.0465 -0.5507 -0.5734
14641TIP3    H265415   2.227   5.658  12.609  1.0572 -0.1633  0.3249
14642TIP3   OH265416   0.748   6.159  15.773  0.0521 -0.2276 -0.3625
14642TIP3    H165417   0.701   6.076  15.764  0.0545 -0.2092 -0.5470
14642TIP3    H265418   0.749   6.196  15.685  2.2564 -1.2317 -0.8295
14643TIP3   OH265419   1.468   5.143   1.733 -0.0964 -0.3114 -0.1489
14643TIP3    H165420   1.413   5.221   1.734  0.5097  0.1404 -0.8618
14643TIP3    H265421   1.541   5.166   1.675  1.2889 -0.5647  1.4025
14644TIP3   OH265422   3.332   1.933   2.893 -0.0782 -0.4352  0.0954
14644TIP3    H165423   3.278   1.876   2.839 -0.6063  0.1751 -0.0348
14644TIP3    H265424   3.376   1.874   2.954  0.1757 -1.0846 -0.6977
14645TIP3   OH265425   6.447   6.625  15.157  0.6457  0.7054  0.0348
14645TIP3    H165426   6.441   6.531  15.171  2.6228  0.6973  1.0726
14645TIP3    H265427   6.466   6.662  15.243 -0.1663  2.0870 -0.3369
14646TIP3   OH265428   4.562   3.200  16.592  0.4196  0.1352  0.2123
14646TIP3    H165429   4.602   3.232  16.511  2.0797 -1.9524  0.0899
14646TIP3    H265430   4.621   3.230  16.661  2.1182 -2.5245  0.0775
14647TIP3   OH265431   4.020   2.152   4.807 -0.1987 -0.0767 -0.2158
14647TIP3    H165432   3.968   2.140   4.727 -0.7288 -0.6556  0.2060
14647TIP3    H265433   3.994   2.079   4.863  0.0622  0.4042  0.5366
14648TIP3   OH265434   1.506   3.524   2.840  0.2396 -0.0994  0.5736
14648TIP3    H165435   1.520   3.430   2.847 -0.2807 -0.3363 -0.9948
14648TIP3    H265436   1.496   3.555   2.930 -0.1318 -1.6319  1.0798
14649TIP3   OH265437   0.452   1.208  11.823 -0.4683  0.5549  0.7222
14649TIP3    H165438   0.370   1.207  11.872 -1.5974  1.0689 -1.0620
14649TIP3    H265439   0.517   1.175  11.885 -2.4257 -2.4178  1.4410
14650TIP3   OH265440   0.190   4.887  16.535  0.0489  0.2589  0.4727
14650TIP3    H165441   0.096   4.878  16.551  0.1273  0.1173  0.8653
14650TIP3    H265442   0.218   4.953  16.599  0.3597 -0.2740  0.8862
14651TIP3   OH265443   3.492   5.528  16.305 -0.2453 -0.6909  0.6585
14651TIP3    H165444   3.506   5.616  16.340 -0.6272 -0.2668 -0.2293
14651TIP3    H265445   3.521   5.469  16.375  1.9356  0.1339  0.5398
14652TIP3   OH265446   5.828   0.948  14.601 -0.3278  0.1927 -0.1825
14652TIP3    H165447   5.901   1.009  14.598 -0.0074 -0.1331  0.7258
14652TIP3    H265448   5.848   0.883  14.534  1.3574 -1.1376  1.5202
14653TIP3   OH265449   0.925   3.853   2.885 -0.4276 -0.1704 -0.2246
14653TIP3    H165450   0.881   3.924   2.931 -0.2126 -1.1524  1.6278
14653TIP3    H265451   0.987   3.896   2.826 -1.8869  1.1779 -0.8262
14654TIP3   OH265452   2.883   2.290   4.674 -0.0343 -0.2153 -0.1865
14654TIP3    H165453   2.948   2.256   4.613  0.0860  2.2699 -1.5697
14654TIP3    H265454   2.865   2.379   4.643  0.0255  1.2195  3.4075
14655TIP3   OH265455   5.945   0.368   2.094 -0.2494 -0.3806 -0.6311
14655TIP3    H165456   5.975   0.370   2.003 -1.6161 -3.4584 -1.2806
14655TIP3    H265457   5.952   0.276   2.119 -1.5128  0.1114  1.8371
14656TIP3   OH265458   5.630   2.118  14.539  0.0151 -0.1323 -0.6148
14656TIP3    H165459   5.693   2.070  14.485 -1.3221 -1.2547 -1.2508
14656TIP3    H265460   5.561   2.145  14.478 -1.1626 -0.7948  0.3625
14657TIP3   OH265461   5.269   5.178   2.019  0.3999 -0.3697 -0.3773
14657TIP3    H165462   5.276   5.267   2.054 -0.7299 -0.0932 -0.8294
14657TIP3    H265463   5.357   5.142   2.031  0.7695  0.6519  0.2046
14658TIP3   OH265464   0.945   5.934   4.326  0.2790 -0.3777 -0.0331
14658TIP3    H165465   0.966   5.892   4.243 -1.3678  0.0576 -0.7155
14658TIP3    H265466   0.906   6.018   4.301 -0.6185 -0.4216  1.1565
14659TIP3   OH265467   6.034   0.240   0.502 -0.0273  0.5181  0.2739
14659TIP3    H165468   6.052   0.314   0.444 -0.8433 -0.2383 -0.9707
14659TIP3    H265469   6.105   0.244   0.567  0.7440  1.5554 -0.5790
14660TIP3   OH265470   0.899   2.027  14.808  0.5926 -0.3355 -0.0703
14660TIP3    H165471   0.967   2.022  14.742  0.6604  0.5011 -0.0807
14660TIP3    H265472   0.934   2.086  14.875  0.7055 -1.5001  0.9415
14661TIP3   OH265473   0.915   2.152   4.830 -0.2630  0.4127  0.2313
14661TIP3    H165474   0.875   2.101   4.759 -1.0547  0.0676  0.8968
14661TIP3    H265475   0.851   2.147   4.901  0.8961  0.0113  1.2854
14662TIP3   OH265476   6.715   4.399   1.606  0.4678  0.2690 -0.2815
14662TIP3    H165477   6.644   4.370   1.548 -1.0811  2.2999  0.4662
14662TIP3    H265478   6.670   4.429   1.685  2.4358 -1.4991  1.6425
14663TIP3   OH265479   2.162   5.566   3.309 -0.3954  0.2079 -0.0837
14663TIP3    H165480   2.132   5.647   3.350 -1.3796 -0.2447  0.1012
14663TIP3    H265481   2.087   5.533   3.260  0.3366 -0.0014 -1.1157
14664TIP3   OH265482   6.262   5.905   0.453  0.3438 -0.0302 -0.0257
14664TIP3    H165483   6.176   5.866   0.443 -0.8021  1.6757  2.1934
14664TIP3    H265484   6.302   5.856   0.525  0.6185  0.1530 -0.0515
14665TIP3   OH265485   5.682   4.006   5.006  0.2796  0.6164 -0.2249
14665TIP3    H165486   5.613   3.975   4.948  1.0644  0.6072 -1.1812
14665TIP3    H265487   5.763   3.991   4.957  0.9860  0.3807  0.9763
14666TIP3   OH265488   3.145   6.755  11.967 -0.0268 -1.0076 -0.0343
14666TIP3    H165489   3.229   6.795  11.941  0.0602 -0.7870  0.5762
14666TIP3    H265490   3.164   6.710  12.049 -0.2884 -1.7599 -0.3816
14667TIP3   OH265491   6.211   0.680   2.837  0.1747  0.6372  0.2595
14667TIP3    H165492   6.154   0.611   2.802  0.4469  0.1260  0.8188
14667TIP3    H265493   6.288   0.633   2.870  0.5334  1.2460  0.2936
14668TIP3   OH265494   5.257   3.146  11.240  0.1862 -0.0996 -0.2067
14668TIP3    H165495   5.164   3.128  11.249  0.1605  0.0754 -0.1219
14668TIP3    H265496   5.261   3.234  11.203  0.3199 -0.0420 -0.0574
14669TIP3   OH265497   4.273   3.184  14.337  0.1585  0.0213 -0.1633
14669TIP3    H165498   4.358   3.159  14.374  0.5489 -0.2676 -1.2146
14669TIP3    H265499   4.278   3.279  14.329  2.3877 -0.1996 -4.6271
14670TIP3   OH265500   5.900   1.441   6.137 -0.1619 -0.0215  0.1635
14670TIP3    H165501   5.884   1.460   6.045  0.6784  0.3535  0.0866
14670TIP3    H265502   5.874   1.349   6.148  1.2351 -0.5712 -0.8265
14671TIP3   OH265503   6.576   2.183  14.446 -0.5398 -0.0921 -0.0561
14671TIP3    H165504   6.617   2.127  14.380 -0.6445 -0.4158  0.1566
14671TIP3    H265505   6.607   2.149  14.530 -0.5725  0.1913  0.0735
14672TIP3   OH265506   4.837   0.013  16.411  0.0295 -0.0268 -0.0517
14672TIP3    H165507   4.811   0.023  16.503  0.6707  1.3604  0.0131
14672TIP3    H265508   4.914   0.069  16.402  1.3155 -1.8232 -0.9178
14673TIP3   OH265509   5.227   3.415  10.675  0.0614 -0.1208 -0.1603
14673TIP3    H165510   5.198   3.395  10.586  0.8868 -0.6725 -0.3145
14673TIP3    H265511   5.186   3.348  10.729 -0.8057  0.4791 -0.0445
14674TIP3   OH265512   1.538   1.878  13.055  0.4378 -0.1909 -0.2055
14674TIP3    H165513   1.622   1.902  13.017  1.6466  0.0081  2.3844
14674TIP3    H265514   1.474   1.902  12.988  2.3198  1.0603 -1.6686
14675TIP3   OH265515   3.115   4.725   4.869 -1.0331  1.0326  0.3695
14675TIP3    H165516   3.145   4.734   4.778 -0.0034 -0.6894  0.4894
14675TIP3    H265517   3.190   4.753   4.922 -0.6688 -0.4066  0.6662
14676TIP3   OH265518   2.819   0.077  11.560  0.0597  1.1541 -0.4985
14676TIP3    H165519   2.891   0.078  11.497 -0.0787  1.1036 -0.6582
14676TIP3    H265520   2.822  -0.011  11.598  1.0651  1.6488  0.6380
14677TIP3   OH265521   5.783   2.013  16.750  1.0818  0.4854  0.2908
14677TIP3    H165522   5.741   2.023  16.835 -1.8049  0.5817 -1.0039
14677TIP3    H265523   5.868   2.055  16.760  0.5941  1.0399  2.9277
14678TIP3   OH265524   5.734   3.545   3.955  0.8520  0.1562  0.2852
14678TIP3    H165525   5.760   3.503   4.037 -1.6791  0.1479  1.1870
14678TIP3    H265526   5.719   3.637   3.979  1.0931  0.3844 -0.4188
14679TIP3   OH265527   0.246   2.524  12.033 -0.2902  0.0191  0.3440
14679TIP3    H165528   0.285   2.596  12.083 -0.0071  0.3146 -0.2831
14679TIP3    H265529   0.303   2.516  11.956 -0.8360 -0.2787 -0.0351
14680TIP3   OH265530   0.558   3.505   2.851 -0.1851 -0.6864 -0.1032
14680TIP3    H165531   0.470   3.538   2.836 -0.3800 -0.0335  2.0751
14680TIP3    H265532   0.557   3.475   2.942  2.4026  1.3126  0.7061
14681TIP3   OH265533   6.834   1.207   6.499  0.9710  0.3731 -0.1275
14681TIP3    H165534   6.869   1.263   6.569  1.2989  0.8938 -0.6961
14681TIP3    H265535   6.911   1.175   6.453  0.7594 -0.0044 -0.2230
14682TIP3   OH265536   4.631   3.972   5.769 -0.0509 -0.5602 -0.4738
14682TIP3    H165537   4.591   4.035   5.710  1.9229  0.3172 -0.9430
14682TIP3    H265538   4.578   3.977   5.849 -0.4627  1.0352 -0.8185
14683TIP3   OH265539   0.101   0.164   2.357  0.2916 -0.3963  0.4204
14683TIP3    H165540   0.097   0.073   2.326  0.3683  0.7585 -3.6051
14683TIP3    H265541   0.192   0.190   2.342 -0.1306  0.8046 -0.1597
14684TIP3   OH265542   2.774   1.295   0.822  0.2438 -0.2946 -0.2741
14684TIP3    H165543   2.769   1.243   0.903  1.7888  1.6393  1.1703
14684TIP3    H265544   2.696   1.351   0.825  1.6269  1.7316  1.4473
14685TIP3   OH265545   2.870   1.962   5.424  0.1883  0.2503 -0.9038
14685TIP3    H165546   2.962   1.975   5.445 -0.2885  2.9474 -0.0289
14685TIP3    H265547   2.868   1.949   5.329  1.4203  1.2137 -1.0861
14686TIP3   OH265548   3.333   0.507  11.353 -0.1578  0.2997 -0.1099
14686TIP3    H165549   3.261   0.563  11.324 -0.6383  0.1991  0.8372
14686TIP3    H265550   3.353   0.453  11.277 -1.3432  0.0725 -0.2886
14687TIP3   OH265551   6.207   2.751  13.765  0.1206  0.2931  0.2371
14687TIP3    H165552   6.151   2.732  13.690  0.2648  1.4894 -0.2007
14687TIP3    H265553   6.151   2.739  13.841  0.6567 -3.5896  0.2096
14688TIP3   OH265554   1.451   6.055   5.819  0.3896  0.0051  0.2083
14688TIP3    H165555   1.470   6.141   5.781 -2.4346  0.7051  0.1624
14688TIP3    H265556   1.373   6.069   5.872  0.4142 -2.3603  0.9865
14689TIP3   OH265557   5.973   4.538  16.007 -0.1223 -0.0974  0.3718
14689TIP3    H165558   5.959   4.591  15.929 -0.3377  0.6429  0.8968
14689TIP3    H265559   5.911   4.466  15.999 -0.8615  0.5240  0.3392
14690TIP3   OH265560   1.865   1.927   4.632 -0.3499 -0.3391 -0.1868
14690TIP3    H165561   1.888   1.851   4.686 -0.5994  0.6250  1.3210
14690TIP3    H265562   1.811   1.891   4.562 -3.1494 -1.2331  2.2197
14691TIP3   OH265563   0.598   1.319  14.849 -0.8736  0.4576  0.4420
14691TIP3    H165564   0.680   1.297  14.806 -0.6595 -0.2071  1.1658
14691TIP3    H265565   0.624   1.377  14.922 -0.9726 -0.1969  1.0074
14692TIP3   OH265566   6.067   5.566  15.041  0.4231  0.3357 -0.0518
14692TIP3    H165567   6.074   5.564  14.946 -4.3243  1.0501 -0.6522
14692TIP3    H265568   6.062   5.473  15.067 -0.5020  0.1604 -0.8200
14693TIP3   OH265569   1.505   5.461  14.826  0.3228  0.0009  0.0970
14693TIP3    H165570   1.435   5.398  14.845 -0.1461  0.6634  0.5968
14693TIP3    H265571   1.467   5.521  14.762  0.7329 -0.1427 -0.2892
14694TIP3   OH265572   5.159   4.799   1.291 -0.9051 -0.0574  0.6811
14694TIP3    H165573   5.197   4.831   1.209 -1.0114  0.9923  1.0282
14694TIP3    H265574   5.229   4.808   1.355 -0.3565 -2.1932  0.4578
14695TIP3   OH265575   4.560   4.526  16.092 -0.3388  0.0724  0.3061
14695TIP3    H165576   4.627   4.577  16.136 -0.2618  0.1496  0.1003
14695TIP3    H265577   4.589   4.523  16.000 -0.2202 -0.5303  0.3595
14696TIP3   OH265578   4.077   4.959   3.223  0.5029 -0.0371  0.0710
14696TIP3    H165579   4.128   5.028   3.180 -2.1606  1.1233 -1.5273
14696TIP3    H265580   4.053   4.900   3.152 -1.6029  0.3286  0.4161
14697TIP3   OH265581   6.820   1.385   3.993  0.1879 -0.1126  0.4317
14697TIP3    H165582   6.815   1.350   3.904  1.8744  0.2732  0.1473
14697TIP3    H265583   6.751   1.339   4.041 -0.6196 -0.4734 -1.0157
14698TIP3   OH265584   5.321   2.032  10.733  0.1088  0.6550 -0.4890
14698TIP3    H165585   5.239   2.078  10.752  0.8491  1.7608  0.0855
14698TIP3    H265586   5.309   1.999  10.644 -1.3194 -0.0182 -0.0891
14699TIP3   OH265587   1.082   2.025  14.595 -0.1398 -0.2047  0.4222
14699TIP3    H165588   1.068   2.079  14.517  0.5228 -0.1183  0.3530
14699TIP3    H265589   1.143   2.076  14.648 -0.8260 -0.1218  1.1517
14700TIP3   OH265590   5.691   6.222  13.264  0.1733  0.5023  0.2669
14700TIP3    H165591   5.744   6.150  13.297 -0.6923  0.2655  1.2229
14700TIP3    H265592   5.746   6.266  13.199  0.4378 -1.4728 -0.9220
14701TIP3   OH265593   4.181   4.330   5.187  0.0208  0.3649 -0.1974
14701TIP3    H165594   4.187   4.273   5.110 -1.3100  0.9284 -0.7419
14701TIP3    H265595   4.201   4.418   5.153  0.5844  0.4550  0.3471
14702TIP3   OH265596   0.267   6.201  16.594  0.2440 -0.0174  0.1855
14702TIP3    H165597   0.299   6.143  16.525 -1.0711  0.1174 -0.5746
14702TIP3    H265598   0.271   6.148  16.674  0.0446 -0.8014 -0.3134
14703TIP3   OH265599   0.373   1.766   3.908  0.4411 -0.0289  0.2334
14703TIP3    H165600   0.286   1.784   3.874  0.2098 -0.1017  0.7713
14703TIP3    H265601   0.417   1.716   3.839  0.1036  0.1261 -0.0925
14704TIP3   OH265602   0.987   1.184  13.080 -0.5196  0.7420  0.2112
14704TIP3    H165603   1.004   1.140  12.997 -0.9529  1.0582 -0.0495
14704TIP3    H265604   0.921   1.129  13.123  0.9478 -0.3761  1.1349
14705TIP3   OH265605   0.540   6.136  13.504 -0.3493  0.0514  0.1560
14705TIP3    H165606   0.467   6.098  13.553  0.6577  0.9256  2.4691
14705TIP3    H265607   0.517   6.229  13.494  0.5681  0.4094  1.2150
14706TIP3   OH265608   0.664   6.660  11.290 -0.6512  0.1476 -0.4473
14706TIP3    H165609   0.606   6.592  11.257  1.0009 -2.2259  1.2435
14706TIP3    H265610   0.617   6.742  11.273 -3.4158 -1.4702 -1.1860
14707TIP3   OH265611   5.856   0.275   2.878  0.2592  0.0691 -0.3760
14707TIP3    H165612   5.770   0.260   2.839  0.2171 -0.2093 -0.1772
14707TIP3    H265613   5.839   0.337   2.949 -0.1727 -1.7505  1.1876
14708TIP3   OH265614   2.062   6.508   2.160 -0.3987  0.8914  0.5336
14708TIP3    H165615   2.153   6.507   2.192 -0.0685 -0.4044 -0.3511
14708TIP3    H265616   2.070   6.531   2.068 -0.8748 -0.1660  0.2215
14709TIP3   OH265617   1.749   2.950  13.618 -0.3175  0.1469  0.1217
14709TIP3    H165618   1.766   2.984  13.530  2.2406 -0.5962  0.2526
14709TIP3    H265619   1.747   2.855  13.607 -0.9977  0.0846  0.7263
14710TIP3   OH265620   4.593   5.470   1.836 -0.4448 -0.5313 -0.4737
14710TIP3    H165621   4.511   5.469   1.886  0.3867  0.2193  0.9826
14710TIP3    H265622   4.583   5.400   1.771 -2.7521  0.4112 -1.2233
14711TIP3   OH265623   1.500   1.177   1.139 -0.4278  0.1420 -0.1802
14711TIP3    H165624   1.451   1.096   1.149  0.1097 -0.0699  0.8524
14711TIP3    H265625   1.514   1.208   1.229  0.9078  0.4355 -0.4627
14712TIP3   OH265626   6.127   3.044  13.410 -0.0984  0.2577  0.2842
14712TIP3    H165627   6.182   2.966  13.395 -0.0715  0.2561  0.3884
14712TIP3    H265628   6.133   3.093  13.329 -1.7806 -0.8701 -0.5863
14713TIP3   OH265629   5.180   0.126  14.108  0.1751  0.1237  0.2721
14713TIP3    H165630   5.137   0.128  14.194  0.3645  0.7756  0.3619
14713TIP3    H265631   5.125   0.068  14.055 -0.5104  0.5045  0.5457
14714TIP3   OH265632   1.034   1.663  16.554  0.2070 -0.0663 -0.5056
14714TIP3    H165633   1.120   1.623  16.537  0.0141 -1.0687  0.6997
14714TIP3    H265634   0.995   1.607  16.621 -1.4642  0.3002 -1.1312
14715TIP3   OH265635   3.249   3.044  16.562 -0.0737  0.0374 -0.2275
14715TIP3    H165636   3.257   3.134  16.593 -0.1337  0.1372 -0.4957
14715TIP3    H265637   3.218   2.995  16.638  1.3229 -0.0272  0.3230
14716TIP3   OH265638   5.621   1.776  11.143  0.5704 -0.2110  0.5287
14716TIP3    H165639   5.666   1.721  11.078  1.4664 -1.8079  2.3969
14716TIP3    H265640   5.683   1.847  11.160 -0.0590  0.7533 -0.9670
14717TIP3   OH265641   1.840   5.133  12.008 -0.4019  0.4574 -0.4950
14717TIP3    H165642   1.814   5.214  11.965  0.9957  1.1602 -0.0941
14717TIP3    H265643   1.826   5.065  11.943 -0.6189  1.1648 -1.2010
14718TIP3   OH265644   6.833   6.146  15.992 -0.0613 -0.2721 -0.3627
14718TIP3    H165645   6.791   6.061  15.976 -0.9033 -0.1059  0.8470
14718TIP3    H265646   6.872   6.137  16.079  0.1537  0.4683 -0.3792
14719TIP3   OH265647   2.201   1.586  16.821  0.3416  0.0331 -0.4762
14719TIP3    H165648   2.284   1.631  16.807  0.4516 -0.0501 -0.1003
14719TIP3    H265649   2.147   1.649  16.868  0.8395 -0.5661  0.9417
14720TIP3   OH265650   1.783   0.894   0.606  0.8083 -0.2073  0.7508
14720TIP3    H165651   1.815   0.806   0.625 -1.8351 -1.4869 -0.3092
14720TIP3    H265652   1.825   0.949   0.673  3.4598 -1.9959  0.7155
14721TIP3   OH265653   2.018   1.372  11.881 -0.1349  0.2214  0.3716
14721TIP3    H165654   2.029   1.286  11.842 -2.4448 -0.3786  0.8680
14721TIP3    H265655   2.056   1.364  11.968 -0.8223 -0.4816  0.6147
14722TIP3   OH265656   6.690   2.387  15.427 -0.5653 -0.3775  0.3286
14722TIP3    H165657   6.709   2.481  15.427 -1.0367 -0.2684 -1.2263
14722TIP3    H265658   6.716   2.356  15.340  2.0330 -2.2377  1.6172
14723TIP3   OH265659   5.753   0.892   3.986  0.1189  0.1026 -0.0618
14723TIP3    H165660   5.682   0.865   3.928  0.3103 -3.5690  1.1372
14723TIP3    H265661   5.714   0.957   4.044 -1.8118 -0.6335 -0.4641
14724TIP3   OH265662   3.952   0.858   0.931  0.0998 -0.0269 -0.2101
14724TIP3    H165663   3.908   0.772   0.927 -0.9227  0.4111  1.0212
14724TIP3    H265664   3.922   0.896   1.013  1.1542  1.2052 -0.3773
14725TIP3   OH265665   2.254   2.490   5.863  0.3741 -0.2916 -0.1501
14725TIP3    H165666   2.191   2.563   5.865  1.5242  0.7290  2.0953
14725TIP3    H265667   2.204   2.415   5.895  0.2369  0.5271  1.7055
14726TIP3   OH265668   6.296   6.418   1.618  0.2936  0.4087  0.4885
14726TIP3    H165669   6.265   6.361   1.688 -0.9103  0.9541  0.4210
14726TIP3    H265670   6.336   6.493   1.663  1.1167 -0.0763  0.5772
14727TIP3   OH265671   3.468   1.608   0.603 -0.4617  0.1236 -0.2867
14727TIP3    H165672   3.524   1.651   0.538  0.3739 -0.0201  0.3205
14727TIP3    H265673   3.474   1.515   0.582 -0.7702  0.1385 -0.4455
14728TIP3   OH265674   4.386   3.423   3.167 -0.5635  0.5736  0.7878
14728TIP3    H165675   4.321   3.356   3.186 -1.0426  1.0046  0.6797
14728TIP3    H265676   4.425   3.443   3.252  0.0488 -0.3029  0.7310
14729TIP3   OH265677   0.603   2.369  14.897  0.2216 -0.1059 -0.2765
14729TIP3    H165678   0.681   2.337  14.851  0.5468  1.4110 -0.8573
14729TIP3    H265679   0.626   2.458  14.924 -1.9326  1.1360 -2.1734
14730TIP3   OH265680   1.106   4.386  12.674 -0.5218 -0.4430 -0.1884
14730TIP3    H165681   1.093   4.457  12.737  0.5123 -0.7397  0.3800
14730TIP3    H265682   1.173   4.419  12.614 -0.9054 -0.4826 -0.6416
14731TIP3   OH265683   2.986   1.457   3.795  0.7749 -0.1015  0.4484
14731TIP3    H165684   3.012   1.405   3.720 -1.3175 -0.8274  0.1481
14731TIP3    H265685   2.915   1.513   3.763  0.3129  0.0784  1.6992
14732TIP3   OH265686   3.454   4.666   1.420  0.3341  0.0186 -0.4087
14732TIP3    H165687   3.387   4.688   1.354  0.7234 -0.9136 -1.1363
14732TIP3    H265688   3.404   4.635   1.495 -0.0891  0.4032 -0.5226
14733TIP3   OH265689   0.210   2.890   5.021  0.0026  0.4735  0.0192
14733TIP3    H165690   0.293   2.845   5.038 -0.2451  0.1845  0.4789
14733TIP3    H265691   0.160   2.880   5.102 -0.1710  1.3324  0.0311
14734TIP3   OH265692   3.350   2.401   0.460 -0.4913  0.6606 -0.4586
14734TIP3    H165693   3.344   2.496   0.452 -0.6174  0.8216  1.1691
14734TIP3    H265694   3.259   2.371   0.466 -0.4665  0.3880 -1.3383
14735TIP3   OH265695   4.336   5.476   6.122  0.1111  0.0941 -0.2009
14735TIP3    H165696   4.260   5.530   6.146  0.8016  0.6602  0.8053
14735TIP3    H265697   4.404   5.540   6.097  0.7461 -0.3258  0.4171
14736TIP3   OH265698   4.179   4.543   5.657  0.5783 -0.3626  0.0181
14736TIP3    H165699   4.232   4.492   5.718  2.1460  1.2719  0.1313
14736TIP3    H265700   4.183   4.496   5.575 -1.4244 -2.5199  1.0308
14737TIP3   OH265701   4.555   4.893  11.981  0.0225  0.2225  0.2827
14737TIP3    H165702   4.643   4.898  11.944 -0.7505  0.1210 -1.6333
14737TIP3    H265703   4.533   4.800  11.978 -0.3029  0.2921  0.4176
14738TIP3   OH265704   2.636   3.275  16.208  0.2259 -0.2852  0.0037
14738TIP3    H165705   2.665   3.302  16.121 -0.7820 -0.8271 -0.5233
14738TIP3    H265706   2.689   3.198  16.228  0.9593  0.2654  0.1806
14739TIP3   OH265707   3.171   3.587   2.204 -0.1887  0.2845  0.0955
14739TIP3    H165708   3.108   3.615   2.138  0.3698  1.4407  0.0242
14739TIP3    H265709   3.244   3.551   2.154 -0.0837  0.4819  0.1043
14740TIP3   OH265710   0.139   4.336   0.127  0.5205  0.2977  0.0592
14740TIP3    H165711   0.122   4.247   0.096 -0.7067  0.3465  0.5391
14740TIP3    H265712   0.054   4.380   0.122  0.1692  0.2896  3.4022
14741TIP3   OH265713   3.373   5.745  13.935 -0.2863 -0.4480 -0.1235
14741TIP3    H165714   3.418   5.715  14.015  0.2424  0.1484 -0.1809
14741TIP3    H265715   3.443   5.750  13.870 -0.4445  0.4181 -0.2374
14742TIP3   OH265716   3.334   1.454   3.818 -0.6466  0.1892  0.4786
14742TIP3    H165717   3.290   1.384   3.866  0.0067  0.2549  1.1824
14742TIP3    H265718   3.271   1.479   3.750 -1.7089  0.2864  1.4614
14743TIP3   OH265719   4.240   0.689  15.173 -0.7046 -0.3239  0.3398
14743TIP3    H165720   4.203   0.756  15.116 -0.9760 -0.5521  0.2459
14743TIP3    H265721   4.222   0.719  15.262  2.2041  1.5030  0.4552
14744TIP3   OH265722   2.035   4.566  13.402  0.2719  0.7427 -0.3025
14744TIP3    H165723   2.094   4.585  13.475  0.4445  0.9392 -0.4918
14744TIP3    H265724   2.043   4.471  13.389 -0.8888  0.4404  0.8941
14745TIP3   OH265725   3.127   1.841   2.105 -0.4909 -0.1144  0.1607
14745TIP3    H165726   3.078   1.773   2.150  0.8854 -1.3670 -0.1251
14745TIP3    H265727   3.192   1.870   2.169 -1.8815  1.9327  0.7382
14746TIP3   OH265728   3.090   6.672  11.693 -0.1788  0.0828 -0.0114
14746TIP3    H165729   3.083   6.672  11.789 -1.7538 -0.4507 -0.0919
14746TIP3    H265730   2.999   6.679  11.663  0.3791  1.7292 -1.4930
14747TIP3   OH265731   6.173   3.054  16.583 -0.0803 -0.2401  0.2145
14747TIP3    H165732   6.130   3.087  16.662 -0.1176 -4.5655  2.2741
14747TIP3    H265733   6.251   3.008  16.614  0.9302 -0.5778 -2.4960
14748TIP3   OH265734   0.025   1.326  10.391  0.0356  0.8181  0.4013
14748TIP3    H165735   0.027   1.421  10.386  2.1138  0.7669 -1.1816
14748TIP3    H265736   0.117   1.300  10.398 -0.5130 -1.0780  1.6029
14749TIP3   OH265737   4.864   0.741   0.192 -0.8862  0.2542  0.7620
14749TIP3    H165738   4.787   0.730   0.247 -0.5928  0.9522  1.3426
14749TIP3    H265739   4.928   0.680   0.227 -1.0068  0.0312  0.5967
14750TIP3   OH265740   3.879   3.418   3.151  0.4099 -0.8627  1.3794
14750TIP3    H165741   3.934   3.448   3.078 -2.1398 -0.4290 -0.5056
14750TIP3    H265742   3.843   3.498   3.189  1.1947 -1.1286  2.7525
14751TIP3   OH265743   1.856   3.578  15.923  0.4119  0.5381  0.1293
14751TIP3    H165744   1.920   3.600  15.991  2.7415 -3.6904 -0.3788
14751TIP3    H265745   1.904   3.592  15.841 -0.1193 -0.4979 -0.3623
14752TIP3   OH265746   4.111   6.852  12.575 -0.2174  0.2843  0.1246
14752TIP3    H165747   4.038   6.866  12.636 -1.2372  1.1633 -1.2636
14752TIP3    H265748   4.127   6.757  12.580 -1.2769  0.1142  0.6387
14753TIP3   OH265749   0.731   0.430   3.856 -0.3384 -0.3676  0.3671
14753TIP3    H165750   0.693   0.356   3.809 -0.6390  0.1175 -0.1708
14753TIP3    H265751   0.824   0.428   3.832 -0.3871 -0.4450  0.1794
14754TIP3   OH265752   1.568   2.638   3.651 -0.0329 -0.3004 -0.8326
14754TIP3    H165753   1.614   2.595   3.724 -1.7710  0.5856  0.8763
14754TIP3    H265754   1.566   2.572   3.582 -1.7314 -2.6858  1.3203
14755TIP3   OH265755   6.641   4.949   2.287 -0.0479 -0.2046  0.4105
14755TIP3    H165756   6.567   4.971   2.344  1.8293  0.1176  2.9107
14755TIP3    H265757   6.632   4.855   2.270 -2.2773  0.2435 -1.4117
14756TIP3   OH265758   4.505   0.887  15.599  0.2419  0.2916  0.3059
14756TIP3    H165759   4.533   0.811  15.548  0.7403 -0.4891  1.6728
14756TIP3    H265760   4.586   0.918  15.640 -0.2685  0.3837  1.2616
14757TIP3   OH265761   0.468   6.307   2.979 -0.3025  0.1975  0.6804
14757TIP3    H165762   0.458   6.213   2.992 -0.3088  0.1978  0.6775
14757TIP3    H265763   0.442   6.345   3.063 -0.0532  0.1819  0.7656
14758TIP3   OH265764   0.140   5.782   2.068 -0.2411  0.0049 -0.0860
14758TIP3    H165765   0.228   5.799   2.037 -1.1203 -0.6352 -3.2539
14758TIP3    H265766   0.108   5.868   2.096  0.1278  1.0548 -2.6108
14759TIP3   OH265767   2.436   5.713  11.627  0.0881 -0.2825  0.7514
14759TIP3    H165768   2.476   5.658  11.560  2.1230  1.5461  0.3501
14759TIP3    H265769   2.480   5.798  11.617 -0.6612  0.4974  3.4078
14760TIP3   OH265770   4.545   4.628   3.326 -0.3310 -0.0121  0.4693
14760TIP3    H165771   4.612   4.633   3.258 -0.5238 -0.4861  0.2390
14760TIP3    H265772   4.489   4.555   3.299 -0.9527  0.3958  0.6505
14761TIP3   OH265773   5.377   0.880   5.505 -0.3017 -0.3254  0.4145
14761TIP3    H165774   5.427   0.900   5.584  0.7044 -0.1667 -0.2506
14761TIP3    H265775   5.431   0.818   5.457 -0.2842  0.5720 -0.7733
14762TIP3   OH265776   2.536   6.737  15.990 -0.5767  0.2450 -0.1456
14762TIP3    H165777   2.451   6.730  15.947  0.1664  1.4878 -1.9607
14762TIP3    H265778   2.575   6.650  15.980 -1.8839 -0.5735  1.3990
14763TIP3   OH265779   4.350   3.373  10.830  0.6680  0.0195 -0.6218
14763TIP3    H165780   4.385   3.423  10.904 -0.1282  0.4689 -0.5332
14763TIP3    H265781   4.291   3.435  10.787  1.7303  0.0401 -2.1203
14764TIP3   OH265782   5.321   3.090   1.765  0.1347  0.4519 -0.1794
14764TIP3    H165783   5.308   3.114   1.673  1.2596 -2.3457 -1.1550
14764TIP3    H265784   5.393   3.145   1.795  0.3373  0.7675 -1.2231
14765TIP3   OH265785   2.234   5.910  15.745  0.2540 -0.4321 -0.1037
14765TIP3    H165786   2.140   5.919  15.757  0.3466 -0.6555  0.8442
14765TIP3    H265787   2.267   5.999  15.738 -0.2690 -0.3517 -2.6615
14766TIP3   OH265788   5.878   5.200   3.194  0.2835  0.0620  0.4092
14766TIP3    H165789   5.945   5.224   3.258 -0.8546  1.1709  1.2112
14766TIP3    H265790   5.863   5.107   3.209  0.6610  0.1176  1.1613
14767TIP3   OH265791   2.126   2.685  16.957 -0.0643 -0.1460 -0.1590
14767TIP3    H165792   2.120   2.606  17.012  0.3031  0.2729  0.4888
14767TIP3    H265793   2.215   2.685  16.924 -0.1689 -0.1854 -0.4449
14768TIP3   OH265794   3.736   5.752   1.719 -0.1971  0.4495  0.1054
14768TIP3    H165795   3.747   5.826   1.660 -0.2553 -0.7041 -1.4109
14768TIP3    H265796   3.642   5.737   1.721 -0.0355 -1.1904 -1.7369
14769TIP3   OH265797   4.294   4.954  14.442 -0.1959 -0.2735 -0.4446
14769TIP3    H165798   4.276   5.014  14.369 -1.6133 -1.0473 -0.7866
14769TIP3    H265799   4.216   4.959  14.497 -0.1944 -1.5063 -0.2870
14770TIP3   OH265800   1.611   2.969  10.918 -0.2629 -0.1685  0.9809
14770TIP3    H165801   1.646   3.047  10.961 -1.1926  0.8230  0.0253
14770TIP3    H265802   1.525   2.996  10.885 -1.4357 -2.1387  2.1851
14771TIP3   OH265803   4.397   2.868  16.345  0.2331  0.3260  0.5794
14771TIP3    H165804   4.370   2.960  16.338  0.1736  0.1995 -1.5244
14771TIP3    H265805   4.332   2.820  16.294  1.0458 -0.7143  0.4944
14772TIP3   OH265806   0.653   6.466   5.837 -0.0884  0.2334 -0.2986
14772TIP3    H165807   0.703   6.446   5.916  0.3864  0.9062 -0.4242
14772TIP3    H265808   0.599   6.388   5.823  0.1395 -0.0678  0.4409
14773TIP3   OH265809   4.112   4.542  14.174  0.2199 -0.1471 -0.7735
14773TIP3    H165810   4.152   4.621  14.211 -0.8020  0.4555 -0.8874
14773TIP3    H265811   4.158   4.469  14.215 -0.0346  0.5012  0.7282
14774TIP3   OH265812   3.736   2.975   0.665  0.0555  0.3577  0.0953
14774TIP3    H165813   3.824   2.997   0.633  0.1815  0.5718  0.5714
14774TIP3    H265814   3.747   2.969   0.760 -0.8067  2.1977  0.3637
14775TIP3   OH265815   5.728   6.409  16.211 -0.2826 -0.1473 -0.3886
14775TIP3    H165816   5.704   6.454  16.291 -2.2598 -2.5791  0.5095
14775TIP3    H265817   5.819   6.382  16.225  0.5340  2.3066 -0.4546
14776TIP3   OH265818   6.650   2.605  13.738  0.8532  0.6548 -0.1096
14776TIP3    H165819   6.576   2.664  13.751 -0.1391 -0.5168 -0.1552
14776TIP3    H265820   6.706   2.619  13.814 -0.9030 -0.4991  1.4924
14777TIP3   OH265821   2.294   2.658   4.655 -0.0610  1.0354 -0.0406
14777TIP3    H165822   2.340   2.592   4.603  2.1983  1.9684  0.6189
14777TIP3    H265823   2.307   2.631   4.745  0.0519  1.8387  0.1971
14778TIP3   OH265824   2.699   2.800  16.872 -0.2411  0.0953  0.3857
14778TIP3    H165825   2.767   2.772  16.811  0.1027  2.3432 -0.3620
14778TIP3    H265826   2.697   2.732  16.940  1.0522 -1.2272 -0.8394
14779TIP3   OH265827   0.845   6.812   0.539  0.4868 -0.3136  0.1647
14779TIP3    H165828   0.892   6.738   0.500  1.1023 -1.0117  2.0910
14779TIP3    H265829   0.758   6.778   0.557 -0.3643  0.5366 -2.0777
14780TIP3   OH265830   4.608   2.160   4.008 -0.6255 -0.1196 -0.0090
14780TIP3    H165831   4.700   2.134   4.003 -0.9324 -1.0376 -1.5649
14780TIP3    H265832   4.597   2.192   4.097  1.1886 -0.0296  0.2218
14781TIP3   OH265833   4.480   2.964  13.886 -0.6155  0.1487  0.4290
14781TIP3    H165834   4.523   3.039  13.845  3.2985 -1.4274  1.1386
14781TIP3    H265835   4.430   3.001  13.959  0.0130  2.1798 -0.1088
14782TIP3   OH265836   6.618   0.628  12.805 -0.2972  0.2503 -0.1088
14782TIP3    H165837   6.568   0.592  12.732  0.0607 -0.4051 -0.0352
14782TIP3    H265838   6.685   0.563  12.823  0.7733  1.2406 -0.3846
14783TIP3   OH265839   3.419   5.511  15.343  0.0424  0.4638  0.2070
14783TIP3    H165840   3.493   5.572  15.338  0.4083 -0.0431 -0.9449
14783TIP3    H265841   3.344   5.561  15.312 -0.0653  0.9042  1.1396
14784TIP3   OH265842   6.791   1.483  15.484 -0.1654  0.3348  0.2341
14784TIP3    H165843   6.698   1.490  15.507 -0.4160  1.3443 -0.9643
14784TIP3    H265844   6.793   1.486  15.388  0.9522 -2.0457  0.0941
14785TIP3   OH265845   0.783   5.565  14.184 -0.1955  0.0052 -0.8468
14785TIP3    H165846   0.707   5.617  14.157 -0.1050  0.2480 -0.6375
14785TIP3    H265847   0.858   5.622  14.165 -0.2009  0.7828  1.2698
14786TIP3   OH265848   6.167   4.805  11.282 -0.0502 -0.1659  0.8484
14786TIP3    H165849   6.182   4.843  11.195 -0.3677 -0.9205  0.4574
14786TIP3    H265850   6.081   4.763  11.276  0.2913 -0.9426  1.2738
14787TIP3   OH265851   5.077   1.468   4.362 -0.6014  0.4971 -0.3242
14787TIP3    H165852   5.132   1.546   4.370 -0.0924  0.1119  0.0572
14787TIP3    H265853   5.070   1.434   4.452 -1.4568  0.5284 -0.3697
14788TIP3   OH265854   1.339   1.861  11.541 -0.7015 -0.9439 -0.3028
14788TIP3    H165855   1.266   1.865  11.479 -0.8414 -0.7027 -0.1257
14788TIP3    H265856   1.413   1.831  11.488 -0.4577  0.6598 -0.9429
14789TIP3   OH265857   4.114   6.393  11.104  0.2804  0.1190  0.0382
14789TIP3    H165858   4.020   6.405  11.120 -0.0787 -1.9244 -0.3221
14789TIP3    H265859   4.121   6.390  11.008  0.4004 -1.6234  0.0691
14790TIP3   OH265860   1.245   6.321  12.073  0.6076 -0.5766 -0.6072
14790TIP3    H165861   1.269   6.329  11.981  0.2413 -2.2101 -0.8861
14790TIP3    H265862   1.245   6.226  12.090 -3.9258 -0.7627 -0.2575
14791TIP3   OH265863   2.650   0.589   2.497  0.4514 -0.0117  0.2162
14791TIP3    H165864   2.567   0.607   2.453  0.8150 -1.6346 -1.2599
14791TIP3    H265865   2.714   0.643   2.450  0.8386 -1.7392 -1.3464
14792TIP3   OH265866   5.700   5.771  12.472 -0.1871 -0.1126 -0.4040
14792TIP3    H165867   5.633   5.839  12.469  0.3567  0.4612  0.2369
14792TIP3    H265868   5.780   5.813  12.440 -0.0193 -0.6670 -0.7324
14793TIP3   OH265869   2.075   4.328   0.739 -0.0990 -0.2843  0.2356
14793TIP3    H165870   2.005   4.361   0.681  0.3123 -0.8421 -0.6020
14793TIP3    H265871   2.059   4.234   0.743  0.8878 -0.4879 -0.3622
14794TIP3   OH265872   5.087   6.427   4.587  0.1669  0.5317 -0.0277
14794TIP3    H165873   5.089   6.335   4.614  0.6027  0.2776 -0.8808
14794TIP3    H265874   5.179   6.454   4.587 -0.0073  1.1627  0.8286
14795TIP3   OH265875   5.316   3.177   0.843  0.1814  0.3488  0.2465
14795TIP3    H165876   5.302   3.244   0.777 -0.5284 -0.8418 -0.8474
14795TIP3    H265877   5.369   3.110   0.800  0.4320 -0.0549  1.1448
14796TIP3   OH265878   5.480   3.771  16.521  1.1465  0.2764  0.0084
14796TIP3    H165879   5.401   3.756  16.573  2.0537  2.3249  2.1633
14796TIP3    H265880   5.453   3.832  16.453  1.0057  1.6509  1.2610
14797TIP3   OH265881   1.733   5.956  11.535 -0.3103  0.9628 -0.0643
14797TIP3    H165882   1.685   5.908  11.602 -0.5101  0.7346 -0.3636
14797TIP3    H265883   1.780   6.025  11.582 -0.7033  1.0041  0.2669
14798TIP3   OH265884   1.652   0.207  13.267  0.3179 -0.3251 -0.2597
14798TIP3    H165885   1.638   0.301  13.278 -0.0824 -0.5242  1.2447
14798TIP3    H265886   1.578   0.167  13.313 -0.0803 -1.3832 -1.7544
14799TIP3   OH265887   1.925   3.215   1.744 -0.0578 -0.7050 -0.3917
14799TIP3    H165888   1.932   3.120   1.750  0.6141 -0.6760 -0.6290
14799TIP3    H265889   2.014   3.247   1.757 -0.2221 -0.1207 -0.6315
14800TIP3   OH265890   1.358   6.501  14.448 -0.1382  0.5166 -0.0191
14800TIP3    H165891   1.370   6.486  14.354 -1.5356  1.4531 -0.3820
14800TIP3    H265892   1.445   6.521  14.480  0.5413 -0.8455 -0.9056
14801TIP3   OH265893   0.453   1.603   5.049 -0.2339  0.0182  0.3310
14801TIP3    H165894   0.361   1.604   5.025 -1.2279 -0.2187  3.6967
14801TIP3    H265895   0.474   1.694   5.070  0.1455 -0.0184  0.1157
14802TIP3   OH265896   1.314   6.148   2.951 -0.3010  0.3522  0.2348
14802TIP3    H165897   1.253   6.182   2.886  0.9256  0.3077 -0.9707
14802TIP3    H265898   1.265   6.152   3.034 -2.3730 -0.8504 -0.8601
14803TIP3   OH265899   2.323   4.944  13.264 -0.4574 -0.1288 -0.2304
14803TIP3    H165900   2.370   4.900  13.194 -1.7431 -2.2689  0.1778
14803TIP3    H265901   2.240   4.970  13.226  0.6035  2.9379 -0.7262
14804TIP3   OH265902   1.689   2.306   4.536 -0.5439  0.8311  0.1465
14804TIP3    H165903   1.609   2.257   4.520  0.0742  0.3992 -1.9880
14804TIP3    H265904   1.735   2.256   4.603 -0.2197 -1.2808 -1.5302
14805TIP3   OH265905   2.466   4.386   5.276  0.3638 -0.0697  0.0800
14805TIP3    H165906   2.497   4.396   5.366 -0.9856 -0.8337  0.6589
14805TIP3    H265907   2.376   4.356   5.285  0.5296 -1.1429 -1.5400
14806TIP3   OH265908   1.788   1.355   3.129  0.1510 -0.4446  0.1961
14806TIP3    H165909   1.865   1.331   3.181  0.8675  1.2372 -0.0374
14806TIP3    H265910   1.798   1.449   3.112 -1.0050 -0.5725 -1.4317
14807TIP3   OH265911   6.308   5.859  12.055  0.3671 -0.2374 -0.6994
14807TIP3    H165912   6.369   5.919  12.013  0.8381 -0.6266 -0.5906
14807TIP3    H265913   6.320   5.875  12.149 -1.0997  1.0419 -0.6878
14808TIP3   OH265914   1.179   2.154  12.039  0.1456  0.4203 -0.1821
14808TIP3    H165915   1.101   2.124  11.994 -2.1199  2.0866  2.3346
14808TIP3    H265916   1.209   2.229  11.987 -1.5365  1.4089  0.1988
14809TIP3   OH265917   0.763   6.341   3.287 -0.5033 -0.5431  0.1459
14809TIP3    H165918   0.730   6.424   3.250  0.3486 -0.1159  0.3299
14809TIP3    H265919   0.811   6.367   3.365 -0.6310 -1.2655  0.4693
14810TIP3   OH265920   2.575   0.921   2.466 -0.3061  0.1624  0.4551
14810TIP3    H165921   2.543   1.009   2.446  0.2224  0.1825 -0.3525
14810TIP3    H265922   2.501   0.864   2.447 -0.6999  0.4398  1.1223
14811TIP3   OH265923   3.101   1.696   2.379 -0.4002 -0.1437  0.1558
14811TIP3    H165924   3.011   1.725   2.365 -0.4505 -0.4156 -0.0805
14811TIP3    H265925   3.113   1.699   2.474 -0.1511  1.4363  0.1014
14812TIP3   OH265926   3.947   1.427   0.624  0.2772 -0.4176  0.2913
14812TIP3    H165927   3.925   1.368   0.552  1.4754  0.4028 -0.7836
14812TIP3    H265928   3.892   1.504   0.609  0.9203 -0.0205 -0.0907
14813TIP3   OH265929   5.553   0.194  10.845 -0.2139  0.6908  0.6707
14813TIP3    H165930   5.609   0.117  10.852 -0.5644  0.5370  2.0019
14813TIP3    H265931   5.480   0.166  10.790 -0.2105  0.1515  0.9430
14814TIP3   OH265932   3.245   4.751   6.360 -0.0748  0.0390  0.0044
14814TIP3    H165933   3.176   4.700   6.403  0.0375  0.2833  0.4801
14814TIP3    H265934   3.233   4.840   6.392  0.9636 -0.0600  0.7453
14815TIP3   OH265935   3.334   5.136   4.961 -0.1754  0.0546  0.6227
14815TIP3    H165936   3.241   5.128   4.940 -0.2452  0.1208  0.9092
14815TIP3    H265937   3.347   5.229   4.980 -0.3730 -0.1983  2.1046
14816TIP3   OH265938   5.244   6.385  16.058  0.2882  0.3230 -0.3694
14816TIP3    H165939   5.263   6.435  15.979 -1.0455 -0.2190 -1.0660
14816TIP3    H265940   5.265   6.294  16.035  0.3852  0.2262  0.0762
14817TIP3   OH265941   3.645   5.643  11.582 -0.0865 -0.2402 -0.2418
14817TIP3    H165942   3.638   5.686  11.667 -3.4576  0.9806 -0.9844
14817TIP3    H265943   3.716   5.580  11.592  0.1732  0.4453  3.1891
14818TIP3   OH265944   5.727   6.227   2.569  0.0963  0.0342  0.1733
14818TIP3    H165945   5.682   6.308   2.594  1.6552  0.4304  1.9877
14818TIP3    H265946   5.751   6.240   2.478 -0.9887  0.9723 -0.0073
14819TIP3   OH265947   0.138   5.700   4.989  0.0102  0.5037  0.2243
14819TIP3    H165948   0.180   5.615   5.006 -1.5472 -0.2759  0.4015
14819TIP3    H265949   0.173   5.728   4.904  1.3776  0.2378  0.6805
14820TIP3   OH265950   5.179   4.117  12.218  0.1690 -0.3390  0.0960
14820TIP3    H165951   5.188   4.134  12.311 -1.3152 -0.6170  0.3054
14820TIP3    H265952   5.267   4.091  12.190  1.4669  2.9043  0.7088
14821TIP3   OH265953   0.724   2.552   3.766 -0.2919  0.1927 -0.3180
14821TIP3    H165954   0.750   2.549   3.858  0.2923 -1.8035 -0.4902
14821TIP3    H265955   0.761   2.634   3.733 -0.8580  1.1391  1.2962
14822TIP3   OH265956   6.516   4.023  14.787  0.4573  0.4490  0.9474
14822TIP3    H165957   6.421   4.023  14.790  0.4179 -1.0563  0.5741
14822TIP3    H265958   6.538   4.069  14.705 -0.1554 -2.9659 -1.3418
14823TIP3   OH265959   4.075   5.565   0.310  0.4524 -0.0348  0.3921
14823TIP3    H165960   4.055   5.650   0.349 -2.2320 -0.0178 -0.8047
14823TIP3    H265961   4.095   5.585   0.218  0.9390 -0.6220  0.3590
14824TIP3   OH265962   3.905   6.834   0.778 -0.8104  0.1330  0.1773
14824TIP3    H165963   3.926   6.928   0.778  0.8387 -0.1613 -1.7623
14824TIP3    H265964   3.968   6.796   0.838  0.2459  0.0042 -0.9675
14825TIP3   OH265965   0.088   1.511  15.702 -0.1307 -0.1663  0.6679
14825TIP3    H165966   0.062   1.582  15.762  0.3338 -0.4227  1.1791
14825TIP3    H265967   0.014   1.504  15.642 -1.2727 -0.8687  2.0750
14826TIP3   OH265968   6.203   1.558   3.899 -0.5875  0.3996  0.4495
14826TIP3    H165969   6.166   1.510   3.825  1.3661 -0.1145 -0.2652
14826TIP3    H265970   6.170   1.513   3.977  0.3135 -1.4656 -0.1996
14827TIP3   OH265971   4.535   3.889  14.196  0.6175  0.2882 -0.0752
14827TIP3    H165972   4.564   3.853  14.280 -1.6625 -0.4234  0.4757
14827TIP3    H265973   4.616   3.914  14.152  2.1407 -2.3818  0.9534
14828TIP3   OH265974   1.748   5.085  14.528  0.2258  0.3009  0.2522
14828TIP3    H165975   1.669   5.083  14.474  0.1165  0.9193  0.3751
14828TIP3    H265976   1.734   5.160  14.586  0.7642  0.2185  0.4855
14829TIP3   OH265977   5.786   5.441  16.931 -0.1709  0.3302  0.1336
14829TIP3    H165978   5.792   5.535  16.950  0.8308  0.1333  0.8994
14829TIP3    H265979   5.836   5.430  16.850 -2.3702  0.8049 -1.3451
14830TIP3   OH265980   6.664   4.543   1.851  0.0567 -0.1603 -0.0175
14830TIP3    H165981   6.632   4.611   1.911  1.9846  3.2794 -2.5643
14830TIP3    H265982   6.724   4.491   1.904 -0.1886  1.1627  1.6694
14831TIP3   OH265983   0.322   5.370  11.211  0.2201  0.0930  0.1267
14831TIP3    H165984   0.352   5.326  11.132  1.1450  0.9585 -0.0269
14831TIP3    H265985   0.375   5.450  11.215 -0.4866  0.5275  1.1029
14832TIP3   OH265986   1.044   1.162  13.919  0.1252  0.6479  0.3427
14832TIP3    H165987   1.010   1.226  13.982  2.5550  0.7998  1.6259
14832TIP3    H265988   1.034   1.077  13.963 -0.9177  0.3926 -0.3601
14833TIP3   OH265989   5.595   3.810   4.216  0.0419  0.2253  0.5239
14833TIP3    H165990   5.575   3.809   4.123 -0.0737  2.6057  0.4586
14833TIP3    H265991   5.517   3.775   4.258 -0.1308 -0.3179 -0.2251
14834TIP3   OH265992   1.587   5.045  14.175 -0.3651 -0.0071 -0.1967
14834TIP3    H165993   1.542   5.072  14.255 -0.3805  1.5298 -0.6905
14834TIP3    H265994   1.516   5.038  14.110 -0.2377 -0.3784 -0.2990
14835TIP3   OH265995   3.414   4.567   5.130 -0.1953  0.2205 -0.1886
14835TIP3    H165996   3.493   4.513   5.124 -0.2885  0.0533  0.0642
14835TIP3    H265997   3.420   4.609   5.216 -0.0565  0.7185 -0.4387
14836TIP3   OH265998   4.478   0.694  13.262 -0.6947  0.2753  0.0654
14836TIP3    H165999   4.421   0.631  13.307 -0.9163 -0.4161 -1.1420
14836TIP3    H266000   4.566   0.673  13.293 -0.7087 -0.9598 -0.6649
14837TIP3   OH266001   2.762   0.799   3.287  0.1158  0.2533 -0.1094
14837TIP3    H166002   2.780   0.812   3.194  0.0152 -0.3118 -0.2151
14837TIP3    H266003   2.841   0.757   3.321 -0.1969 -0.3880 -0.1460
14838TIP3   OH266004   4.020   1.533   4.241  0.0812 -0.8446  0.3984
14838TIP3    H166005   4.041   1.570   4.327  0.9833  3.2754 -1.3258
14838TIP3    H266006   4.087   1.467   4.226  2.4130  1.1397  1.3611
14839TIP3   OH266007   1.136   4.081  13.937 -0.3478  0.6377  0.3125
14839TIP3    H166008   1.190   4.023  13.884  0.0223  0.3730  0.9649
14839TIP3    H266009   1.080   4.126  13.874  0.1219  0.3760 -0.3036
14840TIP3   OH266010   2.728   2.732   3.978  0.1034  0.2024  0.1411
14840TIP3    H166011   2.812   2.740   4.024  0.9149 -2.2661 -0.7051
14840TIP3    H266012   2.741   2.657   3.919 -2.8034 -0.4412  0.1843
14841TIP3   OH266013   4.641   0.907   1.117 -0.0704 -0.4136 -0.7714
14841TIP3    H166014   4.638   0.863   1.202  0.3696 -0.0231 -0.5497
14841TIP3    H266015   4.584   0.983   1.127 -1.1768 -1.1440 -1.2892
14842TIP3   OH266016   0.034   6.846   5.155  0.2968 -0.2702  0.3103
14842TIP3    H166017   0.117   6.858   5.201  1.1768  2.2454 -1.7594
14842TIP3    H266018  -0.026   6.814   5.223  2.3341  0.0569  2.3853
14843TIP3   OH266019   6.546   4.804  11.568  0.1604 -0.2602  0.3767
14843TIP3    H166020   6.532   4.888  11.611 -0.5111  1.0374 -2.1703
14843TIP3    H266021   6.629   4.773  11.603  0.6142  1.6326  1.1187
14844TIP3   OH266022   2.285   2.335  12.275  0.0992  0.0719  0.0181
14844TIP3    H166023   2.265   2.253  12.319  0.7167 -0.8058 -1.3078
14844TIP3    H266024   2.342   2.311  12.203  0.0010  1.6232 -0.6155
14845TIP3   OH266025   3.241   0.637  12.004 -0.8152 -0.1319 -0.1557
14845TIP3    H166026   3.166   0.686  11.971 -0.4298 -0.2215 -1.1724
14845TIP3    H266027   3.300   0.704  12.039 -1.2653 -0.0465  0.4573
14846TIP3   OH266028   5.610   6.608  12.072 -0.1706  1.0564  0.6654
14846TIP3    H166029   5.576   6.634  12.158 -0.4911  0.7919  0.6196
14846TIP3    H266030   5.558   6.532  12.047 -1.1054  2.0224 -0.4489
14847TIP3   OH266031   4.969   1.727  13.013 -0.1704  0.2866  0.2602
14847TIP3    H166032   4.899   1.737  13.077 -0.8893  0.5952 -0.5478
14847TIP3    H266033   4.953   1.641  12.973 -1.0316  0.9913 -0.9912
14848TIP3   OH266034   0.229   4.500  12.209 -0.0220 -0.2515 -0.0353
14848TIP3    H166035   0.299   4.549  12.166 -0.2905  0.7843  0.6794
14848TIP3    H266036   0.270   4.417  12.235  1.1913  0.6995  1.1610
14849TIP3   OH266037   5.674   4.970   3.438  0.2425 -0.1049 -0.1364
14849TIP3    H166038   5.704   4.947   3.526 -2.4806 -1.3322  0.5797
14849TIP3    H266039   5.620   5.048   3.451  2.7007  1.9519 -1.3555
14850TIP3   OH266040   6.784   3.696   1.903  0.4414 -0.4476 -0.1845
14850TIP3    H166041   6.813   3.605   1.899 -0.8437 -0.8434 -2.4047
14850TIP3    H266042   6.859   3.744   1.938  1.7058 -2.1423 -0.4461
14851TIP3   OH266043   0.732   6.165   0.602  0.4131 -0.1580  0.0426
14851TIP3    H166044   0.700   6.198   0.685 -2.2278 -2.8003  0.2429
14851TIP3    H266045   0.822   6.137   0.620  1.4653  3.2728  0.7343
14852TIP3   OH266046   0.137   2.340  13.141 -0.1558  0.4911  0.2630
14852TIP3    H166047   0.182   2.349  13.057 -0.0165 -1.5140  0.0739
14852TIP3    H266048   0.052   2.381  13.126  0.4149  1.4907 -0.3742
14853TIP3   OH266049   1.450   4.960  15.672  0.3883  0.3895  0.7154
14853TIP3    H166050   1.389   5.025  15.636  0.5084 -0.2334 -0.7013
14853TIP3    H266051   1.488   5.002  15.749 -0.0754  1.7111  0.2498
14854TIP3   OH266052   5.495   6.118   2.296  0.3638  0.6126 -0.7042
14854TIP3    H166053   5.547   6.177   2.350 -0.9172  0.6827  0.4904
14854TIP3    H266054   5.530   6.031   2.316  1.0708  0.7899 -1.1309
14855TIP3   OH266055   6.427   1.597   1.638 -0.2980  0.1330 -0.2266
14855TIP3    H166056   6.405   1.638   1.721  2.0357 -0.0942  0.5655
14855TIP3    H266057   6.518   1.622   1.622 -0.7135  0.2789 -2.8046
14856TIP3   OH266058   4.735   4.204  11.976  0.0716 -0.2960 -0.2156
14856TIP3    H166059   4.781   4.265  12.033 -1.7002  1.6831 -0.7914
14856TIP3    H266060   4.774   4.119  11.997  1.4879  0.7529  1.8181
14857TIP3   OH266061   4.271   1.428   3.757 -0.3258  0.1052  0.5007
14857TIP3    H166062   4.326   1.500   3.786 -0.8941  0.5996  0.3695
14857TIP3    H266063   4.333   1.358   3.735  0.1697  0.1045  1.8244
14858TIP3   OH266064   5.702   1.032   1.721  0.0243  0.2191  0.4244
14858TIP3    H166065   5.692   1.086   1.642 -1.2863 -0.3579  0.1797
14858TIP3    H266066   5.643   1.072   1.785  0.7152  0.3884  0.9678
14859TIP3   OH266067   0.334   0.017  13.203 -0.0204  0.4043  0.3103
14859TIP3    H166068   0.253   0.023  13.252  0.3543  2.8546  0.7725
14859TIP3    H266069   0.317  -0.049  13.136 -2.0257  0.1243  1.0361
14860TIP3   OH266070   6.254   2.020   3.223  0.1399  0.5483  0.7003
14860TIP3    H166071   6.288   2.089   3.281 -0.2334  0.8339  0.5856
14860TIP3    H266072   6.281   2.047   3.135 -2.2215  1.9676  0.3207
14861TIP3   OH266073   6.820   0.371  10.468  0.1628  0.4284 -0.4171
14861TIP3    H166074   6.735   0.415  10.462  0.1954  0.6790  0.6257
14861TIP3    H266075   6.800   0.278  10.456 -0.4754  0.3413  1.0723
14862TIP3   OH266076   6.494   0.306  10.736  0.3532 -0.0990 -0.0260
14862TIP3    H166077   6.565   0.277  10.794  1.1077  0.4675 -0.6368
14862TIP3    H266078   6.503   0.401  10.733 -0.9051  0.0442  0.4631
14863TIP3   OH266079   2.714   1.734  13.756 -0.3334  0.2464 -0.4088
14863TIP3    H166080   2.741   1.643  13.738 -2.0179 -0.1238 -1.2731
14863TIP3    H266081   2.636   1.725  13.811 -0.8089  1.1338 -0.9120
14864TIP3   OH266082   1.764   1.203  13.367  0.2046  0.4841 -0.4899
14864TIP3    H166083   1.719   1.118  13.369 -0.4598  0.8277 -0.7389
14864TIP3    H266084   1.707   1.260  13.316  2.1769  0.2133 -3.1877
14865TIP3   OH266085   4.647   0.918   0.442  0.5634 -0.1042  0.1300
14865TIP3    H166086   4.613   0.897   0.354  1.1503  1.4828 -0.5123
14865TIP3    H266087   4.568   0.926   0.496  0.1505 -0.5144 -0.3983
14866TIP3   OH266088   3.051   2.994  11.357 -0.4019  0.1265  0.8528
14866TIP3    H166089   3.035   2.964  11.447 -1.3521  0.6709  0.8791
14866TIP3    H266090   3.065   2.914  11.307 -1.7375 -0.3099  1.1420
14867TIP3   OH266091   5.743   1.261   4.054  0.1221  0.3103  0.3297
14867TIP3    H166092   5.837   1.272   4.045  0.2222 -0.4070  0.5327
14867TIP3    H266093   5.731   1.197   4.123 -0.4293 -1.7299 -1.5461
14868TIP3   OH266094   2.246   4.782  14.741 -0.2295  1.0237  0.2520
14868TIP3    H166095   2.315   4.717  14.724 -1.8013 -0.5644 -0.3156
14868TIP3    H266096   2.251   4.842  14.666 -0.1902  0.2479 -0.3796
14869TIP3   OH266097   6.349   2.581  15.570 -0.7671 -0.1312 -0.5527
14869TIP3    H166098   6.400   2.659  15.552 -0.3973 -0.0674  0.6985
14869TIP3    H266099   6.387   2.513  15.513 -1.0559  0.5613 -1.6014
14870TIP3   OH266100   1.061   1.656   4.022 -0.1005  0.3134  0.1893
14870TIP3    H166101   1.085   1.564   4.031 -2.6366 -0.5008 -0.4145
14870TIP3    H266102   1.127   1.693   3.963 -0.0852 -1.6344 -1.1206
14871TIP3   OH266103   5.040   6.201   4.392  0.3193  0.1994  0.1016
14871TIP3    H166104   5.071   6.270   4.333  0.3360 -1.4407 -1.9235
14871TIP3    H266105   5.117   6.176   4.443  0.4636  1.2063  0.3974
14872TIP3   OH266106   1.229   6.113  11.738 -0.1308  0.1440 -0.2297
14872TIP3    H166107   1.315   6.077  11.758  0.0275  0.3545 -0.5270
14872TIP3    H266108   1.246   6.198  11.699 -0.4606  0.0675 -0.5519
14873TIP3   OH266109   0.010   5.799   3.790  0.6168  0.7128  0.4007
14873TIP3    H166110   0.038   5.711   3.764 -0.3641  0.1572  1.1507
14873TIP3    H266111  -0.053   5.824   3.722 -0.4532  0.0753  1.1241
14874TIP3   OH266112   2.547   3.396  13.653  0.5455  0.4805 -0.3438
14874TIP3    H166113   2.628   3.364  13.692  0.5268  1.9839  1.0268
14874TIP3    H266114   2.571   3.419  13.563  1.6777  1.0051  0.0785
14875TIP3   OH266115   3.745   4.186   1.712 -0.4126 -0.5347 -0.5438
14875TIP3    H166116   3.706   4.177   1.625  0.4535 -0.7200 -0.9239
14875TIP3    H266117   3.670   4.196   1.771 -1.0615 -1.5352 -1.1701
14876TIP3   OH266118   6.001   6.552   4.273 -0.2057 -0.1906 -0.3889
14876TIP3    H166119   5.997   6.620   4.340  1.8360  0.6811 -1.0904
14876TIP3    H266120   6.093   6.526   4.269 -0.7330 -2.2003 -0.9690
14877TIP3   OH266121   2.387   0.850  15.788  0.0782  0.4726  0.5077
14877TIP3    H166122   2.337   0.820  15.711 -2.7312  1.1051  1.9590
14877TIP3    H266123   2.402   0.943  15.772  1.0526  0.2425 -0.0164
14878TIP3   OH266124   0.448   0.439   3.596  0.1623  0.3810 -0.1556
14878TIP3    H166125   0.488   0.354   3.582  1.2366  0.6594  1.0445
14878TIP3    H266126   0.497   0.499   3.539  1.0875  0.6072  0.8376
14879TIP3   OH266127   4.906   5.391  15.005 -0.1234 -0.2616  0.5226
14879TIP3    H166128   4.920   5.383  14.910 -0.6256 -1.0592  0.5046
14879TIP3    H266129   4.812   5.377  15.016  0.1787 -1.8698  1.2895
14880TIP3   OH266130   2.462   2.870   3.027 -0.2025 -0.2091  0.2509
14880TIP3    H166131   2.442   2.932   3.098 -0.2465  1.2203 -0.9675
14880TIP3    H266132   2.399   2.799   3.039  0.0959 -0.2395  1.9121
14881TIP3   OH266133   2.587   2.153   2.289 -0.1625  0.4293 -0.5434
14881TIP3    H166134   2.662   2.116   2.335 -0.2134  0.7794 -0.1735
14881TIP3    H266135   2.613   2.153   2.197 -0.3865 -1.0503 -0.6277
14882TIP3   OH266136   6.227   4.341  11.783  0.0613  0.1784  0.2790
14882TIP3    H166137   6.155   4.404  11.776 -0.0293 -0.0419 -0.9565
14882TIP3    H266138   6.305   4.390  11.756  0.2017  0.1072  0.5465
14883TIP3   OH266139   1.619   4.537  13.525 -0.5898 -0.4584  0.4453
14883TIP3    H166140   1.550   4.520  13.589 -0.5777 -1.5715  0.1873
14883TIP3    H266141   1.688   4.475  13.548 -0.4316 -0.6162 -0.4089
14884TIP3   OH266142   3.146   4.753  16.710 -0.1031  0.1311  0.5238
14884TIP3    H166143   3.161   4.710  16.794  0.1254  0.7330  0.7972
14884TIP3    H266144   3.051   4.769  16.709 -0.0991  0.1781  0.7018
14885TIP3   OH266145   5.169   5.384  15.835  0.7467  0.1567  0.0081
14885TIP3    H166146   5.252   5.428  15.854 -1.1304  3.6132  1.2482
14885TIP3    H266147   5.137   5.426  15.755 -0.6115  0.3122  0.5971
14886TIP3   OH266148   0.507   5.205   4.956  0.3152  0.4225 -0.1710
14886TIP3    H166149   0.447   5.155   5.012  0.8490  0.8062  0.7642
14886TIP3    H266150   0.586   5.214   5.009  1.7478 -1.2626 -1.8824
14887TIP3   OH266151   2.720   0.531  14.169 -0.2054 -0.4318  0.1835
14887TIP3    H166152   2.692   0.592  14.238 -1.2766 -0.7858  0.0859
14887TIP3    H266153   2.741   0.587  14.095 -2.1913 -0.2041 -0.2504
14888TIP3   OH266154   4.646   4.560   5.487 -0.5665 -0.0408 -0.2904
14888TIP3    H166155   4.613   4.493   5.547  1.2149  0.9721  1.9698
14888TIP3    H266156   4.574   4.622   5.477 -0.8355 -0.1369  0.9643
14889TIP3   OH266157   1.477   6.027   4.320 -0.0867 -0.0031 -0.4610
14889TIP3    H166158   1.433   6.094   4.268  1.8495  0.0957 -2.0946
14889TIP3    H266159   1.505   6.073   4.400  1.4032  1.2687 -1.6465
14890TIP3   OH266160   1.431   5.048   4.650  0.2655 -0.2378 -0.1474
14890TIP3    H166161   1.523   5.055   4.623 -0.0196  0.7806 -0.9284
14890TIP3    H266162   1.391   5.130   4.619 -0.8974 -0.6548  0.2086
14891TIP3   OH266163   4.635   3.336   2.410  0.3574  0.1177 -0.2362
14891TIP3    H166164   4.543   3.335   2.384  0.3219 -0.6884 -0.0898
14891TIP3    H266165   4.633   3.326   2.505  0.6033  0.0069 -0.2430
14892TIP3   OH266166   6.718   5.444   1.912 -0.1586 -0.0381 -0.2666
14892TIP3    H166167   6.648   5.479   1.967 -0.4518 -1.0542  0.0269
14892TIP3    H266168   6.683   5.362   1.876  0.6125 -0.1978 -0.6892
14893TIP3   OH266169   2.490   3.974   0.186  0.5942 -0.7672  0.1115
14893TIP3    H166170   2.464   3.983   0.277  2.8542 -0.0378  0.7447
14893TIP3    H266171   2.582   3.948   0.189  0.8271 -0.3920 -1.9625
14894TIP3   OH266172   1.841   1.200   5.102  0.0928 -0.2561 -0.6981
14894TIP3    H166173   1.846   1.115   5.146 -0.3101  0.7624  1.3917
14894TIP3    H266174   1.915   1.250   5.136  1.6300 -0.4159 -3.5187
14895TIP3   OH266175   5.944   3.689   1.092  0.2233 -0.1412  0.5878
14895TIP3    H166176   5.903   3.610   1.055  0.3540 -0.3352  0.8539
14895TIP3    H266177   5.870   3.743   1.120  0.1083  0.2103 -0.3590
14896TIP3   OH266178   2.765   5.503   4.996 -0.6720 -0.0399  0.5304
14896TIP3    H166179   2.689   5.550   5.028 -1.4195  0.5683 -1.9078
14896TIP3    H266180   2.774   5.427   5.054 -1.1791  1.5434  2.7642
14897TIP3   OH266181   3.089   6.368  11.356  0.4699 -0.0195  0.9713
14897TIP3    H166182   3.141   6.326  11.287  0.0971  0.4592  0.3815
14897TIP3    H266183   3.148   6.376  11.430  0.8724 -0.5748  0.7176
14898TIP3   OH266184   5.456   2.649   6.022  0.2798  0.3927 -0.0968
14898TIP3    H166185   5.388   2.600   5.977  1.4351 -0.0399 -1.4423
14898TIP3    H266186   5.510   2.583   6.065  0.7525  0.6133 -0.3418
14899TIP3   OH266187   4.581   5.781  11.127 -0.5020 -0.4681  0.6525
14899TIP3    H166188   4.486   5.779  11.143 -0.5692  2.7247  1.3077
14899TIP3    H266189   4.609   5.866  11.161  2.9118 -1.8963  1.8647
14900TIP3   OH266190   6.202   0.570   4.071  0.5822  0.2997  0.0896
14900TIP3    H166191   6.123   0.615   4.042  0.4421 -0.2015 -0.3032
14900TIP3    H266192   6.241   0.536   3.991  0.5318 -0.5295  0.4129
14901TIP3   OH266193   5.398   1.122   3.526 -0.1548 -0.2972 -0.8184
14901TIP3    H166194   5.382   1.031   3.500 -2.2665  0.2636 -1.7200
14901TIP3    H266195   5.353   1.131   3.610  2.4133 -0.7574  0.7127
14902TIP3   OH266196   4.081   5.119  10.852  0.3122  0.7024 -0.2483
14902TIP3    H166197   4.146   5.165  10.800 -1.4474  0.7747 -2.5311
14902TIP3    H266198   4.049   5.184  10.914  0.9194  1.2680 -0.5141
14903TIP3   OH266199   4.556   2.743   0.148  0.1623  0.8503  0.5615
14903TIP3    H166200   4.554   2.826   0.100 -0.3667  0.2815 -0.4351
14903TIP3    H266201   4.575   2.768   0.238  2.7587  1.8513 -0.1528
14904TIP3   OH266202   3.391   3.173   0.767 -0.1588 -0.0365 -0.5843
14904TIP3    H166203   3.427   3.111   0.703  0.3729  0.4966 -0.8206
14904TIP3    H266204   3.326   3.123   0.816  0.8934 -1.0357 -0.1605
14905TIP3   OH266205   0.567   1.770   0.498 -0.1937 -0.5537  0.1557
14905TIP3    H166206   0.553   1.703   0.432 -3.2788 -0.6613  0.7399
14905TIP3    H266207   0.657   1.757   0.528  0.3886 -2.2238 -2.0829
14906TIP3   OH266208   4.543   1.874   2.412 -0.2455 -0.5063 -0.2908
14906TIP3    H166209   4.516   1.864   2.503  0.5478  0.0308  0.0147
14906TIP3    H266210   4.628   1.829   2.407  1.0756  1.8290 -0.0540
14907TIP3   OH266211   4.897   6.097   5.357  0.5395  0.1081 -0.6455
14907TIP3    H166212   4.815   6.050   5.339  0.0872  0.9221 -0.7814
14907TIP3    H266213   4.870   6.170   5.412  1.4957 -0.7694  1.0705
14908TIP3   OH266214   1.377   5.873  13.119  0.0137 -0.1424  0.0747
14908TIP3    H166215   1.362   5.852  13.026 -1.6787  0.9556  0.0476
14908TIP3    H266216   1.307   5.826  13.165  0.1298  0.2650  0.6691
14909TIP3   OH266217   5.913   2.954   4.678  0.1399  0.6205  0.3619
14909TIP3    H166218   5.871   2.870   4.693  0.9558  0.2074  0.3982
14909TIP3    H266219   5.844   3.010   4.642  0.0450 -0.6446 -1.5784
14910TIP3   OH266220   5.282   6.754   5.972  0.2197  0.0829  0.4161
14910TIP3    H166221   5.221   6.713   5.911 -0.7417  1.6583  0.2788
14910TIP3    H266222   5.367   6.714   5.951 -0.2545 -0.1171 -1.2817
14911TIP3   OH266223   2.530   2.933  12.060 -0.1980 -0.3059  0.1757
14911TIP3    H166224   2.489   2.934  11.974 -0.9934  0.3753  0.5524
14911TIP3    H266225   2.466   2.888  12.116 -0.3233  0.5226  0.7118
14912TIP3   OH266226   1.761   6.570   2.103 -0.1535  0.3566 -0.1599
14912TIP3    H166227   1.834   6.514   2.128 -0.5568 -0.1721 -0.1599
14912TIP3    H266228   1.683   6.517   2.118 -0.5716  1.0879  0.3047
14913TIP3   OH266229   0.564   5.045   4.728 -0.6515  0.2725  0.4590
14913TIP3    H166230   0.567   5.100   4.807  2.0569 -0.9569  1.3214
14913TIP3    H266231   0.495   4.981   4.747  1.3076 -1.3037  2.8586
14914TIP3   OH266232   3.753   0.539  12.742 -0.1724  0.4939  0.4316
14914TIP3    H166233   3.690   0.593  12.790  0.5953  1.1749  0.6895
14914TIP3    H266234   3.726   0.449  12.761  0.8719  0.6681  3.2732
14915TIP3   OH266235   5.610   5.250   1.778  0.4716  0.2591 -0.3742
14915TIP3    H166236   5.666   5.293   1.713  1.4385  0.3035  0.4612
14915TIP3    H266237   5.619   5.157   1.758  1.2121  0.2347  0.0195
14916TIP3   OH266238   4.873   3.154   5.851  0.8370 -0.1567  0.2666
14916TIP3    H166239   4.851   3.192   5.936 -1.2267  0.1132 -0.3409
14916TIP3    H266240   4.865   3.059   5.865 -0.6310 -0.0669  0.0982
14917TIP3   OH266241   5.904   2.833   4.137 -0.3069  0.3507 -0.1290
14917TIP3    H166242   5.948   2.890   4.201  2.2419 -0.1375 -1.3339
14917TIP3    H266243   5.894   2.749   4.182 -0.0328  0.4718  0.1569
14918TIP3   OH266244   2.348   4.183   5.911  0.4218 -0.0299  0.6464
14918TIP3    H166245   2.299   4.228   5.842  1.4705  0.4730  0.2152
14918TIP3    H266246   2.309   4.215   5.993 -0.5313 -0.2961  0.3050
14919TIP3   OH266247   0.692   6.089   6.129  0.2165 -0.3396 -0.7822
14919TIP3    H166248   0.724   6.013   6.177 -0.0644  1.6433  2.8509
14919TIP3    H266249   0.698   6.063   6.037  1.4589 -4.1729  0.1997
14920TIP3   OH266250   2.811   5.584  14.297  0.4717 -0.4827  0.3440
14920TIP3    H166251   2.718   5.566  14.287 -0.2231  2.0127  1.7360
14920TIP3    H266252   2.833   5.550  14.384  0.5884 -0.0370  0.4881
14921TIP3   OH266253   6.350   4.280  14.979  0.0687  0.2694  0.1083
14921TIP3    H166254   6.294   4.280  14.901 -1.4369 -2.0765  1.0455
14921TIP3    H266255   6.288   4.267  15.051  1.7325 -1.5813  1.2846
14922TIP3   OH266256   3.877   0.263  13.747  0.0923  0.5598  0.3346
14922TIP3    H166257   3.933   0.215  13.808  0.0336  0.3358  0.2119
14922TIP3    H266258   3.820   0.315  13.802  0.2304  0.5717  0.4672
14923TIP3   OH266259   2.851   3.783   1.696  0.1142  0.3021  0.0999
14923TIP3    H166260   2.786   3.822   1.637  0.6988  0.1313 -0.6719
14923TIP3    H266261   2.878   3.702   1.652  0.5096  0.1347  0.6379
14924TIP3   OH266262   5.655   1.964   0.738  0.0042  0.2335 -0.0053
14924TIP3    H166263   5.670   1.876   0.702 -0.3640  0.8073 -1.6516
14924TIP3    H266264   5.668   2.022   0.663  0.7643  1.6428  1.1776
14925TIP3   OH266265   6.354   4.927  13.056 -0.3165 -0.2926 -0.9531
14925TIP3    H166266   6.420   4.862  13.079  1.5281  1.1539 -1.8629
14925TIP3    H266267   6.386   5.009  13.094 -2.7342  0.1213  0.4424
14926TIP3   OH266268   6.849   4.384   3.482 -0.1667 -0.1555 -0.4600
14926TIP3    H166269   6.848   4.376   3.387 -1.7118 -0.5798 -0.4336
14926TIP3    H266270   6.942   4.390   3.505  0.1769  1.0489 -2.0594
14927TIP3   OH266271   2.346   4.314  13.519  0.1474  0.5724 -0.3459
14927TIP3    H166272   2.324   4.260  13.443 -1.4436 -1.8067  1.6632
14927TIP3    H266273   2.441   4.316  13.520  0.2133 -0.2832 -1.7781
14928TIP3   OH266274   1.526   2.566   2.937  0.8003  0.3230 -0.0032
14928TIP3    H166275   1.564   2.624   2.871  1.1670  1.0250  0.8104
14928TIP3    H266276   1.497   2.625   3.007 -0.1231 -0.3586  0.2007
14929TIP3   OH266277   0.669   2.607  15.765 -0.3451 -0.4669 -0.1319
14929TIP3    H166278   0.698   2.581  15.678  0.5982 -0.6956  0.2488
14929TIP3    H266279   0.606   2.678  15.749  0.7399  0.3364 -0.9521
14930TIP3   OH266280   4.308   3.870  10.633 -0.5543  0.4483  0.1112
14930TIP3    H166281   4.351   3.906  10.554 -1.1341 -0.2704 -0.5486
14930TIP3    H266282   4.216   3.861  10.608 -0.8468  0.7115  1.0669
14931TIP3   OH266283   3.777   1.811  13.155 -0.2724 -0.1992 -0.3619
14931TIP3    H166284   3.685   1.820  13.179 -0.5921 -0.2033 -1.5002
14931TIP3    H266285   3.823   1.870  13.215 -0.5464 -2.8277  2.6805
14932TIP3   OH266286   0.987   2.929   0.292 -0.1981  0.5254  0.3547
14932TIP3    H166287   0.961   2.852   0.343 -0.7079  0.4530  0.0015
14932TIP3    H266288   1.074   2.952   0.325 -0.2560  0.1034  0.8133
14933TIP3   OH266289   0.794   5.910   1.700  0.2712 -0.4689 -1.4260
14933TIP3    H166290   0.836   5.968   1.764  0.6101 -0.1666 -1.9187
14933TIP3    H266291   0.837   5.826   1.712 -0.3220 -0.6744 -0.6053
14934TIP3   OH266292   2.423   2.702  14.809 -0.0996 -0.1980 -0.6820
14934TIP3    H166293   2.398   2.795  14.811 -2.1065 -0.7130  0.0124
14934TIP3    H266294   2.465   2.687  14.893  0.9025  0.2260 -1.0889
14935TIP3   OH266295   0.370   1.941  17.073 -0.0218  0.2546 -0.1018
14935TIP3    H166296   0.338   1.962  17.161 -2.2894 -2.1177 -0.2273
14935TIP3    H266297   0.367   2.025  17.026  1.2295  1.5587  2.0219
14936TIP3   OH266298   3.414   1.361  15.071  0.3153  0.1787  0.3619
14936TIP3    H166299   3.319   1.351  15.079  0.1700  1.1267 -0.0636
14936TIP3    H266300   3.434   1.335  14.981  0.0302  2.7128 -0.5210
14937TIP3   OH266301   5.944   4.717  16.694  0.1721 -0.1940  0.2700
14937TIP3    H166302   5.999   4.638  16.686  0.7136  0.2089 -0.0933
14937TIP3    H266303   5.857   4.683  16.712  0.6485 -0.8388  1.4805
14938TIP3   OH266304   0.440   2.389  15.418  0.2453 -0.2543  0.1599
14938TIP3    H166305   0.367   2.336  15.385 -1.3840  1.3589  1.0175
14938TIP3    H266306   0.401   2.444  15.486  2.6173 -0.5052  1.8631
14939TIP3   OH266307   6.705   1.619  12.708  0.0304  0.0817 -0.2224
14939TIP3    H166308   6.654   1.692  12.741 -0.7011 -0.9008  0.9196
14939TIP3    H266309   6.641   1.562  12.666  0.5761  0.0419 -1.0198
14940TIP3   OH266310   3.042   5.128  11.109 -0.0343  0.4350  0.1203
14940TIP3    H166311   2.996   5.143  11.026 -1.7562 -0.4123  0.8544
14940TIP3    H266312   3.001   5.049  11.144  0.8576  0.6151  1.6463
14941TIP3   OH266313   2.666   6.173  13.069  0.4253  0.4973  0.1187
14941TIP3    H166314   2.755   6.137  13.075  0.3958  0.0825 -1.3506
14941TIP3    H266315   2.666   6.222  12.987 -0.0517  2.4787  1.2464
14942TIP3   OH266316   4.772   3.683  17.029 -0.2880 -0.8683 -0.2175
14942TIP3    H166317   4.777   3.774  17.000  1.9192 -1.3890 -1.6723
14942TIP3    H266318   4.685   3.654  17.003 -2.6553  1.8060  3.6719
14943TIP3   OH266319   1.988   4.335  15.267 -0.5835  0.2101  0.0466
14943TIP3    H166320   2.053   4.277  15.227 -0.3616  1.2301 -1.1205
14943TIP3    H266321   1.968   4.400  15.200  0.2288  2.3514  1.7368
14944TIP3   OH266322   3.157   5.653   1.184  0.1498 -0.6242  0.1107
14944TIP3    H166323   3.237   5.603   1.168 -0.1025 -1.6097  1.6842
14944TIP3    H266324   3.189   5.740   1.208  0.7037 -0.6988 -0.3289
14945TIP3   OH266325   6.237   3.205  11.218 -0.1881  0.3380 -0.1207
14945TIP3    H166326   6.149   3.175  11.194  0.3338 -0.4856 -1.0680
14945TIP3    H266327   6.293   3.175  11.146  0.8574  0.9163  0.4365
14946TIP3   OH266328   3.880   4.222  13.675 -0.1091  0.4800 -0.0614
14946TIP3    H166329   3.800   4.243  13.627  0.5610  0.9575 -1.0034
14946TIP3    H266330   3.885   4.288  13.744  0.3767  1.5746 -1.1060
14947TIP3   OH266331   3.546   5.753  11.337 -0.3845  0.3738  0.2841
14947TIP3    H166332   3.551   5.842  11.371  1.0551 -0.0158  1.1791
14947TIP3    H266333   3.594   5.700  11.401  0.8284 -0.6909 -1.4096
14948TIP3   OH266334   0.769   2.454  13.648 -0.0212 -0.3997  0.0415
14948TIP3    H166335   0.712   2.435  13.723  1.7441 -2.6697  0.9322
14948TIP3    H266336   0.771   2.372  13.598  0.8605  0.2786 -1.0948
14949TIP3   OH266337   3.732   6.561   0.766 -0.4247 -0.0320 -0.4209
14949TIP3    H166338   3.750   6.633   0.705  3.6334 -0.2015  0.2926
14949TIP3    H266339   3.684   6.603   0.838 -0.1060  1.4584 -1.0345
14950TIP3   OH266340   3.182   1.636  15.061  0.2045 -0.2294  0.2609
14950TIP3    H166341   3.188   1.544  15.087  2.3456 -0.1801  0.1935
14950TIP3    H266342   3.144   1.634  14.974  1.5217 -1.2205 -0.3371
14951TIP3   OH266343   6.603   4.601   4.560 -0.1199  0.1054 -0.5249
14951TIP3    H166344   6.612   4.637   4.648  0.8297 -0.6202 -0.3159
14951TIP3    H266345   6.540   4.660   4.517 -3.3630 -1.4390  1.6853
14952TIP3   OH266346   0.955   3.578   5.273  0.3374 -0.1280  0.1356
14952TIP3    H166347   1.033   3.538   5.234 -0.5638 -1.7212 -0.1111
14952TIP3    H266348   0.951   3.543   5.361  0.1534  0.3277  0.3132
14953TIP3   OH266349   5.665   4.569  16.459 -0.0522 -0.4532  0.2932
14953TIP3    H166350   5.622   4.606  16.382 -1.2986 -1.3511  0.5224
14953TIP3    H266351   5.756   4.555  16.432  0.3800  2.2422  0.0457
14954TIP3   OH266352   4.528   4.755  13.459 -0.2932 -0.2306  0.1897
14954TIP3    H166353   4.553   4.847  13.445 -2.0015 -0.1189 -2.8249
14954TIP3    H266354   4.611   4.707  13.452  0.3411  0.8891 -0.2954
14955TIP3   OH266355   6.790   2.927  12.674 -0.1110 -0.0350 -0.7279
14955TIP3    H166356   6.856   2.908  12.607 -1.0968  0.6161 -1.9180
14955TIP3    H266357   6.752   3.011  12.647 -0.8529  0.0098  0.4031
14956TIP3   OH266358   3.673   3.943   2.686 -0.5828  0.4441 -0.3679
14956TIP3    H166359   3.637   3.881   2.750 -0.3406  1.0005  0.3077
14956TIP3    H266360   3.768   3.937   2.697 -0.5789  1.4673  0.2102
14957TIP3   OH266361   6.028   2.716  12.055  0.1566 -0.1934 -0.4015
14957TIP3    H166362   6.083   2.752  11.986  1.7152 -1.8803 -0.1394
14957TIP3    H266363   6.048   2.769  12.132 -0.0238  0.3881 -0.7493
14958TIP3   OH266364   0.195   4.622   4.003 -0.2130  0.0448  0.3436
14958TIP3    H166365   0.287   4.642   3.986 -0.4163  1.1116  0.4271
14958TIP3    H266366   0.183   4.640   4.097  0.1964 -2.9878  1.0700
14959TIP3   OH266367   3.365   3.334   0.344  0.0208  0.3586  0.5929
14959TIP3    H166368   3.413   3.359   0.423  0.3542 -1.4476  0.9891
14959TIP3    H266369   3.419   3.367   0.272 -0.5954  2.5826  1.0522
14960TIP3   OH266370   5.168   0.576  16.096 -0.3522  0.1970  0.0707
14960TIP3    H166371   5.164   0.672  16.094 -0.7636  0.1756 -0.2153
14960TIP3    H266372   5.253   0.557  16.135  0.7585  0.6765 -1.9501
14961TIP3   OH266373   1.893   6.774   2.656 -0.5141 -0.7371 -0.0158
14961TIP3    H166374   1.972   6.827   2.666 -0.8156 -0.4408  0.8280
14961TIP3    H266375   1.856   6.802   2.572  1.1805 -2.1103 -1.2969
14962TIP3   OH266376   5.272   4.452  13.993  0.5042 -0.5404 -0.0404
14962TIP3    H166377   5.265   4.433  13.899  0.5071 -1.3644  0.1206
14962TIP3    H266378   5.224   4.534  14.004 -0.3436 -0.9348 -0.6174
14963TIP3   OH266379   0.718   3.252  16.427  0.1334  0.5695 -0.4557
14963TIP3    H166380   0.761   3.207  16.354 -1.7887 -1.6470 -0.3370
14963TIP3    H266381   0.775   3.236  16.502 -0.7602 -2.4091 -0.2752
14964TIP3   OH266382   0.832   0.602   3.552  0.4608 -0.8269  0.0325
14964TIP3    H166383   0.857   0.510   3.546  1.2718 -0.5565 -1.3524
14964TIP3    H266384   0.915   0.649   3.543  0.0255  0.0356  0.4841
14965TIP3   OH266385   3.050   4.482   2.785  0.2861 -0.0340 -0.4883
14965TIP3    H166386   3.087   4.394   2.799  0.6468  0.2554  0.4835
14965TIP3    H266387   2.958   4.466   2.763 -0.0785 -0.6084  1.3110
14966TIP3   OH266388   5.743   6.297   5.959 -0.2843 -0.1813  0.4971
14966TIP3    H166389   5.766   6.230   6.024 -0.0818  0.4142  1.0554
14966TIP3    H266390   5.689   6.251   5.895  1.4160 -1.3273 -0.1821
14967TIP3   OH266391   4.789   4.558   3.144  0.2330 -0.7386 -0.6442
14967TIP3    H166392   4.729   4.591   3.077  0.9050  1.9510 -0.0579
14967TIP3    H266393   4.874   4.596   3.121  1.4426 -3.1669 -0.5633
14968TIP3   OH266394   5.477   0.241  14.253  0.6441 -0.1616  0.0817
14968TIP3    H166395   5.562   0.285  14.262  1.7933 -2.4215  1.1973
14968TIP3    H266396   5.432   0.259  14.335 -0.5120  1.9833 -0.9517
14969TIP3   OH266397   2.705   0.423   5.754  0.1164 -0.1140  0.3824
14969TIP3    H166398   2.659   0.362   5.811 -0.8770  0.6240  0.3819
14969TIP3    H266399   2.643   0.494   5.739  1.4151  1.1584  0.7923
14970TIP3   OH266400   2.278   3.455  12.387  0.2258  0.4590 -0.0970
14970TIP3    H166401   2.272   3.534  12.441 -1.8568  1.9861 -2.3650
14970TIP3    H266402   2.189   3.420  12.385  0.6536 -0.6393 -0.9797
14971TIP3   OH266403   6.101   0.839  13.165  0.0372 -0.1845  0.0651
14971TIP3    H166404   6.196   0.848  13.176  0.1334  0.8731 -1.3459
14971TIP3    H266405   6.091   0.800  13.079 -0.8280  1.0745 -0.4369
14972TIP3   OH266406   1.776   6.204  15.771  0.4943 -0.1241  0.1567
14972TIP3    H166407   1.730   6.287  15.786 -0.2677 -0.5267  0.0987
14972TIP3    H266408   1.861   6.230  15.737  0.7110  0.6794  1.2541
14973TIP3   OH266409   2.652   3.859   5.530 -0.3062 -0.2024  0.4049
14973TIP3    H166410   2.628   3.904   5.449 -2.5984 -0.2092  1.0385
14973TIP3    H266411   2.653   3.766   5.506 -1.0590 -0.2110  0.4041
14974TIP3   OH266412   2.092   4.948  13.512  0.4792 -0.3173 -0.0110
14974TIP3    H166413   2.153   4.874  13.512 -0.1964 -0.9039  1.2115
14974TIP3    H266414   2.137   5.016  13.561  0.3455 -0.5924  0.5008
14975TIP3   OH266415   4.690   0.795   1.351  0.0589  0.4507 -0.1181
14975TIP3    H166416   4.751   0.722   1.342  0.2364  0.6115 -0.2166
14975TIP3    H266417   4.670   0.798   1.445 -0.7560 -0.3773 -0.2399
14976TIP3   OH266418   0.956   3.517  14.343  0.2881 -0.4156 -0.0386
14976TIP3    H166419   0.883   3.486  14.397  0.7244  0.5467  1.1519
14976TIP3    H266420   0.981   3.600  14.383 -0.3039  1.1031 -2.5937
14977TIP3   OH266421   1.021   4.091   5.530 -0.0380  0.5201  0.0903
14977TIP3    H166422   1.000   4.007   5.570  1.1929  0.9955  1.8610
14977TIP3    H266423   0.966   4.095   5.452  1.0473 -2.6672 -1.0139
14978TIP3   OH266424   0.388   3.708  14.800  0.3246 -0.4942 -0.0411
14978TIP3    H166425   0.360   3.774  14.737 -4.1832 -0.1680  1.9604
14978TIP3    H266426   0.457   3.751  14.851 -0.6215  1.6758 -0.4887
14979TIP3   OH266427   4.441   3.512   3.734  0.0155 -0.4392 -0.2540
14979TIP3    H166428   4.442   3.566   3.654 -2.0208  1.6307  0.9925
14979TIP3    H266429   4.370   3.450   3.719 -2.6617  2.0452  1.0331
14980TIP3   OH266430   3.275   4.516  11.838  0.7558  1.2926 -0.2908
14980TIP3    H166431   3.230   4.577  11.896 -1.8296  0.2521 -1.0335
14980TIP3    H266432   3.277   4.561  11.754  1.8663  1.6413 -0.0905
14981TIP3   OH266433   3.764   4.425   1.354 -0.0715  0.1992  0.1320
14981TIP3    H166434   3.756   4.519   1.339 -1.8575  0.0027 -0.3280
14981TIP3    H266435   3.842   4.400   1.305 -0.0101  1.3069 -0.3668
14982TIP3   OH266436   1.675   5.471   5.805 -0.3613  0.1473 -0.1913
14982TIP3    H166437   1.606   5.438   5.748 -0.2499  0.4248 -0.4930
14982TIP3    H266438   1.727   5.394   5.828 -0.0846  0.1155 -0.9115
14983TIP3   OH266439   3.742   1.617   5.889  0.0835 -0.4355 -0.6042
14983TIP3    H166440   3.664   1.612   5.833  0.7157 -0.8036 -1.4929
14983TIP3    H266441   3.739   1.704   5.927 -0.6452 -0.3693 -0.7960
14984TIP3   OH266442   6.828   5.632  14.810 -0.4840 -0.2705 -0.6547
14984TIP3    H166443   6.905   5.577  14.817 -2.6436 -3.4344  0.2114
14984TIP3    H266444   6.775   5.591  14.742 -1.8771  1.2279 -0.5415
14985TIP3   OH266445   3.862   4.423   3.380 -0.0293  0.0944  0.5208
14985TIP3    H166446   3.911   4.457   3.305  2.8865 -1.4057  1.6105
14985TIP3    H266447   3.813   4.499   3.412  3.6401  2.5795  0.9207
14986TIP3   OH266448   4.208   4.863   5.196 -0.4512 -0.4621  0.3786
14986TIP3    H166449   4.222   4.796   5.263 -0.5164 -0.8595  0.0018
14986TIP3    H266450   4.237   4.945   5.237  0.0230 -0.7857  0.6982
14987TIP3   OH266451   2.853   2.249  15.726  0.4236 -1.2298  0.1295
14987TIP3    H166452   2.945   2.234  15.702  0.1010 -2.0252 -0.6883
14987TIP3    H266453   2.852   2.337  15.764  1.1311 -0.1520 -2.1236
14988TIP3   OH266454   3.973   3.627  12.847 -0.0045 -0.3487  0.2869
14988TIP3    H166455   3.945   3.701  12.902  2.6721  0.0923  1.2176
14988TIP3    H266456   3.914   3.630  12.772 -2.3920  0.3854  2.0612
14989TIP3   OH266457   1.280   6.158  14.204  0.3538 -0.0298  0.0404
14989TIP3    H166458   1.197   6.142  14.250  0.5954 -1.9869 -0.1012
14989TIP3    H266459   1.346   6.162  14.273  0.6067 -2.1778 -0.0152
14990TIP3   OH266460   1.550   2.854   4.331  0.1696 -1.0808 -0.1425
14990TIP3    H166461   1.628   2.813   4.366 -0.2814 -2.7023 -0.9278
14990TIP3    H266462   1.482   2.835   4.395  0.4411  0.5059  0.6417
14991TIP3   OH266463   1.989   4.569  15.753 -0.3763 -0.0009 -0.1592
14991TIP3    H166464   2.072   4.524  15.770 -0.7566  0.0985  2.4771
14991TIP3    H266465   1.948   4.519  15.683  1.0438 -1.2549 -0.1417
14992TIP3   OH266466   1.635   6.668   2.650  0.4157 -0.7961  0.2506
14992TIP3    H166467   1.629   6.605   2.721  0.3125  0.5998  1.5275
14992TIP3    H266468   1.706   6.727   2.676 -0.3030  0.3454 -0.2900
14993TIP3   OH266469   2.389   1.981   1.351 -0.6062  0.4674 -0.1264
14993TIP3    H166470   2.468   1.992   1.299 -0.0061  1.0277  0.8860
14993TIP3    H266471   2.419   1.985   1.442 -1.5333 -1.1535  0.2937
14994TIP3   OH266472   2.126   2.807  14.659 -0.2098 -0.1042  0.1207
14994TIP3    H166473   2.126   2.902  14.675  0.9414  0.0302 -0.5486
14994TIP3    H266474   2.035   2.786  14.641 -0.2215  1.2456 -1.6949
14995TIP3   OH266475   1.416   1.318  16.230  0.0130  0.7965  0.1545
14995TIP3    H166476   1.486   1.377  16.204  0.7697  0.1467  0.6934
14995TIP3    H266477   1.398   1.266  16.153  0.9386  0.1688  0.3536
14996TIP3   OH266478   5.552   4.744  16.831 -0.0553  0.8899 -0.1522
14996TIP3    H166479   5.593   4.662  16.802 -0.0984  1.0290 -0.6175
14996TIP3    H266480   5.588   4.759  16.918  1.3168  1.3027 -0.7679
14997TIP3   OH266481   2.747   6.230  16.135  0.4383  0.1862  0.2872
14997TIP3    H166482   2.697   6.297  16.089  3.6675  2.0282 -0.8401
14997TIP3    H266483   2.817   6.278  16.179  1.2715 -2.2186  1.7804
14998TIP3   OH266484   0.573   1.257   1.504  0.5377  0.4434 -0.3451
14998TIP3    H166485   0.540   1.326   1.446 -0.0702 -1.9290 -3.0473
14998TIP3    H266486   0.506   1.188   1.500  2.6078 -1.6704 -0.4850
14999TIP3   OH266487   1.946   4.123   1.337  0.3020 -0.0397  0.0068
14999TIP3    H166488   2.031   4.169   1.338  0.2150  0.1152  0.8612
14999TIP3    H266489   1.952   4.059   1.408 -0.3727  0.1090  0.2054
15000TIP3   OH266490   4.896   0.570   0.817 -0.0880 -0.1270  0.2710
15000TIP3    H166491   4.829   0.539   0.879 -1.6854  2.8856  0.2577
15000TIP3    H266492   4.849   0.579   0.734  2.1107 -4.4852 -1.7673
15001TIP3   OH266493   5.943   0.855  11.946  0.0362  0.4689 -0.3563
15001TIP3    H166494   6.029   0.877  11.984  0.5817 -1.2436 -0.5235
15001TIP3    H266495   5.887   0.928  11.972  1.1175  0.8015  1.2199
15002TIP3   OH266496   4.006   1.404   2.886  0.5331  0.3727  0.3137
15002TIP3    H166497   3.994   1.309   2.883  0.3073  0.3854  0.7679
15002TIP3    H266498   3.934   1.440   2.833 -0.2589  0.3519  1.3368
15003TIP3   OH266499   5.965   1.382  16.734 -0.2158 -0.3260  0.9910
15003TIP3    H166500   5.982   1.288  16.736  1.5284 -0.0462  1.4095
15003TIP3    H266501   5.960   1.403  16.641  0.9650 -0.6100  0.8451
15004TIP3   OH266502   6.042   6.810  14.529  0.2526  0.1505 -0.2355
15004TIP3    H166503   6.002   6.771  14.607  1.0242 -2.1391 -0.8890
15004TIP3    H266504   6.031   6.744  14.461 -0.3712  2.0691 -2.0977
15005TIP3   OH266505   5.283   4.634  15.970  0.0493  0.9262  0.1472
15005TIP3    H166506   5.334   4.567  16.017  0.5375  0.5914 -0.8305
15005TIP3    H266507   5.307   4.621  15.878 -1.4315  1.1062 -0.2770
15006TIP3   OH266508   0.012   5.301  16.564  0.2764 -0.5938 -0.3368
15006TIP3    H166509  -0.037   5.320  16.644  3.6539  0.9181  1.5744
15006TIP3    H266510   0.049   5.214  16.579 -1.2187 -1.4999 -1.5484
15007TIP3   OH266511   6.672   5.742  12.249  0.3618 -0.1389  0.2547
15007TIP3    H166512   6.739   5.676  12.230  0.8221  0.1400  0.8886
15007TIP3    H266513   6.605   5.694  12.298 -0.5805 -0.7397 -1.5179
15008TIP3   OH266514   0.971   5.872   4.064  0.5302  0.6793  0.6994
15008TIP3    H166515   1.032   5.813   4.019  0.1126 -0.7936  1.9554
15008TIP3    H266516   0.944   5.934   3.997  1.6220 -0.0617 -0.4836
15009TIP3   OH266517   4.026   4.297  11.564 -0.2489  0.6483  0.6519
15009TIP3    H166518   4.054   4.387  11.580 -1.6265  1.1386  0.4704
15009TIP3    H266519   4.062   4.248  11.637 -1.5051  1.8063  2.1278
15010TIP3   OH266520   1.564   6.541   3.212  0.2421  0.1714  0.0485
15010TIP3    H166521   1.513   6.548   3.132 -0.8688  0.1249  0.7251
15010TIP3    H266522   1.605   6.455   3.207  1.5920  0.8449 -1.2435
15011TIP3   OH266523   3.375   6.048   0.069 -0.3958 -0.6189 -0.3098
15011TIP3    H166524   3.369   6.122   0.008  0.0940 -0.4628 -0.1748
15011TIP3    H266525   3.467   6.046   0.095 -0.3071 -1.5643 -0.6603
15012TIP3   OH266526   1.783   2.032  10.834  0.5668 -0.1816 -0.6093
15012TIP3    H166527   1.691   2.025  10.808  0.7369  0.2910 -1.3535
15012TIP3    H266528   1.812   2.116  10.799  0.7256  0.6711  1.4234
15013TIP3   OH266529   5.174   0.287   3.151  0.0187 -0.0967 -0.2185
15013TIP3    H166530   5.255   0.328   3.119  0.4351 -2.5128 -2.6053
15013TIP3    H266531   5.105   0.329   3.100 -0.0090  0.3637  0.1874
15014TIP3   OH266532   4.923   0.349  15.725  0.2772  0.1623 -0.3003
15014TIP3    H166533   4.938   0.327  15.634 -0.9424 -2.4274  0.0352
15014TIP3    H266534   4.842   0.304  15.748 -0.4509  2.2348  1.6023
15015TIP3   OH266535   6.754   0.031   1.345 -0.0542 -0.3970 -0.1747
15015TIP3    H166536   6.761   0.058   1.254  0.5797 -0.3640 -0.1207
15015TIP3    H266537   6.673  -0.019   1.350  0.6525 -1.6746 -1.0748
15016TIP3   OH266538   6.260   1.438   3.598 -0.0518 -0.6513 -0.5440
15016TIP3    H166539   6.276   1.344   3.589  1.9471 -0.5542  1.1706
15016TIP3    H266540   6.319   1.479   3.535  0.9476 -0.5090  0.4537
15017TIP3   OH266541   3.588   1.667   5.552 -0.0462 -0.4673 -0.1508
15017TIP3    H166542   3.661   1.708   5.506  0.1893  0.1695  0.7600
15017TIP3    H266543   3.565   1.729   5.621 -0.2114 -1.5125  0.7582
15018TIP3   OH266544   0.854   1.236  15.887 -0.1722  0.1188 -0.4721
15018TIP3    H166545   0.893   1.320  15.911 -1.5044  0.2697  1.3383
15018TIP3    H266546   0.928   1.184  15.854  1.0620  1.2613  0.3840
15019TIP3   OH266547   1.397   0.696  14.548  0.3476  0.1323  0.3483
15019TIP3    H166548   1.488   0.668  14.547  0.4071  0.3187  0.4816
15019TIP3    H266549   1.372   0.700  14.455  0.2098 -0.7635  0.3377
15020TIP3   OH266550   2.182   5.926   5.425 -0.0847  0.3098 -0.4436
15020TIP3    H166551   2.230   5.932   5.507 -0.7644 -0.1961 -0.0031
15020TIP3    H266552   2.096   5.963   5.445 -0.8086 -1.2889 -0.4792
15021TIP3   OH266553   2.659   2.070  11.142 -0.9380 -0.0623 -0.3075
15021TIP3    H166554   2.564   2.063  11.153 -0.8864  0.0842  0.2879
15021TIP3    H266555   2.686   1.984  11.111 -1.1970 -0.2863  0.0775
15022TIP3   OH266556   0.280   6.595   0.677  0.4268 -0.0894 -0.0754
15022TIP3    H166557   0.203   6.595   0.621  0.7664 -1.4195 -0.5845
15022TIP3    H266558   0.246   6.593   0.766 -0.1138  1.3389 -0.2256
15023TIP3   OH266559   4.517   3.646  15.863 -0.3803 -0.0726  0.1019
15023TIP3    H166560   4.436   3.595  15.857 -2.5963  3.1153  0.6814
15023TIP3    H266561   4.526   3.668  15.955  1.3418 -0.5507  0.0913
15024TIP3   OH266562   4.345   6.007  14.012 -0.0017  0.4071 -0.1630
15024TIP3    H166563   4.435   5.984  14.033 -0.3657 -2.8169 -1.4764
15024TIP3    H266564   4.348   6.038  13.922 -0.3615 -1.3759 -0.8181
15025TIP3   OH266565   0.026   2.920   0.037 -0.0134 -0.0909 -0.1050
15025TIP3    H166566  -0.057   2.921   0.085 -0.2249  1.4077 -0.4599
15025TIP3    H266567   0.041   3.011   0.013  1.3815 -0.4476 -0.6790
15026TIP3   OH266568   0.058   6.300  15.371 -0.2019 -0.7736  0.0522
15026TIP3    H166569   0.138   6.291  15.317  1.1415 -0.1161  1.8479
15026TIP3    H266570   0.078   6.371  15.431 -2.9304  0.7318 -0.6703
15027TIP3   OH266571   1.054   5.040  14.777  0.5599 -0.5582 -0.3272
15027TIP3    H166572   1.070   5.024  14.870  2.1506 -0.2003 -0.5226
15027TIP3    H266573   1.048   4.952  14.738  0.0736 -0.7060  0.0707
15028TIP3   OH266574   5.664   0.602   1.701 -0.0416 -0.4181  0.1554
15028TIP3    H166575   5.641   0.687   1.664  0.9458 -0.5672 -0.8363
15028TIP3    H266576   5.610   0.595   1.780 -0.0590  1.1686  0.3076
15029TIP3   OH266577   1.602   0.288   5.592  0.0424 -0.8084 -0.3863
15029TIP3    H166578   1.507   0.284   5.579 -0.0640 -0.2334  0.1947
15029TIP3    H266579   1.633   0.201   5.565 -0.6251 -0.9516 -0.7193
15030TIP3   OH266580   0.807   2.245  14.271 -0.1337  0.2491  0.2221
15030TIP3    H166581   0.761   2.278  14.348 -0.5049  0.7549 -0.2087
15030TIP3    H266582   0.896   2.277  14.280 -0.4207  1.1599 -0.0519
15031TIP3   OH266583   3.931   2.834   1.263  0.0382  0.0474  0.1193
15031TIP3    H166584   3.907   2.907   1.205  2.4354 -0.3738 -1.5726
15031TIP3    H266585   3.856   2.774   1.259 -0.6567  0.9413 -1.0121
15032TIP3   OH266586   6.069   3.966  11.564 -0.6836  0.3194 -0.0473
15032TIP3    H166587   6.037   4.036  11.620 -3.2308  0.4306 -1.4957
15032TIP3    H266588   6.144   4.004  11.519 -3.6033  3.3793 -2.9412
15033TIP3   OH266589   1.660   0.709  14.235  0.4799  0.2783 -0.2634
15033TIP3    H166590   1.579   0.704  14.184  0.3866  0.8436 -0.1700
15033TIP3    H266591   1.729   0.711  14.169  0.3807  0.5546 -0.3619
15034TIP3   OH266592   1.347   0.679   5.023  0.2998  0.3218 -0.7395
15034TIP3    H166593   1.300   0.761   5.009 -1.9494 -0.8215 -0.3858
15034TIP3    H266594   1.391   0.690   5.107  0.6896  1.4315 -1.0803
15035TIP3   OH266595   5.403   1.686   2.348  0.1181  0.0068  0.6186
15035TIP3    H166596   5.363   1.668   2.433  0.6685  1.4755  1.2230
15035TIP3    H266597   5.475   1.746   2.368  2.5710 -2.3892 -0.4285
15036TIP3   OH266598   5.315   4.290  16.866 -0.2222  0.4708 -0.3043
15036TIP3    H166599   5.250   4.354  16.837 -0.0018 -0.0354 -2.0199
15036TIP3    H266600   5.377   4.341  16.918 -0.1449  1.6422 -1.4929
15037TIP3   OH266601   3.030   1.965   0.675 -0.1185  0.0079 -0.7290
15037TIP3    H166602   3.076   1.892   0.716 -0.6050  0.1929  0.1713
15037TIP3    H266603   3.028   2.033   0.742  0.6198  0.9914 -1.6683
15038TIP3   OH266604   6.614   4.399   4.780 -0.3255 -0.6321 -0.0313
15038TIP3    H166605   6.674   4.338   4.824 -1.0219 -1.2028  0.1433
15038TIP3    H266606   6.653   4.412   4.693  1.4080  1.0098  0.9217
15039TIP3   OH266607   6.702   6.818   2.880 -0.4347  0.5907  0.2172
15039TIP3    H166608   6.687   6.786   2.969 -0.2457 -1.2304 -0.3608
15039TIP3    H266609   6.797   6.820   2.871 -0.4504  0.2005 -0.1074
15040TIP3   OH266610   6.279   0.533   1.057 -0.0718 -0.1182 -0.2389
15040TIP3    H166611   6.281   0.531   1.152 -0.2694  2.2446 -0.1277
15040TIP3    H266612   6.364   0.497   1.030  0.0871 -0.5559  0.8068
15041TIP3   OH266613   3.008   2.453   1.134 -0.3500  0.0108  0.1248
15041TIP3    H166614   2.950   2.414   1.069  0.1362 -0.4738 -0.0241
15041TIP3    H266615   2.960   2.444   1.217  0.2462 -2.0170  0.2987
15042TIP3   OH266616   3.752   5.471  16.623  0.6665  0.0437 -0.0209
15042TIP3    H166617   3.778   5.561  16.605 -0.0821  0.7662  2.1016
15042TIP3    H266618   3.656   5.472  16.616  0.6693 -0.6379 -0.2020
15043TIP3   OH266619   4.738   2.151  16.021 -0.3548 -0.5995 -0.4563
15043TIP3    H166620   4.823   2.170  15.980  0.5685 -0.9558  1.1986
15043TIP3    H266621   4.699   2.237  16.034  0.4745 -0.2945  0.1710
15044TIP3   OH266622   1.945   5.545  12.564 -0.6382  0.6407  0.1443
15044TIP3    H166623   1.939   5.478  12.632 -1.0255 -0.6394 -1.0769
15044TIP3    H266624   2.003   5.506  12.498 -1.9076  0.9258 -1.1976
15045TIP3   OH266625   0.257   0.871   3.281 -0.6540  0.0276 -0.0892
15045TIP3    H166626   0.326   0.889   3.344 -1.2139  0.0664  0.5299
15045TIP3    H266627   0.288   0.796   3.231 -0.9642 -1.1486  1.4248
15046TIP3   OH266628   6.107   6.233  12.957  0.1993  0.9594 -0.0427
15046TIP3    H166629   6.079   6.297  13.023  1.0033  0.1271  1.1431
15046TIP3    H266630   6.185   6.192  12.994  0.8220  0.6184 -1.6352
15047TIP3   OH266631   1.882   2.784   5.447 -0.5999  0.0830  0.4614
15047TIP3    H166632   1.862   2.792   5.540 -0.8262  3.2767  0.2586
15047TIP3    H266633   1.802   2.749   5.407 -1.2718  0.6791  1.2477
15048TIP3   OH266634   6.265   2.377   2.103 -0.1729 -0.1066  0.7129
15048TIP3    H166635   6.236   2.290   2.076  1.5506 -0.4056 -0.2397
15048TIP3    H266636   6.358   2.367   2.122 -0.0371  1.4537  0.9917
15049TIP3   OH266637   5.151   2.256   2.832  0.4332  0.2662 -0.5157
15049TIP3    H166638   5.118   2.321   2.894  1.4375 -1.4083  1.9450
15049TIP3    H266639   5.224   2.299   2.788  1.5051  0.6534  1.5332
15050TIP3   OH266640   5.271   6.090   0.918 -0.2282  0.4887 -0.3261
15050TIP3    H166641   5.269   6.111   1.011  1.2277  0.0290 -0.1649
15050TIP3    H266642   5.224   6.162   0.876  0.6914  1.6905  0.6122
15051TIP3   OH266643   4.000   2.236   0.286 -0.1514 -0.2101  0.3721
15051TIP3    H166644   4.074   2.295   0.274 -0.0625 -0.7306 -2.2123
15051TIP3    H266645   3.923   2.292   0.279 -0.0492  0.1074  1.5870
15052TIP3   OH266646   3.746   3.432  15.983 -0.4380 -0.1082  0.7316
15052TIP3    H166647   3.754   3.435  15.887  1.0955 -1.4418  0.7703
15052TIP3    H266648   3.681   3.364  15.999 -0.5254 -0.0458  0.6471
15053TIP3   OH266649   5.483   3.104   0.546  0.4057 -0.4703  1.0321
15053TIP3    H166650   5.527   3.024   0.575  0.7117 -2.1535 -3.2735
15053TIP3    H266651   5.547   3.146   0.488 -1.5257  0.1356 -0.7906
15054TIP3   OH266652   5.056   3.779  12.064 -0.3260 -0.5428 -0.1286
15054TIP3    H166653   5.061   3.767  11.970 -0.7381  0.4856 -0.3015
15054TIP3    H266654   5.139   3.744  12.097  1.1598  1.7119 -1.2003
15055TIP3   OH266655   5.415   4.521   5.147  0.6244 -0.3869 -0.6672
15055TIP3    H166656   5.343   4.480   5.196 -1.0534  2.3333 -0.6867
15055TIP3    H266657   5.469   4.447   5.118 -0.7969 -2.3778  1.4250
15056TIP3   OH266658   6.458   4.086  12.173 -0.0506  0.3584 -0.2033
15056TIP3    H166659   6.479   4.002  12.132  0.2401 -0.1749  0.9867
15056TIP3    H266660   6.362   4.090  12.172 -0.1225 -0.5563  0.7829
15057TIP3   OH266661   5.529   4.272  15.273  0.5112 -0.0923  0.2815
15057TIP3    H166662   5.532   4.267  15.177  1.8403 -0.3871  0.3150
15057TIP3    H266663   5.532   4.365  15.292 -1.2456  0.0525  0.0347
15058TIP3   OH266664   4.530   3.367  11.903 -0.6552 -0.3760  0.1883
15058TIP3    H166665   4.519   3.387  11.996  1.0678 -0.3912  0.4137
15058TIP3    H266666   4.565   3.278  11.901 -0.1481 -0.1683 -0.4545
15059TIP3   OH266667   1.575   3.331   5.825 -0.1528  0.1064 -0.9439
15059TIP3    H166668   1.553   3.275   5.899  4.6736 -1.5498 -0.4093
15059TIP3    H266669   1.588   3.418   5.863  0.5295 -0.3375 -0.1245
15060TIP3   OH266670   1.369   1.212   4.764 -0.9885 -0.6726  0.2161
15060TIP3    H166671   1.322   1.230   4.846 -1.0874 -0.0089  0.0178
15060TIP3    H266672   1.404   1.297   4.737 -0.7749 -0.9282 -0.3233
15061TIP3   OH266673   6.334   3.561   4.634 -0.3823 -0.1686 -0.3225
15061TIP3    H166674   6.319   3.622   4.562  0.8017  0.5773  0.0218
15061TIP3    H266675   6.413   3.594   4.677 -0.3001 -1.3644  0.5067
15062TIP3   OH266676   0.925   5.290  14.768  0.2794 -0.4757  0.3569
15062TIP3    H166677   0.972   5.208  14.780 -1.1892 -1.0275  3.3884
15062TIP3    H266678   0.988   5.358  14.795  0.5483 -0.8767  0.7558
15063TIP3   OH266679   2.337   1.511   6.543  0.5399 -0.6152  0.0724
15063TIP3    H166680   2.268   1.546   6.487  0.5380  1.7178  1.3942
15063TIP3    H266681   2.418   1.544   6.505  0.6169  0.0551  0.8048
15064TIP3   OH266682   4.318   4.283   4.633  0.2960  0.0079  0.6030
15064TIP3    H166683   4.255   4.275   4.561  2.5109 -0.9356 -1.3699
15064TIP3    H266684   4.395   4.324   4.593  1.7442 -0.8269  2.3742
15065TIP3   OH266685   5.455   2.934  16.639 -0.2198  0.2603  0.0479
15065TIP3    H166686   5.550   2.923  16.642 -0.1975  0.6455  2.1530
15065TIP3    H266687   5.425   2.869  16.576  1.3802 -0.3370 -0.1366
15066TIP3   OH266688   2.098   4.294   5.298  0.6922  0.0286 -0.6811
15066TIP3    H166689   2.065   4.357   5.235 -1.5824 -0.3628  0.0506
15066TIP3    H266690   2.102   4.211   5.249 -1.6286 -0.4047 -0.2524
15067TIP3   OH266691   3.963   1.505  13.509 -0.3003 -0.3351  0.5735
15067TIP3    H166692   4.016   1.529  13.585 -0.5724  0.8710  0.4072
15067TIP3    H266693   3.932   1.417  13.528 -0.0594 -0.1907  1.6908
15068TIP3   OH266694   0.344   2.893  13.321 -0.1778  0.0625 -0.1404
15068TIP3    H166695   0.426   2.935  13.347  0.6470 -1.9304  0.7320
15068TIP3    H266696   0.369   2.804  13.297 -2.0180 -0.4141 -0.4591
15069TIP3   OH266697   2.183   2.185  13.264  0.0228 -1.1558  0.0594
15069TIP3    H166698   2.219   2.273  13.251 -0.6286 -0.8589  0.2012
15069TIP3    H266699   2.156   2.157  13.177 -2.6933  0.1039  0.3689
15070TIP3   OH266700   1.545   4.622  16.304  0.2586  0.1500 -0.1518
15070TIP3    H166701   1.549   4.701  16.250  4.7950  0.9119  0.9272
15070TIP3    H266702   1.589   4.555  16.252 -1.0826 -0.9826  0.0969
15071TIP3   OH266703   3.084   3.229   3.711 -0.3190  0.9553 -0.0288
15071TIP3    H166704   3.097   3.156   3.650  0.3365  1.4274 -0.4708
15071TIP3    H266705   2.990   3.233   3.725 -0.2565 -0.9470  1.2106
15072TIP3   OH266706   3.310   1.084  15.992  0.4454  0.5370 -0.3922
15072TIP3    H166707   3.348   1.009  15.946  0.1789 -0.5171  1.0548
15072TIP3    H266708   3.339   1.075  16.083 -0.3536  1.6799  0.0038
15073TIP3   OH266709   5.882   2.887   2.316  0.5603  0.5942 -0.0469
15073TIP3    H166710   5.820   2.817   2.300  0.7436  0.3419  0.3264
15073TIP3    H266711   5.888   2.935   2.233  0.5456  0.0825 -0.3423
15074TIP3   OH266712   1.397   1.899  16.026  0.0358  0.2150  0.2949
15074TIP3    H166713   1.468   1.840  16.050  0.0640  0.6160  1.2424
15074TIP3    H266714   1.404   1.907  15.931 -0.2057 -1.5931  0.0881
15075TIP3   OH266715   3.462   3.344   5.868 -0.0211  0.3805  0.6138
15075TIP3    H166716   3.540   3.384   5.906  1.1138 -0.1156 -1.0735
15075TIP3    H266717   3.425   3.411   5.811  0.6407 -0.2119 -0.5389
15076TIP3   OH266718   6.340   2.706  12.607  0.2965  0.3426 -0.0798
15076TIP3    H166719   6.291   2.772  12.657  1.2670  0.6497  0.4874
15076TIP3    H266720   6.343   2.629  12.665 -0.1729  0.0539 -0.4301
15077TIP3   OH266721   1.135   6.347   4.998 -0.2378  0.0984  0.3006
15077TIP3    H166722   1.199   6.306   5.055 -0.2367  1.6439  1.4772
15077TIP3    H266723   1.106   6.277   4.939  2.0883 -0.7724  0.0977
15078TIP3   OH266724   5.846   1.016  11.349 -0.3966  0.8274 -0.0530
15078TIP3    H166725   5.776   1.058  11.400  0.3465 -1.0917  2.7613
15078TIP3    H266726   5.923   1.070  11.366  0.1731 -0.5576  2.1900
15079TIP3   OH266727   1.931   1.703   1.742 -0.0137 -0.4598  0.1255
15079TIP3    H166728   1.901   1.735   1.657 -0.2421  1.1413  0.7635
15079TIP3    H266729   1.863   1.642   1.770 -1.2796  0.9688  0.2877
15080TIP3   OH266730   3.422   0.272  11.165  0.2990 -0.0906  0.7469
15080TIP3    H166731   3.358   0.271  11.093  0.5943 -1.4297  0.4611
15080TIP3    H266732   3.406   0.190  11.211  0.8672  0.2380  1.5350
15081TIP3   OH266733   3.060   1.867  15.422 -0.1794  0.3173  0.1926
15081TIP3    H166734   3.111   1.787  15.427 -1.3311 -0.3659  2.4388
15081TIP3    H266735   3.005   1.856  15.345  1.8691  0.4137 -1.3745
15082TIP3   OH266736   2.404   3.841  15.585 -0.5555  0.1384 -0.0620
15082TIP3    H166737   2.346   3.903  15.541  1.3992  0.5254 -2.2900
15082TIP3    H266738   2.409   3.767  15.525  1.9086  0.5123 -0.4170
15083TIP3   OH266739   0.794   3.842   3.691  0.4341 -0.3949  0.0615
15083TIP3    H166740   0.844   3.824   3.770  1.0639  2.1384  0.3233
15083TIP3    H266741   0.859   3.837   3.620  0.0375 -1.8387 -0.2299
15084TIP3   OH266742   1.423   1.897  16.747 -0.1184 -0.0548  0.0265
15084TIP3    H166743   1.481   1.902  16.671  0.8037 -0.4168  0.6932
15084TIP3    H266744   1.338   1.871  16.710  0.1763  0.3092 -0.9391
15085TIP3   OH266745   5.401   3.135  15.521  0.4698  0.1250  0.5616
15085TIP3    H166746   5.364   3.223  15.520  0.7650  0.2570  1.0395
15085TIP3    H266747   5.494   3.148  15.537  0.8293 -0.1799 -1.1421
15086TIP3   OH266748   2.495   5.901  16.827 -0.3022 -0.8007  0.1243
15086TIP3    H166749   2.470   5.928  16.739  1.2968  0.9514  0.1621
15086TIP3    H266750   2.570   5.843  16.815 -0.0888 -0.5702  0.3476
15087TIP3   OH266751   2.743   4.172   2.099  0.1285  0.2395 -0.5358
15087TIP3    H166752   2.779   4.113   2.033  0.4666  1.5750 -1.5892
15087TIP3    H266753   2.696   4.238   2.049 -3.3329 -1.0281  0.7432
15088TIP3   OH266754   3.370   0.110  11.373 -0.0969  0.0787  0.1948
15088TIP3    H166755   3.318   0.188  11.391 -0.9258 -0.1422 -1.0920
15088TIP3    H266756   3.315   0.038  11.404 -0.0064 -0.0825 -0.0199
15089TIP3   OH266757   2.476   5.937   2.771  0.8707 -0.0020  0.4255
15089TIP3    H166758   2.552   5.897   2.815  0.5797 -1.5498 -0.4127
15089TIP3    H266759   2.470   5.891   2.688 -1.0140  0.0606  0.4869
15090TIP3   OH266760   4.925   4.881   1.950 -0.5779 -0.1578 -0.2676
15090TIP3    H166761   5.005   4.910   1.995  0.1593 -0.4020 -1.3759
15090TIP3    H266762   4.915   4.789   1.974 -1.0182  0.0920  0.5488
15091TIP3   OH266763   0.595   4.407  14.619 -0.0744  0.1281  0.0487
15091TIP3    H166764   0.678   4.455  14.618 -0.0362  0.0637  0.0040
15091TIP3    H266765   0.537   4.457  14.561 -0.3705  0.6850  0.8182
15092TIP3   OH266766   0.620   0.574   4.778  0.2491  0.2980  0.2629
15092TIP3    H166767   0.557   0.567   4.851  0.1208  0.8691  0.2183
15092TIP3    H266768   0.613   0.491   4.732  0.2656 -0.0379  0.8562
15093TIP3   OH266769   2.161   1.576   2.395 -0.2092 -0.1847  0.0197
15093TIP3    H166770   2.068   1.558   2.382 -0.5310  1.1316  0.3030
15093TIP3    H266771   2.168   1.599   2.488  0.6764 -1.7097  0.3731
15094TIP3   OH266772   5.748   2.314  12.490  0.2464 -0.4734 -0.2642
15094TIP3    H166773   5.684   2.248  12.464  0.2895 -0.1896 -1.1424
15094TIP3    H266774   5.741   2.381  12.422  0.5793  0.1657  0.3279
15095TIP3   OH266775   1.529   0.940  16.961  0.2947 -0.0418 -0.3487
15095TIP3    H166776   1.457   0.955  16.900 -0.9806  0.1284  1.1326
15095TIP3    H266777   1.486   0.927  17.046  2.0836  1.6554  0.8893
15096TIP3   OH266778   1.084   5.288  14.465  0.2832 -0.1738 -0.3547
15096TIP3    H166779   1.125   5.228  14.526  1.0043  0.1126 -0.5538
15096TIP3    H266780   1.117   5.263  14.379  0.7560  0.6231 -0.4199
15097TIP3   OH266781   2.229   3.829  14.521  0.7294  0.0200  0.1243
15097TIP3    H166782   2.280   3.889  14.467  1.4845  0.5131  1.3331
15097TIP3    H266783   2.294   3.780  14.571  0.1030 -1.4514 -0.4494
15098TIP3   OH266784   5.354   0.761  14.959 -0.0681  0.1326  0.0575
15098TIP3    H166785   5.440   0.801  14.942  0.0866 -0.2696 -0.1229
15098TIP3    H266786   5.328   0.795  15.045  0.6002 -0.2932  0.4409
15099TIP3   OH266787   0.752   5.949  12.414 -0.4314  0.6945  0.0124
15099TIP3    H166788   0.681   5.990  12.365  0.0654  0.1011 -1.2375
15099TIP3    H266789   0.819   5.931  12.349  0.2931 -0.0421  0.9323
15100TIP3   OH266790   2.549   4.851   0.197 -0.3198 -0.3614 -0.4599
15100TIP3    H166791   2.597   4.770   0.217 -0.8857 -0.4589  0.5516
15100TIP3    H266792   2.595   4.887   0.121  0.4561 -1.2051 -0.4148
15101TIP3   OH266793   4.451   0.797  13.906 -0.2632  0.2796  0.4914
15101TIP3    H166794   4.443   0.719  13.852 -0.6671  2.4109 -2.8837
15101TIP3    H266795   4.545   0.812  13.913 -0.1903  0.5444 -0.7032
15102TIP3   OH266796   5.555   0.009   2.393  0.3593  0.0411 -0.1510
15102TIP3    H166797   5.567  -0.078   2.356  0.6672 -0.0924  0.2599
15102TIP3    H266798   5.642   0.047   2.395  0.3747 -0.0078  0.5632
15103TIP3   OH266799   6.474   6.619   5.574 -0.1854 -0.4081  0.2120
15103TIP3    H166800   6.553   6.567   5.587 -0.2872 -0.8531 -0.8023
15103TIP3    H266801   6.439   6.588   5.490 -1.1438  0.1535  0.3896
15104TIP3   OH266802   1.070   5.653  15.969 -0.0876 -0.4014 -0.1426
15104TIP3    H166803   1.091   5.579  15.913  0.4536 -0.2429 -0.1576
15104TIP3    H266804   1.153   5.674  16.013 -0.4067 -0.2650  0.4018
15105TIP3   OH266805   0.760   1.423   3.684 -0.0942 -0.8222 -0.0095
15105TIP3    H166806   0.676   1.405   3.725 -0.9351  2.0608 -0.2655
15105TIP3    H266807   0.759   1.517   3.667  3.2401 -0.6413  0.1022
15106TIP3   OH266808   5.289   3.927  13.369  0.2557 -0.4014 -0.2268
15106TIP3    H166809   5.288   3.832  13.358  0.2371 -0.6531  1.6724
15106TIP3    H266810   5.229   3.943  13.442  1.3416  0.9350  0.4073
15107TIP3   OH266811   6.348   5.139   1.161  0.5313  0.1171  0.2510
15107TIP3    H166812   6.339   5.090   1.080 -1.0174 -0.4125  0.7041
15107TIP3    H266813   6.327   5.076   1.230 -2.0721  1.4597  0.8276
15108TIP3   OH266814   5.540   6.437   2.656 -0.4357  0.0979 -0.7785
15108TIP3    H166815   5.527   6.519   2.608 -3.2448  0.2518  0.0506
15108TIP3    H266816   5.464   6.431   2.714  0.4643 -2.3703  0.2881
15109TIP3   OH266817   6.353   3.277   5.468 -0.2890  0.2837 -0.1448
15109TIP3    H166818   6.446   3.288   5.447 -0.2137 -0.7134 -0.3793
15109TIP3    H266819   6.312   3.359   5.440  0.5130  0.7192 -0.0673
15110TIP3   OH266820   3.270   4.523  15.484 -0.0614 -0.2488 -0.4522
15110TIP3    H166821   3.350   4.507  15.434  1.4150  1.6703  1.1335
15110TIP3    H266822   3.239   4.436  15.509  1.2536 -1.0592 -1.5148
15111TIP3   OH266823   6.176   1.818  14.231 -0.5649 -0.5522  0.3847
15111TIP3    H166824   6.191   1.772  14.314  1.0913 -1.7145 -0.5266
15111TIP3    H266825   6.218   1.903  14.244  2.1470 -1.7132 -0.1365
15112TIP3   OH266826   2.750   5.020   0.555 -0.1474 -0.3306  0.6000
15112TIP3    H166827   2.672   4.995   0.604 -0.6332  1.1092  0.6102
15112TIP3    H266828   2.717   5.080   0.487  0.9168  0.1637  0.4999
15113TIP3   OH266829   1.966   5.532  16.761  0.0841  0.2598 -0.0713
15113TIP3    H166830   1.890   5.589  16.758 -0.5482 -0.2034  3.1763
15113TIP3    H266831   2.040   5.590  16.780 -0.2372  0.2809  1.2186
15114TIP3   OH266832   5.116   3.177   5.555 -0.1242 -0.1706 -0.0993
15114TIP3    H166833   5.211   3.165   5.545  0.6737  3.3301  1.8607
15114TIP3    H266834   5.106   3.264   5.592 -4.2135 -0.1950 -0.6704
15115TIP3   OH266835   1.559   6.512  16.750 -0.1586  0.5482  0.0572
15115TIP3    H166836   1.597   6.424  16.741 -0.1322  0.5659 -0.0082
15115TIP3    H266837   1.500   6.519  16.675  1.1499  1.2503 -0.9437
15116TIP3   OH266838   0.551   1.648   2.822 -0.7951 -0.6509  0.1675
15116TIP3    H166839   0.540   1.559   2.789 -0.2721 -1.0335  1.0194
15116TIP3    H266840   0.588   1.638   2.909 -0.8117  0.4012  0.3122
15117TIP3   OH266841   3.396   3.053   1.403 -0.0031  0.5628  0.0664
15117TIP3    H166842   3.302   3.068   1.393 -0.8928 -2.6281  2.0157
15117TIP3    H266843   3.437   3.133   1.371 -3.3362  1.9085 -1.2799
15118TIP3   OH266844   1.760   4.273  15.901  0.6612  0.5083 -0.2223
15118TIP3    H166845   1.696   4.278  15.831  1.3430  1.2694 -0.8163
15118TIP3    H266846   1.713   4.232  15.974 -0.5954  1.3333 -0.5351
15119TIP3   OH266847   5.590   1.424   6.108  0.2291 -0.0486 -0.4172
15119TIP3    H166848   5.539   1.348   6.079  0.1063 -0.4524  0.8002
15119TIP3    H266849   5.676   1.388   6.128 -0.2567 -0.1961  1.6271
15120TIP3   OH266850   0.064   3.876  12.159  0.3229 -0.6887 -0.3150
15120TIP3    H166851   0.092   3.835  12.241  1.0073  0.6356  0.1467
15120TIP3    H266852   0.116   3.833  12.091 -0.6696 -2.2114 -0.1562
15121TIP3   OH266853   1.375   4.497   0.671  0.1420  0.1300  0.0094
15121TIP3    H166854   1.285   4.498   0.638  0.3250  0.0698 -0.4942
15121TIP3    H266855   1.376   4.564   0.739  0.1628  1.3487 -1.1589
15122TIP3   OH266856   1.286   3.274  15.113  0.3349  0.5222  0.2162
15122TIP3    H166857   1.337   3.194  15.097 -1.6406 -0.2759 -3.0058
15122TIP3    H266858   1.195   3.246  15.103 -0.4934  2.8570  0.7387
15123TIP3   OH266859   4.816   5.241   0.873  0.3929  0.2174  0.1223
15123TIP3    H166860   4.863   5.322   0.893  3.2810 -0.8760 -1.6256
15123TIP3    H266861   4.854   5.176   0.932 -1.6937 -0.0458  1.3032
15124TIP3   OH266862   5.632   4.728   2.356 -0.5377 -0.4145  0.1012
15124TIP3    H166863   5.687   4.651   2.338  0.0924  0.1759 -0.6105
15124TIP3    H266864   5.567   4.698   2.419 -2.6769 -2.5872 -2.8736
15125TIP3   OH266865   5.313   1.747   3.246 -0.4015 -0.8920  0.1391
15125TIP3    H166866   5.263   1.670   3.219  1.5103 -1.4850 -1.9786
15125TIP3    H266867   5.381   1.712   3.304 -1.5611 -0.2566  1.9787
15126TIP3   OH266868   3.545   4.229   2.177  0.0919  0.1638  0.1446
15126TIP3    H166869   3.592   4.219   2.259  2.1416 -2.0740 -1.1965
15126TIP3    H266870   3.457   4.258   2.204  0.6580 -0.5130  3.0965
15127TIP3   OH266871   0.568   6.640   0.300 -0.1583 -0.6741 -0.0409
15127TIP3    H166872   0.475   6.617   0.301 -0.0809 -1.0147 -0.4864
15127TIP3    H266873   0.607   6.583   0.366 -0.5662  0.8303  1.5711
15128TIP3   OH266874   2.134   6.195   5.280  0.3957 -0.1726  0.0108
15128TIP3    H166875   2.201   6.263   5.290  1.1003 -0.9564  0.8187
15128TIP3    H266876   2.051   6.243   5.276  0.8563  0.7251  0.8373
15129TIP3   OH266877   5.264   0.510  13.513 -0.0003  0.1562 -0.0277
15129TIP3    H166878   5.273   0.600  13.545  0.4698 -0.1903  0.8573
15129TIP3    H266879   5.354   0.475  13.515 -0.3392 -0.7043  0.8000
15130TIP3   OH266880   2.190   4.228   4.193 -0.0664  0.5110 -0.2892
15130TIP3    H166881   2.164   4.165   4.126  0.6791  0.7517 -0.8193
15130TIP3    H266882   2.268   4.190   4.233  1.7588  2.0542 -2.1253
15131TIP3   OH266883   4.559   2.678  12.526  0.4521 -0.2994  0.0785
15131TIP3    H166884   4.568   2.635  12.441  1.8696  0.2110 -0.0493
15131TIP3    H266885   4.485   2.738  12.514  0.8213 -0.0244 -0.8927
15132TIP3   OH266886   2.604   3.419  13.388 -0.2081 -0.1200 -0.2062
15132TIP3    H166887   2.654   3.363  13.328 -0.8284 -1.2549  0.3042
15132TIP3    H266888   2.580   3.495  13.335  0.1210 -0.6260 -1.0989
15133TIP3   OH266889   6.409   6.227  16.734 -0.0866 -0.1585 -0.2183
15133TIP3    H166890   6.409   6.320  16.711 -0.1861  0.2249  1.2411
15133TIP3    H266891   6.355   6.222  16.813  1.2166 -1.2148  0.6431
15134TIP3   OH266892   5.541   2.636   3.793 -0.1214 -0.0917  0.2365
15134TIP3    H166893   5.459   2.612   3.836  0.7020 -2.4091  0.6061
15134TIP3    H266894   5.581   2.700   3.852 -2.4332  2.5851 -0.8427
15135TIP3   OH266895   2.510   0.444   1.541 -0.2216  0.4722 -0.5320
15135TIP3    H166896   2.476   0.465   1.454 -1.0769  1.4970  0.0275
15135TIP3    H266897   2.600   0.475   1.539  0.8600 -2.4373 -2.0935
15136TIP3   OH266898   2.140   0.582  14.285 -0.3426 -0.3653 -0.0166
15136TIP3    H166899   2.126   0.645  14.214  0.9619  1.0961  0.9457
15136TIP3    H266900   2.213   0.528  14.254  1.4360  1.4019  0.8132
15137TIP3   OH266901   2.054   6.254  12.471  0.1345 -0.3257  0.1578
15137TIP3    H166902   2.084   6.336  12.509  0.0927  0.0910 -0.6897
15137TIP3    H266903   1.971   6.276  12.429  0.7460 -0.4819 -1.2019
15138TIP3   OH266904   2.566   2.242  13.155 -0.3586 -0.2527  0.2399
15138TIP3    H166905   2.623   2.269  13.083 -1.6299  0.7404 -0.4467
15138TIP3    H266906   2.625   2.202  13.219  1.2161  1.3448 -0.1235
15139TIP3   OH266907   4.888   5.495  14.100  0.1292 -0.0435 -0.1191
15139TIP3    H166908   4.918   5.405  14.114 -2.2308 -0.9743 -0.4806
15139TIP3    H266909   4.854   5.522  14.185 -1.3738 -0.4392 -0.5668
15140TIP3   OH266910   3.558   3.882   6.136  0.9375  0.3269 -0.0577
15140TIP3    H166911   3.635   3.873   6.193  0.0758 -1.4779  0.9260
15140TIP3    H266912   3.585   3.844   6.053  1.4093  0.6293 -0.0479
15141TIP3   OH266913   0.209   3.132  15.397 -0.6704  0.0817 -0.1220
15141TIP3    H166914   0.231   3.039  15.387  1.6060  0.6537 -0.9809
15141TIP3    H266915   0.141   3.147  15.331  0.3880 -0.5639 -1.4152
15142TIP3   OH266916   4.434   6.532  16.361  0.7523 -0.4409 -0.0237
15142TIP3    H166917   4.459   6.529  16.453  0.8320 -0.8564 -0.0552
15142TIP3    H266918   4.454   6.621  16.334  0.0645 -0.1079  0.5448
15143TIP3   OH266919   4.513   0.919  16.680 -0.1765  0.3890 -0.1824
15143TIP3    H166920   4.463   0.880  16.609 -0.3655  1.1352 -0.4633
15143TIP3    H266921   4.578   0.852  16.702  0.4751  0.4806 -1.6684
15144TIP3   OH266922   5.658   2.806   3.975  0.3962  0.2464  0.0794
15144TIP3    H166923   5.731   2.827   4.033 -0.7870 -0.7359  2.0042
15144TIP3    H266924   5.592   2.768   4.032 -0.8924 -0.6617 -1.9121
15145TIP3   OH266925   2.909   3.602  15.303  0.4293  0.1127 -0.0605
15145TIP3    H166926   2.966   3.554  15.363 -0.0903 -1.3003 -0.6464
15145TIP3    H266927   2.830   3.547  15.297  0.2784  0.4706 -1.6562
15146TIP3   OH266928   3.910   0.995   4.071  0.0663 -0.0525  0.7925
15146TIP3    H166929   3.827   0.955   4.095  0.6224 -0.2992  2.4308
15146TIP3    H266930   3.922   0.973   3.978 -1.3269 -0.6240  0.7274
15147TIP3   OH266931   2.531   2.996  12.784 -0.2442 -0.1528  0.4082
15147TIP3    H166932   2.597   3.055  12.748 -0.6297 -0.2782 -0.5511
15147TIP3    H266933   2.453   3.015  12.732 -0.3428 -1.5692  0.0103
15148TIP3   OH266934   5.784   2.364   5.726 -0.3474  0.6103 -0.0840
15148TIP3    H166935   5.780   2.345   5.632  0.4831  1.1920 -0.2512
15148TIP3    H266936   5.809   2.457   5.731  0.6336  0.3281  0.6993
15149TIP3   OH266937   5.865   2.891  16.176  0.2254 -0.1825 -0.7293
15149TIP3    H166938   5.915   2.813  16.152  0.2810 -0.5106  0.4229
15149TIP3    H266939   5.781   2.857  16.208  0.0710  0.2515 -0.6720
15150TIP3   OH266940   4.913   1.682  15.444 -0.2954 -0.5267 -0.0334
15150TIP3    H166941   4.832   1.726  15.469 -0.6471 -0.1949 -1.6116
15150TIP3    H266942   4.933   1.717  15.357  1.5938 -0.5502  0.3545
15151TIP3   OH266943   2.898   6.780  12.790 -0.1499 -0.7217 -0.1914
15151TIP3    H166944   2.974   6.801  12.845 -0.2537 -1.0232  0.0735
15151TIP3    H266945   2.851   6.862  12.781 -0.5870 -0.8378  0.8793
15152TIP3   OH266946   5.942   0.934  16.308 -0.1751  0.4349  0.0680
15152TIP3    H166947   5.941   1.007  16.370  1.2508  1.7731 -1.3670
15152TIP3    H266948   5.886   0.963  16.236  0.9255  0.4497 -0.8194
15153TIP3   OH266949   1.026   2.730  14.301  0.4035 -0.5262  0.0835
15153TIP3    H166950   0.956   2.688  14.351  0.9799 -1.9638 -0.2589
15153TIP3    H266951   1.013   2.824  14.315 -1.0475 -0.7948  0.7416
15154TIP3   OH266952   4.865   1.702  11.810  0.0189  0.1877  0.3137
15154TIP3    H166953   4.952   1.686  11.846  0.4044 -0.2744 -0.7768
15154TIP3    H266954   4.822   1.616  11.814  0.5812 -0.2223 -1.6210
15155TIP3   OH266955   3.779   5.360  13.208  0.1483  0.7132 -0.3314
15155TIP3    H166956   3.733   5.441  13.229 -0.7165  0.1778 -0.1101
15155TIP3    H266957   3.839   5.347  13.281 -0.7018  0.4389  0.3414
15156TIP3   OH266958   2.426   2.315  14.990  0.2190  0.5784 -0.1145
15156TIP3    H166959   2.465   2.376  15.053 -0.8629  1.6804 -0.4472
15156TIP3    H266960   2.361   2.369  14.943 -0.0382 -0.5904 -1.1397
15157TIP3   OH266961   1.652   4.679  15.407 -0.4200 -0.3692  0.3566
15157TIP3    H166962   1.727   4.647  15.358 -1.1166  1.6653 -2.2742
15157TIP3    H266963   1.688   4.712  15.489  1.5947  0.5727 -0.8513
15158TIP3   OH266964   3.831   0.433   5.388  0.1521  0.8777 -0.5548
15158TIP3    H166965   3.767   0.504   5.381 -1.1387 -0.1870  0.0986
15158TIP3    H266966   3.855   0.432   5.480 -0.3744  0.0351 -0.4124
15159TIP3   OH266967   1.358   4.833  11.081  0.1124  0.1246 -0.3239
15159TIP3    H166968   1.356   4.745  11.045 -1.8124  0.1879 -0.4804
15159TIP3    H266969   1.280   4.876  11.045 -0.6167  0.9334  2.0037
15160TIP3   OH266970   5.142   3.070  14.628  0.0586  0.6326  0.2583
15160TIP3    H166971   5.233   3.069  14.598 -0.7693  0.3428 -2.6137
15160TIP3    H266972   5.121   2.979  14.644 -0.0066  0.5798 -0.1143
15161TIP3   OH266973   2.922   1.750  12.254  0.2125  0.5583 -0.8999
15161TIP3    H166974   3.016   1.736  12.266  0.4817  3.4960  1.8292
15161TIP3    H266975   2.880   1.685  12.310  0.7979  0.9724  0.0511
15162TIP3   OH266976   2.667   5.739   2.319 -0.3485 -0.3363 -0.5488
15162TIP3    H166977   2.754   5.766   2.347  0.5768 -2.0214 -1.6618
15162TIP3    H266978   2.657   5.776   2.231 -0.1381 -1.3634 -1.0165
15163TIP3   OH266979   3.259   3.561  15.187  0.5499  0.0055 -0.0397
15163TIP3    H166980   3.270   3.589  15.277 -0.5562 -0.5014  0.2762
15163TIP3    H266981   3.326   3.609  15.138  1.3974 -0.0018  1.0953
15164TIP3   OH266982   4.625   6.004   4.142 -0.1587  0.2727  0.2000
15164TIP3    H166983   4.683   6.047   4.204  0.5144  0.3955 -0.4984
15164TIP3    H266984   4.635   6.053   4.060  0.1384 -0.7889 -0.4326
15165TIP3   OH266985   2.998   0.442   2.716 -0.5096  0.4823 -0.1258
15165TIP3    H166986   3.006   0.530   2.753 -1.7274  0.6503 -0.1962
15165TIP3    H266987   2.916   0.408   2.752 -0.8526 -0.0120 -1.2969
15166TIP3   OH266988   4.595   2.818   0.740  0.3596 -0.5809 -0.4109
15166TIP3    H166989   4.514   2.768   0.729  0.0575  0.2878 -2.6294
15166TIP3    H266990   4.639   2.777   0.814 -1.3200 -2.1413 -0.2193
15167TIP3   OH266991   1.616   3.845  12.352  0.2532  0.6742 -0.0004
15167TIP3    H166992   1.555   3.774  12.328 -1.0625  1.9347 -0.5912
15167TIP3    H266993   1.687   3.837  12.288  0.4254 -0.4420  0.3000
15168TIP3   OH266994   6.050   1.246   3.282 -0.7817 -0.2975  0.0402
15168TIP3    H166995   6.002   1.296   3.216 -0.2602  0.6451  0.3690
15168TIP3    H266996   5.982   1.198   3.330 -1.2707 -0.0064 -0.3566
15169TIP3   OH266997   3.777   1.556  14.976 -0.1068  0.1030 -0.2759
15169TIP3    H166998   3.784   1.479  14.919 -1.5195 -1.3373  1.3518
15169TIP3    H266999   3.682   1.568  14.988  0.0783  2.0971 -0.4284
15170TIP3   OH267000   1.205   0.225   2.450 -0.2109  0.0847 -0.3028
15170TIP3    H167001   1.209   0.273   2.533  0.5689 -0.4117 -0.0394
15170TIP3    H267002   1.283   0.253   2.402  0.0861 -0.6716 -0.2768
15171TIP3   OH267003   0.760   4.872  12.877  0.2457 -0.2848 -0.4241
15171TIP3    H167004   0.810   4.805  12.830 -0.5103 -1.2069  0.0507
15171TIP3    H267005   0.673   4.832  12.889 -0.5576  1.1900 -1.0555
15172TIP3   OH267006   5.691   2.587  12.379  0.7213  0.7192 -0.5684
15172TIP3    H167007   5.610   2.582  12.328  0.1888 -1.3704  0.3951
15172TIP3    H267008   5.761   2.569  12.316  0.4782  2.4550 -1.3898
15173TIP3   OH267009   6.426   6.392   6.103  0.2018  0.0405 -0.3073
15173TIP3    H167010   6.385   6.430   6.180 -0.2372 -1.0960  0.0382
15173TIP3    H267011   6.428   6.463   6.039 -0.5468  0.6462  0.3275
15174TIP3   OH267012   3.098   1.783   1.832  0.1286 -0.3446  0.1554
15174TIP3    H167013   3.157   1.814   1.763 -1.9436  0.4248 -1.3941
15174TIP3    H267014   3.090   1.857   1.893 -2.5855  1.3964 -2.0303
15175TIP3   OH267015   5.625   3.742   0.987  0.4602 -0.8884 -0.2525
15175TIP3    H167016   5.530   3.750   0.976  0.4081 -1.6408 -0.4511
15175TIP3    H267017   5.641   3.772   1.076  0.0826 -0.4180 -0.3380
15176TIP3   OH267018   2.488   3.524  14.026 -0.2742 -0.3558 -0.3566
15176TIP3    H167019   2.581   3.517  14.050 -0.0054  0.7250 -1.0120
15176TIP3    H267020   2.455   3.595  14.081 -0.7015 -0.6902 -0.1802
15177TIP3   OH267021   1.557   6.821  16.382  0.1125  0.5164 -0.1227
15177TIP3    H167022   1.518   6.909  16.374 -0.1107  0.2881 -1.9099
15177TIP3    H267023   1.625   6.832  16.448 -0.4241  1.8524  0.2625
15178TIP3   OH267024   1.368   2.224   2.149  0.2410 -0.4603 -0.3625
15178TIP3    H167025   1.457   2.198   2.125  0.1866 -1.0939  0.1054
15178TIP3    H267026   1.380   2.276   2.229  0.2475  0.0335 -0.6794
15179TIP3   OH267027   4.893   3.773   0.794 -0.2214  0.1047 -0.3244
15179TIP3    H167028   4.933   3.691   0.763 -0.0913 -0.1995  0.6225
15179TIP3    H267029   4.808   3.746   0.829  0.2991  0.1783  1.0600
15180TIP3   OH267030   6.060   2.909   5.611  0.4802  0.3329 -0.5293
15180TIP3    H167031   6.088   2.986   5.561  2.0715 -0.4782 -0.9558
15180TIP3    H267032   5.973   2.889   5.577 -0.1194  2.1448 -0.1490
15181TIP3   OH267033   1.151   0.003   0.403  0.0130 -0.1169  0.1418
15181TIP3    H167034   1.167   0.048   0.485 -1.3077  0.9067 -0.1355
15181TIP3    H267035   1.218  -0.065   0.400  2.1104  1.7918  0.5888
15182TIP3   OH267036   2.794   6.649  16.453  0.4069  0.8713  0.2897
15182TIP3    H167037   2.811   6.560  16.483  1.6720  1.0751  0.2246
15182TIP3    H267038   2.718   6.640  16.395  0.5768 -0.1763  0.2047
15183TIP3   OH267039   4.920   2.493  16.642  0.6988  0.5583 -0.0020
15183TIP3    H167040   4.866   2.544  16.702 -0.1795  0.1058 -0.3847
15183TIP3    H267041   4.974   2.439  16.699  0.0712  0.3351  0.3982
15184TIP3   OH267042   5.083   0.844   4.283 -0.5412  0.0670  0.1166
15184TIP3    H167043   4.998   0.843   4.326 -0.0948 -1.6816  1.0747
15184TIP3    H267044   5.146   0.858   4.355  0.0787 -0.5466 -0.2896
15185TIP3   OH267045   5.943   5.134   1.132  0.3455  0.6093 -0.0734
15185TIP3    H167046   5.967   5.216   1.174  0.6779  0.1137  0.7343
15185TIP3    H267047   6.019   5.112   1.077  0.5242  0.5246  0.2045
15186TIP3   OH267048   2.135   5.543  15.570  0.3110  0.2396 -0.0783
15186TIP3    H167049   2.194   5.583  15.506  1.3381 -1.4540 -0.2587
15186TIP3    H267050   2.129   5.452  15.543 -0.2025 -0.2488  1.5534
15187TIP3   OH267051   3.152   4.327  15.996 -0.2726 -0.4395 -0.0476
15187TIP3    H167052   3.106   4.366  16.071 -1.0682  0.2977 -0.8898
15187TIP3    H267053   3.115   4.239  15.989 -0.1631 -0.5279  0.4529
15188TIP3   OH267054   1.211   0.651  12.080  0.0191  0.3379  0.0680
15188TIP3    H167055   1.277   0.717  12.057 -0.3762  0.1465 -1.7691
15188TIP3    H267056   1.171   0.685  12.161  2.9074  0.0070  1.7942
15189TIP3   OH267057   1.455   3.539   1.944 -0.2148  0.1696 -0.8639
15189TIP3    H167058   1.479   3.541   2.037  0.7189  1.2395 -1.1041
15189TIP3    H267059   1.381   3.600   1.937 -0.1147  0.2935 -0.8575
15190TIP3   OH267060   0.061   6.303   5.417 -0.5978 -0.3422 -0.4278
15190TIP3    H167061   0.010   6.224   5.399  0.3213 -0.6045 -2.1562
15190TIP3    H267062   0.056   6.314   5.511 -1.6930 -1.8120 -0.2726
15191TIP3   OH267063   4.150   5.559   2.991  0.2522 -0.0250 -0.2460
15191TIP3    H167064   4.235   5.533   3.028  0.7012  0.2610 -1.0587
15191TIP3    H267065   4.141   5.507   2.911  0.0167  0.5143 -0.5741
15192TIP3   OH267066   4.915   5.145   2.708  0.1007  0.4087  0.3056
15192TIP3    H167067   4.831   5.116   2.743  0.7944 -0.8168  1.0476
15192TIP3    H267068   4.978   5.128   2.779  1.1441  0.2396 -0.6295
15193TIP3   OH267069   2.641   6.728   3.911  0.4766  0.5011 -0.1017
15193TIP3    H167070   2.678   6.664   3.850  0.3732 -1.4851  1.8002
15193TIP3    H267071   2.716   6.755   3.965 -0.0166 -0.3935  1.0800
15194TIP3   OH267072   0.377   5.483   0.183  0.4587 -0.6845 -0.9708
15194TIP3    H167073   0.433   5.449   0.252  2.6705  3.0411 -0.7026
15194TIP3    H267074   0.423   5.461   0.102  0.8784 -0.1199 -0.8958
15195TIP3   OH267075   4.016   2.439  16.945 -0.2432 -0.3974  0.4758
15195TIP3    H167076   3.958   2.381  16.896  0.1589 -0.8084  0.4801
15195TIP3    H267077   4.041   2.507  16.882 -1.1101  0.0604  0.6120
15196TIP3   OH267078   0.085   1.244  11.551  0.6748  0.2490  0.2028
15196TIP3    H167079   0.133   1.169  11.587  1.0651  0.3148 -0.1750
15196TIP3    H267080  -0.004   1.212  11.540  0.4938  0.2955  1.4329
15197TIP3   OH267081   2.666   2.148  15.909 -0.3793 -0.0614  0.4999
15197TIP3    H167082   2.759   2.138  15.889 -0.3354  1.9558 -0.5799
15197TIP3    H267083   2.623   2.148  15.823 -1.5651 -2.2567  1.0317
15198TIP3   OH267084   2.215   0.563  11.928 -0.0556 -0.3797  0.6778
15198TIP3    H167085   2.181   0.648  11.899  0.8115 -0.3605 -0.3588
15198TIP3    H267086   2.258   0.582  12.011 -2.5716 -0.4266  2.0946
15199TIP3   OH267087   0.005   3.183  14.988 -0.0429 -0.5891 -0.3437
15199TIP3    H167088  -0.024   3.258  14.936  1.1539 -1.7979 -2.9356
15199TIP3    H267089   0.097   3.199  15.005 -0.3386 -0.3802  1.2081
15200TIP3   OH267090   1.012   2.984  14.041 -0.3285 -0.0062  0.1566
15200TIP3    H167091   0.952   3.057  14.031  0.1411  0.1859 -1.5943
15200TIP3    H267092   0.993   2.926  13.967  0.9475 -0.4298  0.1258
15201TIP3   OH267093   4.054   1.954   1.842  0.0825  0.2394 -0.9487
15201TIP3    H167094   4.142   1.923   1.862 -0.5218 -1.7259 -1.1138
15201TIP3    H267095   4.055   1.969   1.748 -0.0087 -0.7732 -1.1277
15202TIP3   OH267096   2.811   3.288   4.825  0.3503  0.1244  0.4192
15202TIP3    H167097   2.805   3.377   4.860  0.0566 -0.1731  1.1348
15202TIP3    H267098   2.779   3.232   4.896 -1.0067 -0.4328 -0.5929
15203TIP3   OH267099   0.321   3.245  14.337  0.0994  0.8425 -0.0872
15203TIP3    H167100   0.366   3.192  14.272 -0.4017 -1.2734  1.2066
15203TIP3    H267101   0.353   3.334  14.322  3.1378 -0.2255 -0.5216
15204TIP3   OH267102   6.343   0.407   4.547 -0.0474 -0.2608 -0.7567
15204TIP3    H167103   6.273   0.435   4.487 -0.4968 -2.0862 -1.1464
15204TIP3    H267104   6.303   0.413   4.634  0.4847  2.0352 -0.6066
15205TIP3   OH267105   3.040   3.172  13.956  0.4583  0.3784 -0.0060
15205TIP3    H167106   2.978   3.139  14.021 -0.0137  0.8030 -0.2306
15205TIP3    H267107   3.084   3.094  13.922 -2.3820 -0.4079 -2.3692
15206TIP3   OH267108   0.139   6.558   2.737  0.0263  0.4242  0.6739
15206TIP3    H167109   0.218   6.557   2.790 -0.6397  1.2056  1.7095
15206TIP3    H267110   0.118   6.651   2.727  0.1053  0.3036 -0.9363
15207TIP3   OH267111   5.400   1.285  14.305  0.2636  0.2374  0.2836
15207TIP3    H167112   5.311   1.292  14.339  0.6512 -1.7112  1.8983
15207TIP3    H267113   5.433   1.374  14.305 -0.9731  0.7335  1.6910
15208TIP3   OH267114   2.946   2.306  16.093 -0.1342 -0.1979  0.7928
15208TIP3    H167115   2.975   2.251  16.166 -0.5090 -0.6976  0.5698
15208TIP3    H267116   2.858   2.335  16.119  0.1133  0.4126  0.9719
15209TIP3   OH267117   0.301   6.841  15.201 -0.0024 -0.1260  0.2057
15209TIP3    H167118   0.306   6.748  15.223 -0.7164  0.0659  1.2356
15209TIP3    H267119   0.367   6.853  15.132  1.2896 -1.0542  1.2341
15210TIP3   OH267120   1.636   0.035   6.156  0.1337 -0.4174 -0.3334
15210TIP3    H167121   1.729   0.016   6.169 -0.1901 -1.0876  1.2269
15210TIP3    H267122   1.594   0.005   6.236 -1.3651  0.4542 -0.7577
15211TIP3   OH267123   3.613   2.914  11.681  0.1420  0.0097 -0.5574
15211TIP3    H167124   3.673   2.965  11.735 -0.1349  0.0491 -0.2835
15211TIP3    H267125   3.668   2.878  11.612  0.2112  1.3486 -1.2370
15212TIP3   OH267126   0.167   4.137  15.537 -0.2811 -0.1001 -0.2699
15212TIP3    H167127   0.158   4.222  15.581 -0.6113 -0.9272  1.2963
15212TIP3    H267128   0.091   4.134  15.477 -0.0666  0.8425 -0.6200
15213TIP3   OH267129   4.533   0.329  14.786 -0.1556  0.2353 -0.3942
15213TIP3    H167130   4.448   0.313  14.746  0.0878 -0.0255 -0.8137
15213TIP3    H267131   4.590   0.261  14.749  0.4728  1.0061 -0.8696
15214TIP3   OH267132   0.164   5.443   0.760 -0.2073  0.2912 -0.7135
15214TIP3    H167133   0.169   5.533   0.728  0.8229  0.5315  0.0839
15214TIP3    H267134   0.248   5.428   0.803 -0.1743 -1.2118 -1.2444
15215TIP3   OH267135   4.427   1.653   3.829 -0.1281  0.7452 -0.4094
15215TIP3    H167136   4.442   1.695   3.744 -0.0791  1.2856 -0.1374
15215TIP3    H267137   4.469   1.711   3.892 -0.3480  0.4547  0.0095
15216TIP3   OH267138   6.665   0.639  13.480  0.6035 -0.0224 -0.1684
15216TIP3    H167139   6.680   0.562  13.425 -2.0946  0.1408 -1.2787
15216TIP3    H267140   6.593   0.615  13.538  1.0601  1.0131  0.8853
15217TIP3   OH267141   4.105   4.056  15.082 -0.4875  0.1827 -0.7730
15217TIP3    H167142   4.062   4.057  15.168 -0.1882  0.3440 -0.6257
15217TIP3    H267143   4.149   3.971  15.078 -1.8217 -0.5077 -1.4259
15218TIP3   OH267144   5.277   1.962   5.275 -0.4358  0.1268  0.4890
15218TIP3    H167145   5.185   1.935   5.262  0.5907 -4.0637  0.3916
15218TIP3    H267146   5.308   1.906   5.346  2.5665 -0.0379 -0.8237
15219TIP3   OH267147   4.573   1.842  11.454  0.2235 -0.1192  0.3578
15219TIP3    H167148   4.655   1.879  11.421 -1.4501  0.7989 -3.4213
15219TIP3    H267149   4.524   1.918  11.485 -0.1113 -0.2993  0.2731
15220TIP3   OH267150   3.998   5.684  16.322 -0.2515  0.6408  0.0295
15220TIP3    H167151   4.069   5.744  16.345  1.4519 -2.3073  3.4420
15220TIP3    H267152   4.017   5.657  16.232 -1.0247  4.8284 -1.5949
15221TIP3   OH267153   3.714   2.181   5.966  0.4683  0.5779  0.5234
15221TIP3    H167154   3.781   2.239   6.003  1.3783 -0.9156  1.3110
15221TIP3    H267155   3.762   2.124   5.905 -0.5034  0.9805 -0.6688
15222TIP3   OH267156   4.421   0.617  16.132 -0.2877 -0.1414  0.2030
15222TIP3    H167157   4.483   0.636  16.061  0.8244 -0.9695  0.9200
15222TIP3    H267158   4.379   0.702  16.149  1.9593  0.9110  0.9028
15223TIP3   OH267159   4.750   3.304  16.400  0.0704  0.3400 -0.3404
15223TIP3    H167160   4.832   3.321  16.445 -0.1592 -2.0557  1.2274
15223TIP3    H267161   4.767   3.225  16.348 -1.1886 -0.2211  0.0466
15224TIP3   OH267162   4.340   1.499  12.514 -0.5407  0.6201 -0.2698
15224TIP3    H167163   4.395   1.440  12.463  0.6143  1.5157 -0.0945
15224TIP3    H267164   4.399   1.539  12.577 -1.4408  1.4545  0.0729
15225TIP3   OH267165   5.899   2.175  13.936  0.0123  1.3211  0.8131
15225TIP3    H167166   5.912   2.257  13.888 -0.3778  1.1339  0.3730
15225TIP3    H267167   5.981   2.127  13.924 -0.5077  0.7491 -0.7334
15226TIP3   OH267168   6.801   2.476   1.386  0.0917  0.0262  0.7763
15226TIP3    H167169   6.778   2.538   1.316  1.2078  0.0416  0.3994
15226TIP3    H267170   6.773   2.520   1.467 -2.9815 -0.7876  0.2909
15227TIP3   OH267171   1.413   3.642  16.166  0.2879 -0.5138  0.4824
15227TIP3    H167172   1.393   3.675  16.078  0.7116  0.2483  0.6636
15227TIP3    H267173   1.397   3.548  16.160 -2.8537 -0.0663  0.4795
15228TIP3   OH267174   5.509   1.578   4.515  0.1075  0.1834 -0.1253
15228TIP3    H167175   5.598   1.593   4.482  0.5417 -0.3766  0.7283
15228TIP3    H267176   5.474   1.508   4.460 -0.2171  1.1302 -1.1541
15229TIP3   OH267177   6.795   2.383   4.031  0.1175 -0.8751  0.3889
15229TIP3    H167178   6.834   2.441   4.096  1.6747 -0.6650 -0.6931
15229TIP3    H267179   6.868   2.331   3.998 -0.5524 -0.6560 -1.5123
15230TIP3   OH267180   2.392   1.700   1.748 -0.0554  0.9126 -0.5170
15230TIP3    H167181   2.342   1.630   1.790 -0.2718  0.5334 -1.3932
15230TIP3    H267182   2.376   1.688   1.655  0.2806  1.8539 -0.6993
15231TIP3   OH267183   1.253   6.174   0.653 -0.1139  0.3092 -0.1625
15231TIP3    H167184   1.330   6.214   0.613  0.3341 -0.6686 -0.3054
15231TIP3    H267185   1.184   6.182   0.587 -0.4357  2.0676  0.3342
15232TIP3   OH267186   2.447   4.118  11.129  0.3341 -0.2124  0.3948
15232TIP3    H167187   2.471   4.051  11.065 -0.5213 -0.1108 -0.0580
15232TIP3    H267188   2.371   4.162  11.090 -1.2482 -1.1926  2.1815
15233TIP3   OH267189   5.490   6.365  14.162 -0.3140  0.2169 -0.2968
15233TIP3    H167190   5.569   6.384  14.212 -1.1758  0.0195  1.1951
15233TIP3    H267191   5.434   6.442  14.175 -0.8100 -0.1185 -0.4212
15234TIP3   OH267192   1.811   4.909  13.002 -0.5464 -0.1039  0.7428
15234TIP3    H167193   1.843   4.834  13.053 -0.2628 -0.3552  0.2166
15234TIP3    H267194   1.716   4.897  12.999 -0.6940  0.5279  2.1380
15235TIP3   OH267195   2.322   4.030   1.073  0.3074  0.2478  0.6389
15235TIP3    H167196   2.370   3.958   1.113 -0.6088 -0.5602  0.3075
15235TIP3    H267197   2.383   4.104   1.076  1.6686 -0.8042  0.0128
15236TIP3   OH267198   3.826   3.319  12.885  0.4146  0.2321  0.0094
15236TIP3    H167199   3.751   3.351  12.935 -0.3177 -1.4642  0.0505
15236TIP3    H267200   3.902   3.346  12.938 -0.1650  1.5251  0.2194
15237TIP3   OH267201   5.415   5.426  16.077  0.0961  0.1468  0.5065
15237TIP3    H167202   5.477   5.414  16.149  0.9521 -1.5616 -0.4260
15237TIP3    H267203   5.397   5.337  16.047 -0.9192  0.7698 -0.8263
15238TIP3   OH267204   6.378   2.895   3.777 -0.9525 -0.0429 -0.6706
15238TIP3    H167205   6.366   2.914   3.870 -0.9939  0.0883 -0.7018
15238TIP3    H267206   6.299   2.845   3.753 -0.3232 -1.2351 -0.3309
15239TIP3   OH267207   2.007   6.441   4.547 -0.5464  0.1128  0.0295
15239TIP3    H167208   2.001   6.466   4.639 -1.5315  1.3940 -0.3525
15239TIP3    H267209   2.093   6.399   4.539 -1.3757 -2.1841  2.0045
15240TIP3   OH267210   4.225   2.314   5.757 -0.5010 -0.0388 -0.1281
15240TIP3    H167211   4.185   2.258   5.691  0.0048 -0.3130 -0.2081
15240TIP3    H267212   4.169   2.391   5.760 -0.6658 -0.1274 -0.7089
15241TIP3   OH267213   5.135   3.651   4.544 -0.4184  0.8611  0.1007
15241TIP3    H167214   5.125   3.561   4.514  0.1656  0.6025  0.6613
15241TIP3    H267215   5.106   3.704   4.469  0.3002  0.2226 -0.6534
15242TIP3   OH267216   2.889   2.042   3.699  0.5707 -0.2389  0.3098
15242TIP3    H167217   2.839   2.019   3.777  0.1716  1.0311  0.4485
15242TIP3    H267218   2.877   1.968   3.640 -1.8754  0.2117  0.1657
15243TIP3   OH267219   6.085   1.989   0.471 -0.2836  1.0388  0.1238
15243TIP3    H167220   6.108   2.040   0.549 -1.4695  0.8214  0.6362
15243TIP3    H267221   5.993   2.008   0.456 -0.4080  0.0508 -0.4611
15244TIP3   OH267222   3.052   4.090   4.893  0.9896 -0.6487  0.4563
15244TIP3    H167223   3.060   4.046   4.809 -0.1684 -1.6665  0.8516
15244TIP3    H267224   3.018   4.176   4.872 -0.1087 -1.1973 -0.0665
15245TIP3   OH267225   2.426   1.527  12.413  0.3351  0.5853 -0.2899
15245TIP3    H167226   2.430   1.466  12.340 -2.5774  0.6265 -0.5668
15245TIP3    H267227   2.418   1.613  12.372  0.2762  0.7641  0.0919
15246TIP3   OH267228   4.797   6.393  16.561 -0.0120 -0.0734 -0.4140
15246TIP3    H167229   4.826   6.460  16.499  1.0392  0.1649  0.3074
15246TIP3    H267230   4.707   6.417  16.582  0.2453  0.9389 -0.3986
15247TIP3   OH267231   0.430   0.025  11.181  0.1204  0.9717 -0.2527
15247TIP3    H167232   0.440   0.076  11.261 -1.9903  0.0948  0.6699
15247TIP3    H267233   0.347  -0.022  11.193  0.7385 -0.7668 -2.0860
15248TIP3   OH267234   0.324   1.089  10.716  0.0340 -0.1055 -0.0569
15248TIP3    H167235   0.415   1.073  10.692 -0.1174  0.8459 -1.3284
15248TIP3    H267236   0.315   1.184  10.714 -1.1329 -0.2188 -0.4746
15249TIP3   OH267237   0.003   2.693  11.356  0.0143 -0.1133  0.2247
15249TIP3    H167238  -0.024   2.734  11.438 -0.1469 -1.0112  0.6372
15249TIP3    H267239   0.098   2.685  11.364  0.3178  1.9005 -0.6899
15250TIP3   OH267240   2.732   3.020  16.484  0.2870  0.1644 -0.3603
15250TIP3    H167241   2.731   3.007  16.389  2.7121 -1.1725 -0.2798
15250TIP3    H267242   2.666   2.959  16.517 -0.8703  0.9281 -1.1578
15251TIP3   OH267243   3.409   1.179   2.445 -0.5008  0.5067 -0.0537
15251TIP3    H167244   3.337   1.205   2.502 -1.5699 -2.4317  0.1272
15251TIP3    H267245   3.365   1.135   2.371  0.9906 -3.3808  1.1182
15252TIP3   OH267246   4.175   3.760  12.044  0.3143  0.0417  0.1510
15252TIP3    H167247   4.241   3.730  11.982 -0.3092 -0.5933 -0.2269
15252TIP3    H267248   4.110   3.806  11.990 -0.7345 -1.3630  0.1536
15253TIP3   OH267249   5.941   3.622   2.553  0.7601 -0.6009  0.4150
15253TIP3    H167250   5.880   3.695   2.545  0.6407 -0.7286  0.1495
15253TIP3    H267251   5.912   3.559   2.487  1.3068 -0.5702  0.1359
15254TIP3   OH267252   1.383   6.481  16.569  0.0552  0.2997  0.0759
15254TIP3    H167253   1.319   6.418  16.603 -0.6933  0.3054 -1.2385
15254TIP3    H267254   1.330   6.550  16.529  0.8637  1.6706  1.2592
15255TIP3   OH267255   4.547   0.462  10.487  0.0357 -0.1793  0.4929
15255TIP3    H167256   4.568   0.458  10.394  1.0878 -0.0826  0.7125
15255TIP3    H267257   4.516   0.374  10.508  3.3688 -1.4191  0.8303
15256TIP3   OH267258   1.052   3.831   0.903 -0.0766 -0.0804 -0.4018
15256TIP3    H167259   0.980   3.892   0.884 -1.5992 -1.4800  0.5789
15256TIP3    H267260   1.026   3.790   0.986  1.9623 -0.5299  0.0599
15257TIP3   OH267261   5.925   4.289  14.856 -0.5158  0.5456 -0.5365
15257TIP3    H167262   5.939   4.215  14.797 -1.4158 -0.7879  0.8473
15257TIP3    H267263   5.849   4.335  14.819  0.0866  0.8478 -1.4345
15258TIP3   OH267264   3.688   2.544   4.706 -0.0491  0.3756 -0.4092
15258TIP3    H167265   3.611   2.547   4.763 -0.3004  1.3342 -0.7677
15258TIP3    H267266   3.743   2.475   4.743 -0.8682 -0.0049  0.1284
15259TIP3   OH267267   3.740   5.845   5.178 -0.3304  0.3972  0.0508
15259TIP3    H167268   3.825   5.846   5.223 -0.7809 -1.4284  1.0685
15259TIP3    H267269   3.705   5.758   5.196 -2.9370  1.4646  0.6436
15260TIP3   OH267270   0.404   3.601   2.033  0.0461  0.1639  0.5438
15260TIP3    H167271   0.470   3.547   2.077 -1.1105  0.5870  2.9638
15260TIP3    H267272   0.455   3.672   1.993  1.2277 -0.6105  0.6177
15261TIP3   OH267273   4.576   2.282   5.484 -0.2766 -0.5913  0.2619
15261TIP3    H167274   4.549   2.260   5.573 -0.6600  1.0386  0.5820
15261TIP3    H267275   4.663   2.321   5.494 -0.1391 -0.7939 -0.1284
15262TIP3   OH267276   1.161   2.523  14.179 -0.2338  0.7775  0.2252
15262TIP3    H167277   1.207   2.510  14.262 -2.2458 -1.3046  1.1546
15262TIP3    H267278   1.115   2.606  14.190  1.8263  2.0212 -0.0584
15263TIP3   OH267279   6.679   6.202  17.017  0.1234 -0.0257 -0.3676
15263TIP3    H167280   6.643   6.232  17.100  1.9446  0.2077  0.3927
15263TIP3    H267281   6.636   6.118  17.000  0.0691 -0.3046  1.0549
15264TIP3   OH267282   3.574   3.772   2.223  0.1554 -0.3801 -0.4533
15264TIP3    H167283   3.575   3.707   2.294 -2.5573  0.2185  0.2186
15264TIP3    H267284   3.598   3.722   2.145 -0.3764 -1.8739  0.3005
15265TIP3   OH267285   5.347   3.846   1.655 -0.8283  0.0322  0.4979
15265TIP3    H167286   5.275   3.870   1.596  1.2934 -0.4082 -2.5163
15265TIP3    H267287   5.426   3.864   1.604  1.2977  0.8219  3.7519
15266TIP3   OH267288   6.227   6.809  15.194 -0.3079  0.7620  0.1348
15266TIP3    H167289   6.217   6.804  15.289  0.4686  1.8132  0.2828
15266TIP3    H267290   6.289   6.738  15.173 -2.6432 -1.3901  0.0109
15267TIP3   OH267291   2.477   1.049   4.332 -0.4582  0.1666  0.1889
15267TIP3    H167292   2.474   1.131   4.283 -1.4583  1.0821  1.7114
15267TIP3    H267293   2.507   0.984   4.268  0.9004  1.7980 -0.8899
15268TIP3   OH267294   2.598   3.930   2.919  0.2620 -0.9840 -0.1694
15268TIP3    H167295   2.599   4.026   2.916  1.4766 -0.8329  2.2702
15268TIP3    H267296   2.512   3.908   2.955  0.7030 -0.6319  1.1934
15269TIP3   OH267297   6.388   4.596  12.111  0.0493  0.0750 -0.4826
15269TIP3    H167298   6.370   4.502  12.114 -0.7820  0.2238 -0.3708
15269TIP3    H267299   6.434   4.614  12.193 -0.7593 -0.0604  0.0181
15270TIP3   OH267300   1.548   1.233   5.041 -0.3631 -0.0263  0.5111
15270TIP3    H167301   1.614   1.203   5.103  1.3132  0.7045 -0.8437
15270TIP3    H267302   1.552   1.169   4.969  1.8564  2.1715 -1.4868
15271TIP3   OH267303   6.516   4.967   0.537  0.1695  0.3404 -0.0910
15271TIP3    H167304   6.468   5.050   0.540  0.9501  0.8107 -0.4209
15271TIP3    H267305   6.605   4.990   0.565  0.3595 -0.4031 -0.0799
15272TIP3   OH267306   5.488   0.375  15.709 -0.2822 -0.4193 -0.7001
15272TIP3    H167307   5.517   0.435  15.777  1.4303 -0.8698 -0.9821
15272TIP3    H267308   5.393   0.381  15.710 -0.4052 -1.2184  2.4803
15273TIP3   OH267309   0.046   3.460   1.177 -0.3968  0.4345 -0.3458
15273TIP3    H167310   0.034   3.383   1.121  0.3734  0.6358 -0.7924
15273TIP3    H267311   0.007   3.435   1.261 -0.0191 -0.5023 -0.4417
15274TIP3   OH267312   4.785   3.990   5.166  0.1303  0.1436  0.1705
15274TIP3    H167313   4.877   3.964   5.173  0.3116  0.7108 -0.0573
15274TIP3    H267314   4.763   3.976   5.073  0.0508  0.2264  0.1765
15275TIP3   OH267315   0.548   2.618  14.549 -0.2976  0.3698  0.6224
15275TIP3    H167316   0.550   2.664  14.633 -1.1270  0.1311  0.7810
15275TIP3    H267317   0.458   2.585  14.542  0.5443 -2.2203  1.0623
15276TIP3   OH267318   3.145   4.241  14.113 -0.4877 -0.0210 -1.1432
15276TIP3    H167319   3.218   4.203  14.065 -0.1116  1.0605 -1.4603
15276TIP3    H267320   3.154   4.336  14.100 -0.1878  0.3531  1.2776
15277TIP3   OH267321   2.408   5.183  12.455 -0.6895 -0.0934 -0.2527
15277TIP3    H167322   2.403   5.092  12.485  0.0110 -0.0360  0.0605
15277TIP3    H267323   2.428   5.233  12.533 -1.4882  0.3897 -0.3503
15278TIP3   OH267324   4.398   1.298  11.569  0.4572  0.6495  0.5038
15278TIP3    H167325   4.329   1.334  11.624 -0.2223 -1.0140  0.7976
15278TIP3    H267326   4.359   1.221  11.528  2.0717 -0.2308  0.5175
15279TIP3   OH267327   0.363   1.828   0.698  0.2915 -0.2405 -0.2332
15279TIP3    H167328   0.414   1.800   0.622 -0.1045  0.7036 -0.8610
15279TIP3    H267329   0.425   1.822   0.771  0.1921 -2.8467 -0.2871
15280TIP3   OH267330   2.134   5.787   1.601 -0.2471 -0.1892  0.2269
15280TIP3    H167331   2.039   5.795   1.615  0.0071 -0.9462  2.7579
15280TIP3    H267332   2.152   5.693   1.607  0.9078  0.0984  1.8754
15281TIP3   OH267333   0.926   6.091  16.229 -0.1039 -0.3572  0.0563
15281TIP3    H167334   0.916   6.087  16.134 -0.3427  1.7069 -0.0426
15281TIP3    H267335   0.926   6.184  16.249 -0.8032 -0.7716  2.1761
15282TIP3   OH267336   6.062   1.745  11.812 -0.1095  0.1055 -0.1797
15282TIP3    H167337   6.081   1.830  11.773 -0.3188  0.8905  1.3619
15282TIP3    H267338   6.121   1.739  11.887  0.7707 -1.6726 -0.9446
15283TIP3   OH267339   3.271   4.509   2.014  0.2631 -0.7537  0.4967
15283TIP3    H167340   3.343   4.565   2.044  0.7724 -1.1514  0.0368
15283TIP3    H267341   3.242   4.463   2.093 -0.2066  0.1928  0.8926
15284TIP3   OH267342   1.976   5.427   3.759 -0.1774  0.2298  0.5447
15284TIP3    H167343   1.894   5.468   3.734 -0.1258  1.0826  1.7254
15284TIP3    H267344   2.031   5.499   3.789 -0.0082 -0.6474  2.4451
15285TIP3   OH267345   0.078   6.367  13.751  0.4983 -0.5605  0.4739
15285TIP3    H167346   0.022   6.374  13.829  1.9021 -0.4940  1.5034
15285TIP3    H267347   0.048   6.287  13.708 -2.0344  0.7311 -0.3674
15286TIP3   OH267348   1.503   3.754  15.041  0.0594  0.1483 -0.2045
15286TIP3    H167349   1.443   3.764  14.967  0.9610  1.9659 -0.7391
15286TIP3    H267350   1.584   3.721  15.002  0.7125  1.6250 -0.1544
15287TIP3   OH267351   3.206   2.075  15.974 -0.0401  0.1268  0.1570
15287TIP3    H167352   3.299   2.099  15.974 -0.0719  0.2951  1.3542
15287TIP3    H267353   3.173   2.109  16.057 -1.1076 -0.1957 -0.1299
15288TIP3   OH267354   2.347   3.031   4.961  0.0605  0.3800  0.5932
15288TIP3    H167355   2.350   2.936   4.970 -0.8657  0.3880  1.1546
15288TIP3    H267356   2.438   3.060   4.975  0.5406 -0.4839 -0.5990
15289TIP3   OH267357   3.812   4.158   3.184  0.2530  0.0146 -0.6372
15289TIP3    H167358   3.742   4.216   3.215  0.8157  1.9358 -2.7187
15289TIP3    H267359   3.893   4.203   3.207  0.7921 -1.0521 -0.3478
15290TIP3   OH267360   1.381   1.953   5.003  0.0969 -0.9274  0.2837
15290TIP3    H167361   1.466   1.940   4.960  0.0714  0.2543 -0.1384
15290TIP3    H267362   1.399   1.938   5.096  0.8893 -0.1478  0.2649
15291TIP3   OH267363   1.008   4.487   1.641  0.1657 -0.2535 -0.0992
15291TIP3    H167364   1.026   4.510   1.732  1.0390 -2.3475  0.3204
15291TIP3    H267365   1.093   4.462   1.605  0.0250  1.5213 -1.8481
15292TIP3   OH267366   2.327   5.245   4.275 -0.1550 -0.4221  0.7735
15292TIP3    H167367   2.250   5.275   4.226  0.0304 -1.4372 -0.1842
15292TIP3    H267368   2.357   5.168   4.228  2.9846  1.3258 -0.3724
15293TIP3   OH267369   3.152   1.687   5.811 -0.2950  0.7725  0.2332
15293TIP3    H167370   3.107   1.748   5.753  0.1608  1.5835  0.7102
15293TIP3    H267371   3.217   1.741   5.857 -0.4906  0.1053  1.3304
15294TIP3   OH267372   5.775   5.039  15.363  1.2891 -0.6022  0.2853
15294TIP3    H167373   5.859   5.011  15.326  0.6469 -1.1141 -0.8504
15294TIP3    H267374   5.735   5.091  15.293  1.0117  0.3489  1.1327
15295TIP3   OH267375   4.873   0.033  13.562  0.4850 -0.1006 -0.5743
15295TIP3    H167376   4.903   0.078  13.641  1.1172 -0.9840 -0.2913
15295TIP3    H267377   4.952  -0.005  13.524  0.3811  1.3658 -2.3453
15296TIP3   OH267378   5.410   6.779   5.271 -0.2717  1.3945 -0.1345
15296TIP3    H167379   5.453   6.708   5.225 -1.8701  0.7822 -0.7560
15296TIP3    H267380   5.472   6.852   5.266  1.2981  0.1408  0.3292
15297TIP3   OH267381   2.031   0.142  11.895 -0.1883  0.1812  0.3144
15297TIP3    H167382   2.071   0.064  11.856 -1.4021 -0.6224  0.6023
15297TIP3    H267383   2.093   0.212  11.877  0.3260 -0.5894 -1.1217
15298TIP3   OH267384   2.986   6.065   4.673 -0.0093  0.4030  0.3307
15298TIP3    H167385   2.902   6.026   4.647 -0.0433 -0.2112  1.3020
15298TIP3    H267386   3.030   6.085   4.590 -0.4928 -0.6332 -0.2013
15299TIP3   OH267387   5.724   5.724  11.059  0.0044  0.0391  0.1669
15299TIP3    H167388   5.716   5.707  11.153  1.3823  0.9546  0.4628
15299TIP3    H267389   5.696   5.642  11.018 -1.0449 -0.2208  1.3492
15300TIP3   OH267390   5.470   3.006  11.170 -0.0690  0.5763  0.3340
15300TIP3    H167391   5.453   2.913  11.185 -0.2956  0.5600 -0.0262
15300TIP3    H267392   5.385   3.049  11.186 -0.7705  0.3872 -2.4738
15301TIP3   OH267393   3.817   1.750  12.664  0.7558  0.3081 -0.5028
15301TIP3    H167394   3.777   1.682  12.719  1.4685 -1.0028 -1.5308
15301TIP3    H267395   3.888   1.785  12.717  0.1350  0.5546  0.1951
15302TIP3   OH267396   1.826   1.524  17.100 -0.2843 -0.8407  0.0499
15302TIP3    H167397   1.912   1.502  17.135 -0.5655  1.8060  2.8012
15302TIP3    H267398   1.765   1.475  17.154 -0.6064  0.3434  0.7846
15303TIP3   OH267399   3.159   0.209   2.328 -0.1740 -0.5193 -0.5814
15303TIP3    H167400   3.186   0.142   2.265 -0.4649 -0.6342 -0.5852
15303TIP3    H267401   3.202   0.289   2.298  2.4121 -1.2310  0.9355
15304TIP3   OH267402   0.740   1.432   0.913 -0.2323  0.3824 -0.1142
15304TIP3    H167403   0.745   1.446   0.818  1.0135  1.9564  0.1373
15304TIP3    H267404   0.648   1.449   0.934 -0.5213  0.0306 -1.0330
15305TIP3   OH267405   2.842   1.967  13.684 -0.2594  0.5386  0.7129
15305TIP3    H167406   2.927   1.946  13.645 -0.0651 -1.0398  1.8911
15305TIP3    H267407   2.785   1.894  13.661 -0.6785  0.5212  1.7563
15306TIP3   OH267408   6.143   3.759  15.520  0.1828 -0.2191  0.0660
15306TIP3    H167409   6.062   3.782  15.474 -0.4742  0.3417  1.4162
15306TIP3    H267410   6.184   3.692  15.466 -1.0168 -0.2568 -0.8383
15307TIP3   OH267411   0.096   3.198  12.976  0.8962  0.1410  0.0081
15307TIP3    H167412   0.168   3.208  12.915  0.1414  0.3687 -0.8641
15307TIP3    H267413   0.041   3.130  12.937  1.3731 -1.0990  1.3943
15308TIP3   OH267414   3.101   3.037  12.890  0.5156 -0.2425  1.5626
15308TIP3    H167415   3.182   2.993  12.915  0.9084 -1.0658 -0.8621
15308TIP3    H267416   3.128   3.125  12.865  0.6062 -0.3964  1.1168
15309TIP3   OH267417   1.926   0.665   0.708  0.3403 -0.1146  0.0893
15309TIP3    H167418   1.882   0.588   0.672  2.4634 -1.6390  0.5437
15309TIP3    H267419   1.899   0.667   0.800 -0.8847  0.6156 -0.2621
15310TIP3   OH267420   0.696   3.161  10.618  0.4044 -0.1546  0.2090
15310TIP3    H167421   0.713   3.120  10.533 -0.6897  1.0874 -0.6631
15310TIP3    H267422   0.649   3.242  10.596 -0.1332  0.0667  2.0202
15311TIP3   OH267423   5.664   5.228   4.133 -0.0475  0.3514  0.1011
15311TIP3    H167424   5.665   5.220   4.229 -2.1902 -1.2412  0.0805
15311TIP3    H267425   5.611   5.306   4.116 -1.2671 -0.4151  0.2500
15312TIP3   OH267426   4.933   2.611   6.172  0.0832  0.1906 -0.3959
15312TIP3    H167427   4.863   2.549   6.189 -0.5472  0.9131 -0.2949
15312TIP3    H267428   4.943   2.660   6.254  1.0589 -0.2386 -0.2386
15313TIP3   OH267429   0.833   1.854  17.099 -0.7756 -0.3489  0.0271
15313TIP3    H167430   0.872   1.859  17.012 -0.0207  0.9111  0.4062
15313TIP3    H267431   0.771   1.782  17.094  0.5135 -1.4327 -1.0525
15314TIP3   OH267432   6.525   0.109  16.489 -0.3814 -0.1116  1.4467
15314TIP3    H167433   6.568   0.190  16.461 -0.6870 -0.5646 -0.5464
15314TIP3    H267434   6.596   0.053  16.521  0.8246 -1.0823 -2.3303
15315TIP3   OH267435   6.214   3.727   5.469 -1.0927  0.2837  0.2853
15315TIP3    H167436   6.256   3.645   5.445 -0.0387  0.8174  0.2694
15315TIP3    H267437   6.130   3.725   5.424 -0.5327 -0.2188 -0.7640
15316TIP3   OH267438   6.582   1.299  14.623 -0.4002 -0.1306 -0.6063
15316TIP3    H167439   6.496   1.261  14.643 -1.4763  1.8704 -1.1908
15316TIP3    H267440   6.564   1.390  14.600  2.0420  0.7792  0.6504
15317TIP3   OH267441   0.420   5.069  12.793  0.2197  0.1619 -0.0769
15317TIP3    H167442   0.415   5.050  12.699 -1.6614 -0.7463  0.1534
15317TIP3    H267443   0.346   5.127  12.809  1.1748  1.2125  0.6825
15318TIP3   OH267444   3.264   2.811   2.873 -0.1720 -0.3948  0.0193
15318TIP3    H167445   3.272   2.803   2.968  1.1095 -0.2176 -0.0485
15318TIP3    H267446   3.213   2.890   2.859 -0.1119 -0.2574  0.5631
15319TIP3   OH267447   4.382   0.374  14.219 -0.1476  0.3167  0.2593
15319TIP3    H167448   4.396   0.326  14.300  0.5457  2.0465  1.2125
15319TIP3    H267449   4.444   0.335  14.157 -0.8165 -1.1466  0.4658
15320TIP3   OH267450   5.022   0.231  10.926 -0.5913  0.0239  0.1115
15320TIP3    H167451   5.088   0.217  10.994  2.1940 -0.6621 -2.4998
15320TIP3    H267452   5.073   0.239  10.845 -3.7691 -1.3276 -2.2162
15321TIP3   OH267453   4.604   1.921  13.313 -0.3977  0.3125 -0.2931
15321TIP3    H167454   4.512   1.895  13.324 -0.4718  0.4726 -0.5240
15321TIP3    H267455   4.600   2.001  13.261 -0.0694 -0.5818 -1.7596
15322TIP3   OH267456   6.227   3.496   2.461 -0.2052 -0.4143  0.1744
15322TIP3    H167457   6.147   3.544   2.440  0.1544 -0.2604 -0.8866
15322TIP3    H267458   6.292   3.564   2.480  0.3097 -0.4301 -1.3462
15323TIP3   OH267459   2.424   2.682   3.456  0.1951 -0.2719  0.0897
15323TIP3    H167460   2.362   2.662   3.386 -0.3881  0.7446  0.2952
15323TIP3    H267461   2.504   2.708   3.410 -0.6380  1.8703 -0.2985
15324TIP3   OH267462   2.072   4.474   6.532  0.1085 -0.0673 -0.0847
15324TIP3    H167463   2.005   4.529   6.573  0.6941 -0.5783  1.6687
15324TIP3    H267464   2.108   4.529   6.463 -2.8272 -0.1777 -1.8784
15325TIP3   OH267465   4.454   2.365   2.105 -0.0776 -0.5232  0.0820
15325TIP3    H167466   4.421   2.402   2.023 -2.2393 -2.5953 -0.1017
15325TIP3    H267467   4.488   2.279   2.081  0.3781 -0.6746  1.1899
15326TIP3   OH267468   5.360   5.044   2.423  0.1724 -0.2809  0.2852
15326TIP3    H167469   5.265   5.032   2.425  0.1529 -0.1496  2.2176
15326TIP3    H267470   5.395   4.956   2.408 -0.2418 -0.7120  1.6532
15327TIP3   OH267471   0.686   3.299  16.860 -0.2905 -0.1294 -0.4462
15327TIP3    H167472   0.657   3.387  16.836 -0.5456  0.0669  0.5571
15327TIP3    H267473   0.749   3.275  16.792  1.2935  1.6118  0.3493
15328TIP3   OH267474   0.904   6.187   1.410 -0.0114  0.5055  0.0098
15328TIP3    H167475   0.896   6.281   1.428 -0.9684  0.5934 -0.8325
15328TIP3    H267476   0.824   6.164   1.364 -0.5078 -1.0538  1.5280
15329TIP3   OH267477   0.335   2.989   0.191 -0.4199 -0.2038  0.8006
15329TIP3    H167478   0.400   3.044   0.147 -0.3547 -0.4231  0.6137
15329TIP3    H267479   0.261   2.988   0.131 -1.6010  2.0298  2.0967
15330TIP3   OH267480   6.273   5.165  11.193 -0.0574  0.3141 -0.1700
15330TIP3    H167481   6.316   5.249  11.177  1.1236 -0.7338 -3.1915
15330TIP3    H267482   6.337   5.099  11.164 -1.2268 -1.6225  1.3875
15331TIP3   OH267483   0.703   6.740  11.756  0.1852  0.2247 -0.5752
15331TIP3    H167484   0.761   6.665  11.741  1.0157  0.2681  1.9728
15331TIP3    H267485   0.616   6.708  11.731  0.6357 -1.3866 -0.2050
15332TIP3   OH267486   5.595   3.180   4.859  0.0656  0.0173  0.4904
15332TIP3    H167487   5.579   3.116   4.789 -0.0477 -1.7681  2.0845
15332TIP3    H267488   5.508   3.209   4.885 -0.0342 -1.0219  1.3786
15333TIP3   OH267489   4.606   2.592  12.249 -0.5174 -0.2266 -0.4766
15333TIP3    H167490   4.570   2.676  12.220 -2.0575 -1.1058 -1.2990
15333TIP3    H267491   4.673   2.571  12.184 -1.1437 -0.2886 -1.1201
15334TIP3   OH267492   1.871   6.818   3.605 -0.0710 -0.1502 -0.1293
15334TIP3    H167493   1.825   6.873   3.542 -0.1928  0.3199  0.3631
15334TIP3    H267494   1.815   6.741   3.614 -1.3399  0.8815  1.2550
15335TIP3   OH267495   4.702   3.997   1.029  0.1400  0.0613  0.4557
15335TIP3    H167496   4.670   3.953   0.951 -0.2755 -1.4761  1.4476
15335TIP3    H267497   4.701   4.090   1.007 -1.0085 -0.2597 -0.9768
15336TIP3   OH267498   3.063   5.097   1.028  0.7558  0.6396  0.0951
15336TIP3    H167499   3.099   5.148   1.101  0.0719  0.0433  0.8631
15336TIP3    H267500   3.006   5.032   1.070  1.0184 -0.2733 -0.9044
15337TIP3   OH267501   1.201   6.666   4.208 -0.1950  0.2984 -0.0105
15337TIP3    H167502   1.294   6.664   4.228 -0.1447  0.0174 -0.2823
15337TIP3    H267503   1.162   6.711   4.284  0.1942  0.7097 -0.0488
15338TIP3   OH267504   5.205   3.243   6.391  0.6414 -0.2744 -0.0192
15338TIP3    H167505   5.162   3.157   6.390  1.3829 -0.6944  1.4112
15338TIP3    H267506   5.297   3.223   6.409  0.8512  0.8111  0.1349
15339TIP3   OH267507   3.939   3.405   5.651 -0.3417  0.4102 -0.0130
15339TIP3    H167508   3.857   3.449   5.674  1.2429  2.7747  1.6013
15339TIP3    H267509   3.968   3.364   5.732  1.1847  1.6185  0.0884
15340TIP3   OH267510   5.052   3.257  12.410 -0.0858 -0.6949  0.0520
15340TIP3    H167511   5.135   3.281  12.452 -0.9004 -0.1192  1.3965
15340TIP3    H267512   5.028   3.334  12.358  0.3473 -0.9599 -0.5421
15341TIP3   OH267513   0.521   3.451   3.122 -0.1426  0.6872 -0.1195
15341TIP3    H167514   0.564   3.445   3.207 -1.6017 -0.6650  0.5915
15341TIP3    H267515   0.428   3.438   3.142 -0.5766  0.9204 -1.8576
15342TIP3   OH267516   3.379   2.476  15.660 -0.3794 -0.3255  0.0637
15342TIP3    H167517   3.290   2.505  15.674 -0.2806 -0.8199  1.9183
15342TIP3    H267518   3.376   2.381  15.676  0.0716 -0.7395 -2.0069
15343TIP3   OH267519   3.738   3.930   4.752  0.4600 -0.0844  0.2716
15343TIP3    H167520   3.792   3.971   4.819 -1.0232  2.2000  0.2057
15343TIP3    H267521   3.666   3.889   4.800  0.1906  0.2569  0.1626
15344TIP3   OH267522   5.587   4.133   3.972 -0.3328 -0.1346 -0.9032
15344TIP3    H167523   5.649   4.131   4.046 -0.9719 -2.2410 -0.3501
15344TIP3    H267524   5.624   4.198   3.912  0.6017  1.1162  0.9117
15345TIP3   OH267525   0.773   3.502  14.808  0.1862 -0.9436  0.6550
15345TIP3    H167526   0.812   3.431  14.757  0.1488  0.1248 -0.9719
15345TIP3    H267527   0.687   3.516  14.768  0.6535  0.7499  0.1095
15346TIP3   OH267528   5.881   0.524  15.311  0.0281 -0.0207 -0.2938
15346TIP3    H167529   5.872   0.429  15.320 -0.3789  0.1136  0.7600
15346TIP3    H267530   5.825   0.546  15.237 -0.7137 -0.4646  0.1278
15347TIP3   OH267531   6.443   1.530  13.107  0.3510  0.4770 -0.1782
15347TIP3    H167532   6.432   1.481  13.188 -1.4439  0.8340 -0.1631
15347TIP3    H267533   6.507   1.598  13.130 -0.9141  1.2445  1.2886
15348TIP3   OH267534   1.877   1.342   0.586 -0.6756 -0.2180 -0.4872
15348TIP3    H167535   1.919   1.404   0.645 -0.8231  0.0585 -0.6746
15348TIP3    H267536   1.784   1.351   0.603 -0.8579  1.0815 -1.9413
15349TIP3   OH267537   6.109   6.473  15.287 -0.1399 -0.1410 -0.0348
15349TIP3    H167538   6.092   6.510  15.373 -1.4374  1.9831 -1.1151
15349TIP3    H267539   6.203   6.454  15.286  0.1419  1.0378  1.3915
15350TIP3   OH267540   6.079   0.101   5.169  0.1059  0.2130  0.2214
15350TIP3    H167541   6.149   0.080   5.107  0.1673  1.4187 -0.1488
15350TIP3    H267542   6.114   0.076   5.255  0.6591  0.0180 -0.0579
15351TIP3   OH267543   6.371   3.356  16.339  0.2629 -0.0036  0.2475
15351TIP3    H167544   6.419   3.345  16.422 -0.1552  1.8708  0.7788
15351TIP3    H267545   6.419   3.424  16.293 -1.0913  0.9460  0.1877
15352TIP3   OH267546   0.257   3.852  15.384 -0.3297  0.2626 -0.1426
15352TIP3    H167547   0.236   3.847  15.477  0.3718 -1.9700 -0.0473
15352TIP3    H267548   0.353   3.855  15.382 -0.3510  0.5866 -0.7894
15353TIP3   OH267549   6.828   0.379  14.846  0.0690 -0.0273 -0.2518
15353TIP3    H167550   6.858   0.339  14.764 -0.1330  0.8422 -0.7651
15353TIP3    H267551   6.848   0.472  14.836  1.8850 -0.1741  1.5273
15354TIP3   OH267552   6.761   4.369  14.784  0.2491 -0.2469  0.3955
15354TIP3    H167553   6.769   4.279  14.815 -1.7581 -0.5027  0.3087
15354TIP3    H267554   6.838   4.382  14.729  1.4896 -1.3072  1.7968
15355TIP3   OH267555   1.659   3.395   5.282  0.5344  0.0142  0.3987
15355TIP3    H167556   1.712   3.341   5.224  0.8874  1.2186 -0.4595
15355TIP3    H267557   1.705   3.394   5.366  1.8213  0.8375 -0.2637
15356TIP3   OH267558   2.998   3.640   0.504 -0.4482  0.2148 -0.5114
15356TIP3    H167559   2.969   3.578   0.437  0.0501 -1.4592  0.7675
15356TIP3    H267560   3.069   3.688   0.463 -0.7916 -0.0892 -1.5045
15357TIP3   OH267561   2.499   4.656  11.491  0.6213  0.4104 -1.3705
15357TIP3    H167562   2.440   4.724  11.523  1.6440  1.1939 -1.1326
15357TIP3    H267563   2.454   4.620  11.414 -1.4940 -0.9303  0.3644
15358TIP3   OH267564   6.507   1.692  16.002  0.3317 -0.2046  0.8163
15358TIP3    H167565   6.440   1.739  16.052  0.6821 -0.3084  1.3905
15358TIP3    H267566   6.574   1.670  16.066  0.7247 -0.4652  0.3235
15359TIP3   OH267567   2.382   0.124  15.499  0.2807  0.3825 -0.0821
15359TIP3    H167568   2.412   0.034  15.488 -2.0814 -0.3784 -1.0900
15359TIP3    H267569   2.411   0.149  15.587  2.9327 -0.4994 -0.6159
15360TIP3   OH267570   6.324   0.111   4.119  0.2396 -0.1256  0.3460
15360TIP3    H167571   6.350   0.152   4.037  1.0675  0.6342  0.9743
15360TIP3    H267572   6.378   0.153   4.185  2.5470 -3.4464  0.8556
15361TIP3   OH267573   0.225   5.251  15.242 -0.0434 -0.1497  0.2368
15361TIP3    H167574   0.189   5.320  15.298  0.1892 -0.6988  1.0829
15361TIP3    H267575   0.301   5.218  15.291  0.5017 -0.2631 -0.6643
15362TIP3   OH267576   4.772   3.378   2.065 -0.3831  0.7621  0.1343
15362TIP3    H167577   4.796   3.286   2.070  0.2286  0.9661  1.0726
15362TIP3    H267578   4.804   3.407   1.979  1.2401  0.6014  0.6624
15363TIP3   OH267579   2.503   1.874  11.340  0.9506  0.1424 -0.3520
15363TIP3    H167580   2.455   1.946  11.299  1.8865  1.1908  0.3064
15363TIP3    H267581   2.540   1.824  11.267  0.7775  0.6819 -0.8122
15364TIP3   OH267582   3.506   2.028  10.844 -0.1322  0.4615 -0.1678
15364TIP3    H167583   3.481   2.053  10.755  1.4865  0.3141 -0.6988
15364TIP3    H267584   3.473   1.938  10.854  1.5780 -0.3777 -1.4850
15365TIP3   OH267585   0.496   1.651   4.343  0.1899  0.0846 -0.4647
15365TIP3    H167586   0.561   1.583   4.361  0.0750  0.2675  0.7554
15365TIP3    H267587   0.441   1.614   4.274  1.2737 -0.2706 -1.1696
15366TIP3   OH267588   3.541   1.420   5.916 -0.8160  0.5582 -0.4478
15366TIP3    H167589   3.568   1.458   5.999 -0.3993  1.9644 -1.1888
15366TIP3    H267590   3.471   1.359   5.939 -0.3737  0.5506  0.9682
15367TIP3   OH267591   6.558   1.652  11.213 -0.0154 -0.2628  0.9587
15367TIP3    H167592   6.608   1.595  11.272  1.0848  0.4149  0.7052
15367TIP3    H267593   6.601   1.737  11.219 -0.9723  0.2756  0.4993
15368TIP3   OH267594   4.190   2.315  15.614 -0.4432  0.6422 -0.3035
15368TIP3    H167595   4.238   2.379  15.562 -0.4086  0.2197 -0.7973
15368TIP3    H267596   4.207   2.232  15.571 -0.4892  0.2990  0.3380
15369TIP3   OH267597   5.976   0.662  11.522  0.6779 -0.0048 -0.4371
15369TIP3    H167598   6.025   0.653  11.441  0.8491 -0.9170 -0.2411
15369TIP3    H267599   5.991   0.753  11.549  1.7694 -0.0922 -0.6949
15370TIP3   OH267600   1.241   0.059  15.266  0.1639  0.1175  0.4207
15370TIP3    H167601   1.315   0.119  15.272  0.0513  0.2637  0.3438
15370TIP3    H267602   1.164   0.114  15.282  0.0183  0.1001 -0.2063
15371TIP3   OH267603   2.389   0.005  11.039 -0.1255 -0.4461  0.0070
15371TIP3    H167604   2.363  -0.085  11.018 -2.0660 -0.1570  0.9716
15371TIP3    H267605   2.383   0.051  10.955 -1.2233 -0.7567 -0.0988
15372TIP3   OH267606   4.757   4.615  13.453 -0.3921  0.6395 -0.1356
15372TIP3    H167607   4.814   4.660  13.391  0.2246 -0.5371 -0.4610
15372TIP3    H267608   4.816   4.587  13.524 -0.9403  1.2318  0.5665
15373TIP3   OH267609   5.871   4.481  12.776  0.0419  0.5914 -0.0998
15373TIP3    H167610   5.815   4.557  12.790 -0.4306  0.2989 -0.4107
15373TIP3    H267611   5.924   4.504  12.700 -2.0697 -0.4945 -2.0046
15374TIP3   OH267612   6.030   2.817   1.945 -0.8652  0.4950  0.2037
15374TIP3    H167613   5.985   2.776   1.872 -0.6245  0.1839  0.2251
15374TIP3    H267614   6.090   2.749   1.977  0.2830  1.1888 -0.4088
15375TIP3   OH267615   0.994   6.537  17.101 -0.0589  0.5427  0.7222
15375TIP3    H167616   1.006   6.542  17.196 -0.3214 -0.1210  0.7957
15375TIP3    H267617   1.072   6.579  17.065  0.8418 -0.6512  1.2202
15376TIP3   OH267618   5.330   6.509  14.799  0.2950  0.3323  0.0828
15376TIP3    H167619   5.327   6.415  14.821  0.0464  0.4854  0.7340
15376TIP3    H267620   5.304   6.553  14.881 -1.0794  0.9169 -0.6263
15377TIP3   OH267621   6.257   6.192  15.735 -0.1062  0.5553 -0.2254
15377TIP3    H167622   6.352   6.184  15.745 -0.4280 -0.9369  2.5833
15377TIP3    H267623   6.230   6.108  15.698 -0.5183  0.0490  1.1672
15378TIP3   OH267624   4.007   0.004  15.564  0.3903  0.2252 -0.0503
15378TIP3    H167625   4.015  -0.089  15.585  0.2980  0.0101 -0.9362
15378TIP3    H267626   4.086   0.044  15.601  0.4981 -0.2274  0.2129
15379TIP3   OH267627   2.471   4.378   5.530 -0.5472 -0.4103  0.8835
15379TIP3    H167628   2.477   4.449   5.594  0.6771 -0.5576  0.9526
15379TIP3    H267629   2.527   4.309   5.565 -0.6199 -0.8673  0.1243
15380TIP3   OH267630   4.577   1.417  12.406 -0.3360  0.8876  0.1984
15380TIP3    H167631   4.643   1.423  12.337 -0.5403  1.0471  0.0145
15380TIP3    H267632   4.550   1.325  12.406 -0.5595  0.9492 -0.1503
15381TIP3   OH267633   5.539   0.453  13.490  0.5862 -0.5673 -0.0008
15381TIP3    H167634   5.571   0.536  13.456  0.2444 -0.2197  0.5230
15381TIP3    H267635   5.615   0.395  13.490  0.6879 -0.4462 -0.9527
15382TIP3   OH267636   6.203   0.817  13.467 -0.0496 -0.0206 -0.2618
15382TIP3    H167637   6.113   0.843  13.489 -0.6606 -1.0286 -1.3875
15382TIP3    H267638   6.252   0.828  13.548 -0.8245  2.0122  0.0014
15383TIP3   OH267639   1.161   6.829   3.103  0.3724 -0.0405  0.5009
15383TIP3    H167640   1.236   6.827   3.044  0.4665 -0.3295  0.6237
15383TIP3    H267641   1.176   6.755   3.163  0.0516 -0.0273  0.6014
15384TIP3   OH267642   0.943   2.681  11.676 -0.3789 -0.2106 -0.0061
15384TIP3    H167643   0.978   2.738  11.607 -0.8298 -0.5861 -0.5512
15384TIP3    H267644   0.973   2.594  11.652  1.4311 -0.0778  1.5387
15385TIP3   OH267645   0.268   3.807   4.472 -0.5981 -0.0962 -0.0635
15385TIP3    H167646   0.295   3.716   4.460  2.1884  0.6870 -0.4503
15385TIP3    H267647   0.244   3.836   4.384 -0.5637 -0.2046 -0.1097
15386TIP3   OH267648   1.157   4.351   3.473  0.6428  0.1727 -0.6064
15386TIP3    H167649   1.109   4.429   3.445 -1.0802 -1.4463 -2.5049
15386TIP3    H267650   1.099   4.307   3.535  0.7100 -0.5653 -1.0449
15387TIP3   OH267651   4.937   1.262   1.693 -0.1099 -0.1561 -0.0422
15387TIP3    H167652   4.988   1.335   1.728 -1.1070  1.4856 -1.8078
15387TIP3    H267653   4.983   1.236   1.613 -0.7575 -0.2123 -0.4070
15388TIP3   OH267654   1.444   6.332  15.504 -0.1531  0.1360 -0.0398
15388TIP3    H167655   1.469   6.262  15.564 -0.1131 -1.2588 -1.6127
15388TIP3    H267656   1.393   6.393  15.558  0.3545 -0.7486  1.5159
15389TIP3   OH267657   6.373   3.601   3.607  0.0719  0.1616 -0.3361
15389TIP3    H167658   6.402   3.666   3.543 -2.0471  1.3723 -0.1408
15389TIP3    H267659   6.363   3.521   3.556  0.8295  0.4712 -0.9908
15390TIP3   OH267660   1.239   6.090   5.989 -0.5489 -0.5899 -0.3434
15390TIP3    H167661   1.169   6.052   6.042 -1.5257 -0.0717 -1.2297
15390TIP3    H267662   1.256   6.175   6.029 -0.7644 -0.5159 -0.4048
15391TIP3   OH267663   4.310   3.023  12.295  0.2182  0.5528 -0.1804
15391TIP3    H167664   4.393   3.001  12.338 -0.4394 -1.8539  0.0113
15391TIP3    H267665   4.262   3.074  12.360  0.5694 -0.2010  0.6936
15392TIP3   OH267666   6.273   4.340  12.075 -0.1599 -0.4454  0.2374
15392TIP3    H167667   6.309   4.267  12.024 -0.7860  0.1099 -1.0388
15392TIP3    H267668   6.203   4.376  12.020 -0.2294  0.7756  1.0840
15393TIP3   OH267669   0.397   4.070  13.351  0.4674 -0.0984 -0.1599
15393TIP3    H167670   0.491   4.071  13.333  0.6070  0.3494  0.5600
15393TIP3    H267671   0.389   4.020  13.432  0.0795 -0.1311 -0.2172
15394TIP3   OH267672   3.013   1.108  15.584 -0.5096  0.0796 -0.4584
15394TIP3    H167673   3.003   1.023  15.627 -0.3389 -0.1517 -0.8666
15394TIP3    H267674   2.999   1.090  15.491 -1.4423  0.6790 -0.4434
15395TIP3   OH267675   5.362   3.453  16.920 -0.1487 -0.3867 -0.7928
15395TIP3    H167676   5.366   3.428  17.012  1.1442  0.8522 -0.4807
15395TIP3    H267677   5.372   3.370  16.873 -1.5666 -1.1255  0.1500
15396TIP3   OH267678   6.190   6.485   4.839  0.3686 -0.2982  1.0837
15396TIP3    H167679   6.212   6.406   4.790 -0.4671 -0.0768  0.3183
15396TIP3    H267680   6.142   6.454   4.916  1.1596 -0.6103  1.4562
15397TIP3   OH267681   0.330   0.584   5.732 -0.1749 -0.6076 -0.6395
15397TIP3    H167682   0.407   0.532   5.757 -0.3722 -0.5226  0.1624
15397TIP3    H267683   0.344   0.669   5.772 -1.8869 -1.3540  1.7689
15398TIP3   OH267684   1.425   4.944  15.273 -0.1446 -0.1376  0.1611
15398TIP3    H167685   1.456   5.030  15.303  2.3442 -0.5366 -1.0707
15398TIP3    H267686   1.471   4.882  15.329  1.1531 -0.7468 -1.5218
15399TIP3   OH267687   1.811   6.439  12.921  0.0313  0.0920 -0.1202
15399TIP3    H167688   1.754   6.404  12.853 -0.2951  1.4766 -0.5994
15399TIP3    H267689   1.780   6.399  13.002 -0.8635 -0.0728 -0.5316
15400TIP3   OH267690   3.218   3.143  16.009  0.1512 -0.4546 -0.0689
15400TIP3    H167691   3.296   3.180  16.049  0.7046 -0.5342 -1.0522
15400TIP3    H267692   3.218   3.051  16.037  0.5040 -0.4968 -0.2035
15401TIP3   OH267693   1.651   0.242   2.617 -0.2893 -0.4435 -0.2125
15401TIP3    H167694   1.640   0.298   2.694  0.3328 -0.5640 -0.0356
15401TIP3    H267695   1.743   0.215   2.619 -0.1577 -0.1147 -1.2256
15402TIP3   OH267696   2.036   4.100  16.059  0.4856  0.0527 -0.4285
15402TIP3    H167697   1.959   4.047  16.082  1.8961 -3.9998 -3.7060
15402TIP3    H267698   2.000   4.177  16.015 -1.7285 -0.9937 -0.5786
15403TIP3   OH267699   3.631   3.317  12.085 -0.7073  0.1770  0.1738
15403TIP3    H167700   3.707   3.272  12.122 -1.4807 -0.7797  0.6483
15403TIP3    H267701   3.555   3.275  12.127 -1.4930  1.2909 -0.0863
15404TIP3   OH267702   2.819   0.086   1.992 -0.0169 -0.1171 -0.5816
15404TIP3    H167703   2.873   0.114   1.918 -1.1533  0.7693 -1.1048
15404TIP3    H267704   2.832   0.154   2.058 -1.2233  0.6568 -1.0926
15405TIP3   OH267705   5.213   0.222  11.131  0.3755  0.1845 -0.6161
15405TIP3    H167706   5.212   0.134  11.169 -0.3186  0.5308  0.2033
15405TIP3    H267707   5.298   0.258  11.158  0.0815  0.2599  0.2414
15406TIP3   OH267708   5.122   4.750  16.261 -0.3957  0.2939 -0.6957
15406TIP3    H167709   5.190   4.683  16.255  0.4680  1.0405  0.4228
15406TIP3    H267710   5.107   4.777  16.171 -0.3883 -1.0209 -1.1171
15407TIP3   OH267711   4.705   1.670   5.222  0.3578 -0.1439  0.0350
15407TIP3    H167712   4.756   1.590   5.235  1.8576  0.6821 -0.4993
15407TIP3    H267713   4.743   1.733   5.283 -1.0528  0.0946  0.7165
15408TIP3   OH267714   2.595   4.190   5.743 -0.1485 -0.5234 -0.2384
15408TIP3    H167715   2.603   4.096   5.729 -2.2048 -0.7807 -0.0485
15408TIP3    H267716   2.528   4.198   5.811  0.4160  1.0692  0.1723
15409TIP3   OH267717   5.252   1.953   3.094 -0.0803 -0.3709  0.4661
15409TIP3    H167718   5.252   1.878   3.155 -0.1783 -1.2469 -0.5734
15409TIP3    H267719   5.197   2.018   3.136 -2.7908 -2.1476 -0.0556
15410TIP3   OH267720   0.571   3.698  16.251 -0.2246  0.7181  0.2447
15410TIP3    H167721   0.597   3.686  16.159 -1.2492 -1.4110  0.1606
15410TIP3    H267722   0.521   3.779  16.252  1.0946  1.5793 -0.7668
15411TIP3   OH267723   6.085   2.753  14.922 -0.1341  0.1313  0.6280
15411TIP3    H167724   5.995   2.738  14.892  0.5644  1.1433 -2.3509
15411TIP3    H267725   6.079   2.829  14.979 -1.0990  0.8750 -0.4075
15412TIP3   OH267726   2.237   4.418  15.781 -0.5753  0.0276  1.0168
15412TIP3    H167727   2.319   4.406  15.828  0.6603  0.1820 -0.9950
15412TIP3    H267728   2.228   4.339  15.728 -0.2952  1.1557 -0.7931
15413TIP3   OH267729   5.340   4.822   1.495 -0.4470  0.2175 -0.1234
15413TIP3    H167730   5.430   4.820   1.526  0.0708 -0.0310 -1.5919
15413TIP3    H267731   5.289   4.791   1.570  0.8857 -1.6231  0.0856
15414TIP3   OH267732   6.544   1.693  15.258 -0.5003 -0.3690 -0.1097
15414TIP3    H167733   6.567   1.768  15.312 -2.3241 -0.1008  0.3652
15414TIP3    H267734   6.473   1.725  15.201 -0.6494 -1.4652 -0.5702
15415TIP3   OH267735   1.694   6.665   4.634  0.1863  0.0928 -0.0679
15415TIP3    H167736   1.786   6.682   4.616  0.5914 -1.2846  0.5892
15415TIP3    H267737   1.649   6.691   4.554  1.1113  0.9936 -0.3113
15416TIP3   OH267738   1.115   1.810   5.340  0.6916 -0.3431  0.7483
15416TIP3    H167739   1.125   1.764   5.256  0.2262  2.4352 -0.9584
15416TIP3    H267740   1.199   1.852   5.355  0.1144  0.9236  0.5281
15417TIP3   OH267741   4.734   6.262  12.485  0.1196  0.4589  0.7146
15417TIP3    H167742   4.826   6.239  12.471  0.0262  0.4614  0.1012
15417TIP3    H267743   4.725   6.263  12.580  0.6137 -0.0965  0.7754
15418TIP3   OH267744   2.787   4.753  14.646 -0.2367  0.6258  0.6247
15418TIP3    H167745   2.728   4.790  14.711  1.1839  2.0521  1.1732
15418TIP3    H267746   2.842   4.827  14.618  1.9425 -0.7943  0.8827
15419TIP3   OH267747   2.892   3.423  16.950  0.0877 -0.4071 -0.2821
15419TIP3    H167748   2.886   3.435  16.856  3.3388 -0.5950 -0.6148
15419TIP3    H267749   2.933   3.338  16.961  0.3860 -0.0961  1.2764
15420TIP3   OH267750   5.768   5.654  12.703  0.2502 -0.5955  0.1462
15420TIP3    H167751   5.736   5.671  12.615 -2.6694 -1.4888  0.9386
15420TIP3    H267752   5.836   5.721  12.717  1.3686 -0.8948 -2.9762
15421TIP3   OH267753   0.925   1.027  11.621 -0.1070  0.0445 -0.2348
15421TIP3    H167754   0.874   1.104  11.595  0.7332  0.5562 -0.3830
15421TIP3    H267755   0.891   1.004  11.708 -0.9147  0.0855 -0.5252
15422TIP3   OH267756   3.815   1.741   3.262  0.3339 -0.2443  0.1450
15422TIP3    H167757   3.881   1.692   3.213 -0.5477 -1.8980  0.5210
15422TIP3    H267758   3.861   1.772   3.340  1.7558  2.4111 -1.5791
15423TIP3   OH267759   3.381   0.045   4.703  0.0445 -0.1623 -0.0795
15423TIP3    H167760   3.358  -0.047   4.700  0.8590 -0.5571  2.6276
15423TIP3    H267761   3.428   0.055   4.786  0.6781  2.5328 -0.6654
15424TIP3   OH267762   3.194   3.897   0.763  0.2192 -0.3679 -0.4113
15424TIP3    H167763   3.112   3.857   0.791  0.1174 -0.2650 -0.5591
15424TIP3    H267764   3.262   3.840   0.798  0.0932 -0.2765 -0.0101
15425TIP3   OH267765   0.551   1.046   5.954  0.2447  0.9206  0.2157
15425TIP3    H167766   0.621   1.109   5.971  2.6097 -1.1059 -1.3105
15425TIP3    H267767   0.501   1.043   6.036  2.6867  1.5670  1.8280
15426TIP3   OH267768   0.052   4.065  11.551  0.2393 -0.0301  0.0999
15426TIP3    H167769  -0.004   4.105  11.483  0.1602 -0.5989 -0.1821
15426TIP3    H267770   0.045   3.971  11.534  1.7176 -0.0914 -0.2783
15427TIP3   OH267771   5.868   1.732  16.232  0.1140  0.2500 -0.0971
15427TIP3    H167772   5.816   1.657  16.260  0.9730  0.2300  1.5462
15427TIP3    H267773   5.806   1.805  16.229 -0.6346 -0.4085 -1.2666
15428TIP3   OH267774   4.875   0.926   3.954 -0.1748  0.5956 -0.0800
15428TIP3    H167775   4.956   0.965   3.988 -1.0153  3.4908 -1.0963
15428TIP3    H267776   4.887   0.922   3.860 -1.1246  0.8715 -0.2280
15429TIP3   OH267777   2.687   6.850   6.131 -0.1467 -0.7770  0.1767
15429TIP3    H167778   2.698   6.870   6.224  0.1818  0.7411 -0.1598
15429TIP3    H267779   2.737   6.769   6.118  0.2972 -0.6875  1.1977
15430TIP3   OH267780   6.527   6.111   5.899 -0.6633  0.3099  0.0609
15430TIP3    H167781   6.440   6.100   5.860 -0.9590 -0.1571  0.8395
15430TIP3    H267782   6.519   6.190   5.952 -0.6002  0.2920  0.0963
15431TIP3   OH267783   5.431   5.227  11.737 -0.4558 -0.3176 -0.1044
15431TIP3    H167784   5.359   5.226  11.673 -1.0364  1.3082  0.4577
15431TIP3    H267785   5.401   5.287  11.806 -0.0193 -2.2685  1.9196
15432TIP3   OH267786   6.424   5.186  11.938 -0.2561 -0.2497 -0.2597
15432TIP3    H167787   6.499   5.245  11.927 -0.2268 -0.2218  0.0578
15432TIP3    H267788   6.432   5.123  11.866  0.9987 -1.2227  0.6590
15433TIP3   OH267789   2.708   3.079   0.722  0.3120  0.9798  0.2943
15433TIP3    H167790   2.679   3.144   0.658  0.5889  0.4685 -0.3704
15433TIP3    H267791   2.754   3.129   0.789  2.9648  1.2495 -1.5840
15434TIP3   OH267792   0.039   5.179  13.529 -0.3507 -0.1523  0.0711
15434TIP3    H167793   0.023   5.253  13.588  0.2223  0.6035 -0.6793
15434TIP3    H267794   0.110   5.130  13.571 -0.2690  0.1094  0.2422
15435TIP3   OH267795   2.781   3.346   4.060  0.6451  0.4965  0.2352
15435TIP3    H167796   2.791   3.259   4.022 -0.7363 -0.8193  2.6085
15435TIP3    H267797   2.789   3.406   3.986  1.2905 -1.6416 -1.5401
15436TIP3   OH267798   0.820   2.073   4.565  0.4555 -0.0073  0.2826
15436TIP3    H167799   0.783   2.005   4.509  1.3886 -1.3542  1.2456
15436TIP3    H267800   0.874   2.126   4.506 -0.7924  0.3199 -0.6014
15437TIP3   OH267801   4.045   0.885   1.487  0.0948  0.1950 -0.2855
15437TIP3    H167802   4.129   0.891   1.532 -0.4154  1.4599  0.5325
15437TIP3    H267803   3.980   0.907   1.553 -0.8656 -0.4466 -0.9909
15438TIP3   OH267804   4.417   6.044  16.258  0.2681 -0.1237  0.6833
15438TIP3    H167805   4.402   6.069  16.167  0.2439 -0.6764  0.5333
15438TIP3    H267806   4.495   6.093  16.284 -0.8850  1.6348  1.0072
15439TIP3   OH267807   0.987   0.359   1.110 -0.0556 -0.1202 -0.3785
15439TIP3    H167808   1.008   0.451   1.130  1.4801 -0.5315  0.0329
15439TIP3    H267809   1.011   0.349   1.018 -0.0784 -0.1517 -0.3811
15440TIP3   OH267810   1.996   6.656   5.969  0.6111 -0.3692  0.0748
15440TIP3    H167811   2.044   6.582   6.004  0.6031 -0.4856 -0.1558
15440TIP3    H267812   1.937   6.618   5.903  0.0078 -0.2660  0.5475
15441TIP3   OH267813   1.868   6.638  14.081  0.2384 -0.0612 -0.1183
15441TIP3    H167814   1.873   6.649  13.986 -3.4198 -0.1273 -0.4556
15441TIP3    H267815   1.818   6.713  14.112 -0.7381 -1.2555  1.3775
15442TIP3   OH267816   4.942   5.517  15.982  0.6959  0.3198  0.0165
15442TIP3    H167817   4.925   5.427  15.956  1.2765  0.2552 -0.1739
15442TIP3    H267818   4.856   5.555  15.998  0.5133 -0.7868  1.9194
15443TIP3   OH267819   4.256   5.410  11.503  0.0954 -0.4218  0.1982
15443TIP3    H167820   4.188   5.469  11.535  1.1650 -0.1116  2.0140
15443TIP3    H267821   4.238   5.401  11.409 -0.8988  1.6798  0.1410
15444TIP3   OH267822   5.504   4.752  12.344  0.0063  0.0442  0.8039
15444TIP3    H167823   5.410   4.736  12.335  0.2280 -0.5834 -0.7425
15444TIP3    H267824   5.545   4.667  12.329  0.8636  0.4988  0.5081
15445TIP3   OH267825   1.442   5.988  16.074  0.1762  0.0801 -0.3752
15445TIP3    H167826   1.409   5.919  16.132 -0.4168  0.1710 -0.5897
15445TIP3    H267827   1.531   6.005  16.105 -0.6712  1.3010  1.6059
15446TIP3   OH267828   5.767   1.429   2.915  0.3206 -0.0501  0.2221
15446TIP3    H167829   5.808   1.366   2.974  2.7230  0.1680 -1.0805
15446TIP3    H267830   5.766   1.385   2.830  1.2771  1.3372 -0.5371
15447TIP3   OH267831   3.743   4.777  14.233 -0.1453  0.2091 -0.3387
15447TIP3    H167832   3.715   4.760  14.323 -0.5364  1.8673 -0.1139
15447TIP3    H267833   3.685   4.847  14.203  0.5860  0.3100 -1.5761
15448TIP3   OH267834   3.452   6.003  16.083 -0.2418  0.0596  0.5406
15448TIP3    H167835   3.398   5.931  16.049  1.3514 -0.4590 -1.1219
15448TIP3    H267836   3.392   6.076  16.093 -1.0855  0.0156 -2.8068
15449TIP3   OH267837   5.071   6.049   1.175  0.0433 -0.1462  0.0583
15449TIP3    H167838   5.037   6.138   1.185  1.4447  0.9710 -3.4928
15449TIP3    H267839   4.998   5.998   1.141 -0.7449 -0.4308  2.0395
15450TIP3   OH267840   5.253   0.008  16.369  0.4561  0.3014  0.4079
15450TIP3    H167841   5.231  -0.083  16.353  0.2908  0.4424 -0.2185
15450TIP3    H267842   5.349   0.011  16.366  0.4465  0.2419 -0.1710
15451TIP3   OH267843   1.193   6.480  11.173  0.2640  0.2857 -0.1785
15451TIP3    H167844   1.165   6.479  11.082 -0.9101  1.6340  0.1501
15451TIP3    H267845   1.128   6.532  11.219 -0.5370 -2.3241  1.9130
15452TIP3   OH267846   5.919   5.926  10.687 -0.1135 -0.1868 -0.4067
15452TIP3    H167847   5.918   5.996  10.621  2.3032 -1.6768 -2.2210
15452TIP3    H267848   5.870   5.855  10.647 -0.2629 -0.4449  0.2363
15453TIP3   OH267849   0.159   3.176   4.230  0.0905  0.1081 -0.1271
15453TIP3    H167850   0.068   3.161   4.205 -0.7409 -0.2507  2.7639
15453TIP3    H267851   0.158   3.261   4.275  1.3070  0.3638 -0.5402
15454TIP3   OH267852   1.386   2.845   0.140  0.4399 -0.2146  0.2069
15454TIP3    H167853   1.297   2.878   0.131  0.8861  1.3026  1.1276
15454TIP3    H267854   1.420   2.844   0.051 -0.4014 -0.5659 -0.1203
15455TIP3   OH267855   2.270   0.061   1.165  0.1171 -0.1129  0.3791
15455TIP3    H167856   2.301   0.151   1.165  2.3678 -0.8286  1.1523
15455TIP3    H267857   2.255   0.041   1.072  0.9767  0.6174  0.0649
15456TIP3   OH267858   3.833   4.278  11.840  0.8091 -0.3791 -0.3091
15456TIP3    H167859   3.841   4.227  11.759  1.7349  0.1789 -0.5928
15456TIP3    H267860   3.893   4.234  11.901  0.5879 -0.4235 -0.1232
15457TIP3   OH267861   0.048   2.619   3.077  0.3843  0.1184 -0.0511
15457TIP3    H167862   0.020   2.704   3.112  1.3847 -0.3151  1.9504
15457TIP3    H267863   0.037   2.627   2.982  0.2195  2.3853  0.1137
15458TIP3   OH267864   1.831   1.166   4.669  0.0308  0.2817 -0.0988
15458TIP3    H167865   1.754   1.117   4.696 -0.6755  0.9128 -0.8921
15458TIP3    H267866   1.879   1.106   4.611 -0.5784  0.3465 -0.6847
15459TIP3   OH267867   2.115   2.398   3.150  0.0608  0.5798  0.5877
15459TIP3    H167868   2.073   2.359   3.227  1.7338 -0.6081  0.9490
15459TIP3    H267869   2.187   2.339   3.129  1.8419  2.7083  0.2686
15460TIP3   OH267870   3.079   2.444  16.805 -0.0353 -0.7093 -0.0961
15460TIP3    H167871   3.005   2.424  16.862  0.5266 -1.4657  0.3997
15460TIP3    H267872   3.153   2.454  16.865  0.4927 -1.1423 -0.6589
15461TIP3   OH267873   6.739   3.771   6.318  0.9039  0.1487 -0.1314
15461TIP3    H167874   6.832   3.751   6.319  0.3858 -2.6449  0.9402
15461TIP3    H267875   6.735   3.867   6.323  3.6803  0.5612 -2.8064
15462TIP3   OH267876   2.377   6.650   6.150  0.6002 -0.6611  0.3139
15462TIP3    H167877   2.317   6.591   6.105  0.5347  0.1194 -0.6400
15462TIP3    H267878   2.373   6.623   6.242 -3.5215  1.2157  0.8973
15463TIP3   OH267879   2.539   1.521   3.149 -0.2179 -0.0031  0.1374
15463TIP3    H167880   2.614   1.461   3.143  0.1152  0.2535  1.4617
15463TIP3    H267881   2.559   1.578   3.223 -1.9027 -0.1827  0.7866
15464TIP3   OH267882   1.150   6.310  12.530  0.1436  0.2258  0.3498
15464TIP3    H167883   1.116   6.310  12.440 -0.0341 -0.1305  0.4144
15464TIP3    H267884   1.208   6.234  12.534 -2.0266 -1.5036  1.3254
15465TIP3   OH267885   4.718   4.682  16.888  0.1696 -0.8460  0.0942
15465TIP3    H167886   4.787   4.735  16.848 -0.6839 -0.7386 -1.3238
15465TIP3    H267887   4.756   4.650  16.970  1.7895 -0.5716 -0.5149
15466TIP3   OH267888   0.843   0.139  12.537  0.3758  0.6017  0.3667
15466TIP3    H167889   0.798   0.058  12.514  0.7195 -0.5123  3.2691
15466TIP3    H267890   0.912   0.148  12.470 -0.8010 -0.4556 -1.0631
15467TIP3   OH267891   0.816   4.569  16.467  0.4837 -0.0593  0.4890
15467TIP3    H167892   0.807   4.524  16.383  0.3298 -0.3587  0.6658
15467TIP3    H267893   0.866   4.648  16.446 -0.2387  0.2699 -0.0203
15468TIP3   OH267894   3.100   3.245   2.121 -0.5681  0.3832  0.0126
15468TIP3    H167895   3.172   3.302   2.094 -0.2055  0.4994  1.1792
15468TIP3    H267896   3.117   3.226   2.213 -0.7594 -1.5246 -0.3160
15469TIP3   OH267897   6.547   4.042   4.094  0.0645 -0.2085  0.3191
15469TIP3    H167898   6.634   4.029   4.131  0.2856  1.6634  0.5337
15469TIP3    H267899   6.537   3.970   4.031  2.0244 -0.1110 -0.1746
15470TIP3   OH267900   6.387   1.201   5.297 -0.1691  0.5099  0.0540
15470TIP3    H167901   6.461   1.253   5.327  0.2582 -0.3283  0.4567
15470TIP3    H267902   6.375   1.228   5.205 -0.0639  1.4277  0.2984
15471TIP3   OH267903   0.946   0.144   4.608  0.5002 -0.4787 -1.0499
15471TIP3    H167904   1.014   0.190   4.559  0.5303 -0.0022 -0.5669
15471TIP3    H267905   0.877   0.210   4.621 -0.5817 -1.2377 -2.5012
15472TIP3   OH267906   6.629   0.434  15.784  0.3478 -0.0623 -0.0221
15472TIP3    H167907   6.723   0.449  15.796  0.3701 -0.1042 -0.1418
15472TIP3    H267908   6.619   0.421  15.690  0.5000 -1.8961  0.1748
15473TIP3   OH267909   3.311   3.937  12.157 -0.0293  0.3595  0.4393
15473TIP3    H167910   3.349   3.851  12.177  0.4895  0.6524  0.7276
15473TIP3    H267911   3.334   3.953  12.066 -2.6010 -1.0868 -0.5834
15474TIP3   OH267912   0.074   2.048  16.539  0.7328 -0.3141 -0.6978
15474TIP3    H167913   0.078   1.960  16.502 -2.5132 -0.5602 -0.7104
15474TIP3    H267914   0.008   2.042  16.608 -0.7395  2.4127 -1.7188
15475TIP3   OH267915   1.423   6.243  15.960 -0.6806  0.5596 -0.4099
15475TIP3    H167916   1.455   6.164  16.003 -0.8967  1.0057  0.5999
15475TIP3    H267917   1.430   6.311  16.027 -0.4295  1.4186 -1.2845
15476TIP3   OH267918   5.363   2.069  16.809 -0.0354  0.1480 -0.3025
15476TIP3    H167919   5.372   2.107  16.722 -2.5959 -0.5327 -0.9618
15476TIP3    H267920   5.331   1.980  16.794  0.1916 -0.2461  1.3218
15477TIP3   OH267921   4.709   6.567  16.999  0.3067 -0.7391 -0.0352
15477TIP3    H167922   4.802   6.577  16.979  0.4337 -2.0911 -0.2177
15477TIP3    H267923   4.699   6.601  17.088  0.3372  2.4103 -1.1123
15478TIP3   OH267924   2.063   0.381  13.547  0.2353 -0.2190  0.2014
15478TIP3    H167925   2.039   0.453  13.605 -0.9283 -0.0826 -0.4302
15478TIP3    H267926   2.060   0.418  13.459  1.1760 -0.6428 -0.0218
15479TIP3   OH267927   6.348   0.754  15.329  0.0339  0.1590  0.4771
15479TIP3    H167928   6.284   0.803  15.277  0.3746  1.1487  0.9696
15479TIP3    H267929   6.404   0.821  15.367  0.4323 -0.6126  1.2776
15480TIP3   OH267930   6.386   2.082  11.043 -0.2338  0.2495 -0.1127
15480TIP3    H167931   6.338   2.000  11.054  2.2890 -1.4771 -0.9477
15480TIP3    H267932   6.370   2.108  10.952  1.0424 -0.8254 -0.6764
15481TIP3   OH267933   6.778   5.062   0.237  0.9012  0.4602 -0.0745
15481TIP3    H167934   6.821   5.122   0.297 -0.7574  0.7549  0.8844
15481TIP3    H267935   6.850   5.017   0.192  2.2972 -1.0311  3.3100
15482TIP3   OH267936   5.712   6.527  14.931 -0.0803  0.6657 -0.1689
15482TIP3    H167937   5.764   6.559  15.004 -1.5973  1.3200  0.6697
15482TIP3    H267938   5.629   6.499  14.970 -0.0628 -1.2134 -1.3349
15483TIP3   OH267939   3.329   3.893  15.924  0.5121  0.2556  0.4870
15483TIP3    H167940   3.235   3.910  15.917  0.4832 -0.1582 -0.1872
15483TIP3    H267941   3.366   3.933  15.845  0.8195 -0.1516  0.4236
15484TIP3   OH267942   4.430   5.921   1.953 -0.1629 -0.0844  0.2154
15484TIP3    H167943   4.452   5.949   2.041 -0.8984  0.2640  0.3014
15484TIP3    H267944   4.358   5.979   1.927 -0.2749 -0.4996 -0.4243
15485TIP3   OH267945   0.938   6.090   0.772  0.6172  0.3669 -0.2447
15485TIP3    H167946   0.949   6.183   0.788  1.3976  0.5351 -1.5907
15485TIP3    H267947   1.026   6.053   0.782  0.2804 -0.2912  0.5124
15486TIP3   OH267948   3.712   0.042  14.877 -0.3421 -0.0280  0.0962
15486TIP3    H167949   3.741  -0.036  14.925  0.9444  0.4205  0.0751
15486TIP3    H267950   3.791   0.094  14.865 -1.1877  1.3378  0.1744
15487TIP3   OH267951   2.994   2.862   4.890  0.4204  0.3657  0.1791
15487TIP3    H167952   3.036   2.790   4.842 -0.1012  0.9900 -1.2793
15487TIP3    H267953   3.047   2.872   4.969  0.2224 -1.9159  0.6548
15488TIP3   OH267954   1.404   6.157  11.095 -0.3049  0.2529 -0.0343
15488TIP3    H167955   1.377   6.126  11.009 -0.6940 -0.1648  0.2336
15488TIP3    H267956   1.416   6.251  11.084 -0.6345  0.2445 -0.4735
15489TIP3   OH267957   6.686   5.462  14.628 -0.0837  0.0691 -0.1527
15489TIP3    H167958   6.615   5.408  14.661  0.2946 -1.6272 -1.9172
15489TIP3    H267959   6.646   5.515  14.559 -0.0773  0.7218  0.3413
15490TIP3   OH267960   3.911   1.659   5.456 -0.9561  0.3631  0.4546
15490TIP3    H167961   3.933   1.719   5.527 -0.5600 -1.7041  2.1594
15490TIP3    H267962   3.933   1.573   5.489 -1.3724 -0.7617 -1.9649
15491TIP3   OH267963   3.028   1.213  14.571  0.9290  0.6134 -0.7385
15491TIP3    H167964   3.020   1.128  14.527  1.1667 -0.3207  0.9296
15491TIP3    H267965   3.038   1.191  14.664 -1.9001  2.5550  0.1404
15492TIP3   OH267966   5.799   4.295  10.612 -0.5306 -0.4098 -0.4012
15492TIP3    H167967   5.841   4.222  10.565  1.2622  0.3858 -0.1281
15492TIP3    H267968   5.768   4.255  10.694 -0.0403 -0.9960 -0.4886
15493TIP3   OH267969   2.432   0.711   3.656 -0.4156  0.3247 -0.7691
15493TIP3    H167970   2.407   0.625   3.622 -0.8250 -0.2044  0.8008
15493TIP3    H267971   2.484   0.750   3.585 -1.1712 -0.7390 -1.9593
15494TIP3   OH267972   0.177   2.114  16.115  0.1080 -0.4867  0.5135
15494TIP3    H167973   0.215   2.146  16.197 -1.2341  2.0776  0.2227
15494TIP3    H267974   0.116   2.045  16.143 -0.0705  0.1024  1.6304
15495TIP3   OH267975   2.990   4.091  13.014  0.0029  0.6825  0.2782
15495TIP3    H167976   3.054   4.105  13.083  0.0271 -1.7218  0.8276
15495TIP3    H267977   2.920   4.042  13.055 -2.9570  4.2602  0.0099
15496TIP3   OH267978   6.325   4.178   4.174 -0.2138  0.1015 -0.4274
15496TIP3    H167979   6.333   4.173   4.269 -0.5246  2.4316 -0.2097
15496TIP3    H267980   6.392   4.118   4.141 -0.5085 -1.2213  1.2214
15497TIP3   OH267981   3.374   4.290  14.465  0.1642  0.4425 -0.0853
15497TIP3    H167982   3.290   4.333  14.481  0.4541  0.1492  2.9948
15497TIP3    H267983   3.351   4.199  14.447 -0.2372  0.7639 -1.2404
15498TIP3   OH267984   5.264   3.873   2.663  0.2469  0.4638 -0.5299
15498TIP3    H167985   5.250   3.927   2.741 -0.6614 -0.2152 -0.2150
15498TIP3    H267986   5.338   3.915   2.619  2.1836 -0.3034  1.7307
15499TIP3   OH267987   5.962   2.793   3.464  0.4459  0.2230 -0.1569
15499TIP3    H167988   5.952   2.832   3.377 -1.0284 -1.2013 -0.6882
15499TIP3    H267989   5.889   2.830   3.514 -0.2447 -0.8817 -0.3168
15500TIP3   OH267990   3.293   2.207  16.645 -0.0517 -0.3706 -0.3061
15500TIP3    H167991   3.315   2.151  16.719 -0.8364  0.0658  0.2646
15500TIP3    H267992   3.314   2.296  16.675 -0.6718 -0.1609 -0.4857
15501TIP3   OH267993   1.665   5.336   2.935  0.3289  0.8361 -0.3780
15501TIP3    H167994   1.595   5.375   2.883  0.5031  1.5550 -0.0874
15501TIP3    H267995   1.620   5.280   2.999 -0.1828  3.0361  1.3152
15502TIP3   OH267996   6.249   0.966   3.901 -0.5520 -0.1479  0.6938
15502TIP3    H167997   6.284   0.917   3.826  0.4537  0.2488  0.8857
15502TIP3    H267998   6.284   1.055   3.890  1.0596 -0.4967  2.5294
15503TIP3   OH267999   1.298   4.907  12.891  0.0228  0.3631  0.3833
15503TIP3    H168000   1.238   4.929  12.962  0.6390  0.4648  0.8808
15503TIP3    H268001   1.247   4.852  12.832 -0.5470  0.4198  0.8194
15504TIP3   OH268002   2.405   4.242   0.469 -0.3937 -0.5779  0.0074
15504TIP3    H168003   2.389   4.234   0.563 -2.2410  0.7293 -0.1375
15504TIP3    H268004   2.425   4.153   0.440 -1.5221 -1.3130  1.3666
15505TIP3   OH268005   4.646   3.282  13.137 -0.0287 -0.1672 -0.6130
15505TIP3    H168006   4.691   3.338  13.201  1.8741 -0.6762 -1.4535
15505TIP3    H268007   4.560   3.323  13.126  1.2304  2.5573 -1.0951
15506TIP3   OH268008   2.085   2.286  10.941 -0.3500  0.3452  0.2615
15506TIP3    H168009   2.164   2.338  10.924 -1.6139  1.9267 -1.2083
15506TIP3    H268010   2.117   2.203  10.976  1.9891  0.7111 -0.8397
15507TIP3   OH268011   1.004   3.327   3.820  0.2412 -0.4099 -0.5107
15507TIP3    H168012   0.951   3.406   3.832  0.7224  0.1263 -1.7260
15507TIP3    H268013   1.033   3.332   3.729  1.1816 -1.4369 -0.2838
15508TIP3   OH268014   4.774   2.692   2.402 -0.2116  0.2932 -0.4166
15508TIP3    H168015   4.782   2.771   2.455  2.1530 -0.0054 -0.2251
15508TIP3    H268016   4.861   2.679   2.364 -0.1030 -2.8965  0.5525
15509TIP3   OH268017   5.242   1.806  10.101 -0.0365 -0.2015 -0.5777
15509TIP3    H168018   5.175   1.874  10.112 -0.1433 -0.3325 -0.4010
15509TIP3    H268019   5.246   1.763  10.186 -1.0656 -1.4216 -1.1148
15510TIP3   OH268020   5.081   2.163  16.156  0.0993  0.1719  0.1551
15510TIP3    H168021   5.023   2.168  16.081 -1.5941  0.4996  1.4221
15510TIP3    H268022   5.090   2.253  16.186  0.5790  0.0211  0.4906
15511TIP3   OH268023   3.332   6.282   6.388 -0.1795 -0.4916  0.2833
15511TIP3    H168024   3.253   6.252   6.433  0.2530 -0.3139  1.1768
15511TIP3    H268025   3.404   6.238   6.434  0.2922 -0.1085 -0.0766
15512TIP3   OH268026   3.783   1.371  14.052 -0.3590  0.5740  0.0651
15512TIP3    H168027   3.836   1.368  14.131  0.4338  2.7644 -0.3220
15512TIP3    H268028   3.696   1.342  14.081  0.1919  0.2320  1.4638
15513TIP3   OH268029   2.857   2.623  15.391 -0.2075 -0.0975  0.1960
15513TIP3    H168030   2.845   2.702  15.339 -2.1865 -2.2664 -3.0545
15513TIP3    H268031   2.945   2.592  15.367 -0.3770 -0.1085 -0.4240
15514TIP3   OH268032   1.390   3.466  14.327  0.0452 -0.4586 -0.1721
15514TIP3    H168033   1.388   3.406  14.401 -1.6095 -0.5639 -0.2645
15514TIP3    H268034   1.337   3.541  14.355 -0.9298 -0.6751 -1.3530
15515TIP3   OH268035   3.119   2.030  13.831 -0.2171  0.7544  0.1412
15515TIP3    H168036   3.105   2.103  13.770  1.9294  0.9827 -0.1364
15515TIP3    H268037   3.099   2.067  13.917  1.6189  1.9503  0.0952
15516TIP3   OH268038   5.763   2.451   5.262 -0.1113 -0.0183 -0.3447
15516TIP3    H168039   5.805   2.434   5.346  0.1754 -0.0893 -0.5002
15516TIP3    H268040   5.813   2.398   5.199 -0.5000 -0.1863 -0.5153
15517TIP3   OH268041   0.681   2.008   2.858  0.0097  0.5011  0.2650
15517TIP3    H168042   0.673   2.024   2.953 -1.1917  0.7537  0.1447
15517TIP3    H268043   0.671   1.913   2.850  1.1481  0.3454  0.4619
15518TIP3   OH268044   0.517   2.500  11.862  0.3463  0.1729  0.3681
15518TIP3    H168045   0.486   2.590  11.859  2.8498  1.1272  0.0557
15518TIP3    H268046   0.456   2.451  11.808  0.6211  2.3130 -2.0715
15519TIP3   OH268047   0.719   6.074  14.185  0.1716 -0.1089 -0.5433
15519TIP3    H168048   0.799   6.125  14.196  0.0505  0.1983 -1.0475
15519TIP3    H268049   0.733   6.026  14.103 -0.6015  0.7938 -1.2248
15520TIP3   OH268050   1.840   5.129   4.888 -0.1244 -0.6949 -0.1876
15520TIP3    H168051   1.871   5.177   4.811  0.6620 -1.5345 -0.4086
15520TIP3    H268052   1.779   5.189   4.930 -1.1620 -0.4884 -1.8776
15521TIP3   OH268053   5.150   5.301  11.808 -0.1020 -0.2386  0.1744
15521TIP3    H168054   5.094   5.379  11.799 -0.0132 -0.1956  0.0007
15521TIP3    H268055   5.192   5.291  11.723  0.5479  0.0313  0.4565
15522TIP3   OH268056   5.237   2.728   3.164  0.7063 -0.5378  0.3807
15522TIP3    H168057   5.189   2.741   3.082  1.4398 -2.0695 -0.3215
15522TIP3    H268058   5.262   2.816   3.191  0.4379  0.0009 -1.0290
15523TIP3   OH268059   3.658   6.310   1.210 -0.3913 -0.0973  0.4578
15523TIP3    H168060   3.660   6.214   1.207 -0.2350 -0.1098  0.8989
15523TIP3    H268061   3.683   6.336   1.122  0.8070 -0.4619  0.6718
15524TIP3   OH268062   1.321   5.805  11.837  0.6575 -0.0651 -0.1605
15524TIP3    H168063   1.285   5.893  11.850  1.8221  0.2893  0.8626
15524TIP3    H268064   1.285   5.753  11.909 -0.6358 -0.6601 -1.1910
15525TIP3   OH268065   4.677   3.048  12.173  0.6312  0.4878  0.3979
15525TIP3    H168066   4.635   3.040  12.259  1.0309 -0.4935  0.5217
15525TIP3    H268067   4.730   3.127  12.179  0.8679  0.2775  1.1610
15526TIP3   OH268068   0.136   2.275  12.641  0.4643 -0.3530 -0.3667
15526TIP3    H168069   0.072   2.287  12.711 -0.0790 -1.7163 -0.6002
15526TIP3    H268070   0.086   2.279  12.560  0.6707 -1.3745 -0.5539
15527TIP3   OH268071   0.848   5.870   6.015 -0.0988  0.4998  0.0111
15527TIP3    H168072   0.847   5.841   6.107 -0.6428  3.8927  1.2025
15527TIP3    H268073   0.755   5.878   5.992 -0.0054 -1.4887 -1.3585
15528TIP3   OH268074   3.136   3.262  16.701 -0.4552  0.3440  0.1883
15528TIP3    H168075   3.157   3.353  16.721 -0.3750  0.3118  0.2493
15528TIP3    H268076   3.040   3.259  16.702 -0.4566  0.4112  0.2583
15529TIP3   OH268077   5.068   5.836  16.153 -0.1908  0.2892  0.0148
15529TIP3    H168078   5.063   5.746  16.185 -1.0085  1.0929  2.3009
15529TIP3    H268079   5.034   5.831  16.063 -1.8597 -1.4178  0.6827
15530TIP3   OH268080   1.304   4.732   5.905  0.7615  0.3897  0.2010
15530TIP3    H168081   1.363   4.806   5.891  2.5258 -1.2195 -1.4277
15530TIP3    H268082   1.342   4.661   5.853 -2.1497 -1.0156 -0.1625
15531TIP3   OH268083   5.628   0.930   0.549  0.1925 -0.3237 -0.0003
15531TIP3    H168084   5.559   0.866   0.528 -0.0469  0.1905 -0.8365
15531TIP3    H268085   5.580   1.010   0.571  0.5251  0.0445 -0.6052
15532TIP3   OH268086   1.706   0.755  14.737  0.1819 -0.0854  0.0109
15532TIP3    H168087   1.680   0.702  14.661 -0.7957 -0.3420  0.5062
15532TIP3    H268088   1.636   0.820  14.746 -0.3090 -0.7554  1.3459
15533TIP3   OH268089   2.367   6.158  11.746 -0.2634 -0.2554  0.4261
15533TIP3    H168090   2.427   6.112  11.688 -0.3128 -0.0399  0.2033
15533TIP3    H268091   2.418   6.173  11.826  0.7246  1.8326 -0.5179
15534TIP3   OH268092   1.345   5.537   4.056  0.5413  0.7808 -0.1142
15534TIP3    H168093   1.394   5.525   4.137  1.4412 -1.6235 -0.9415
15534TIP3    H268094   1.259   5.500   4.074  1.1998 -1.0809 -0.6477
15535TIP3   OH268095   1.043   6.765   4.025  0.0736  0.5494  0.0458
15535TIP3    H168096   0.996   6.820   4.087  0.2111 -0.4602  1.0879
15535TIP3    H268097   1.108   6.719   4.078  0.1699 -0.3751 -0.8376
15536TIP3   OH268098   3.073   4.442  16.303  0.1345 -0.2535  0.2671
15536TIP3    H168099   3.124   4.509  16.349  0.6110 -0.7349  0.4476
15536TIP3    H268100   2.985   4.478  16.299  0.5243  0.6913 -0.2324
15537TIP3   OH268101   5.205   2.773  16.513  0.4682  0.5396  0.2090
15537TIP3    H168102   5.256   2.731  16.443 -1.1153 -0.0213 -0.6519
15537TIP3    H268103   5.227   2.722  16.592  0.4382 -0.3652 -0.3462
15538TIP3   OH268104   6.042   4.585   3.753  0.1875  0.3800  0.1783
15538TIP3    H168105   6.120   4.628   3.789  0.3874 -0.5859  0.9388
15538TIP3    H268106   6.075   4.509   3.707 -0.3611 -0.7418  1.5634
15539TIP3   OH268107   1.836   0.520   4.974 -0.3070 -0.1696  0.3491
15539TIP3    H168108   1.806   0.496   5.062  0.3359  0.6073  0.7954
15539TIP3    H268109   1.757   0.547   4.927 -0.5390  0.2113  0.9545
15540TIP3   OH268110   6.670   3.159  12.602  0.3312 -0.2122  0.0636
15540TIP3    H168111   6.587   3.120  12.577 -0.5798  0.5185  1.7950
15540TIP3    H268112   6.670   3.244  12.559 -0.2159  0.1268  0.7132
15541TIP3   OH268113   2.090   3.212  16.507  0.1265  0.4852  0.3237
15541TIP3    H168114   2.128   3.169  16.431  0.8134 -0.1550  1.0052
15541TIP3    H268115   2.165   3.251  16.552 -0.3057  1.0928  0.5330
15542TIP3   OH268116   3.995   1.094  15.853 -0.2278  0.6230 -0.5116
15542TIP3    H168117   4.049   1.078  15.776 -0.9911  0.4233 -1.0179
15542TIP3    H268118   3.976   1.006  15.888  1.7928  0.7551  1.1266
15543TIP3   OH268119   5.015   0.436   2.624 -0.0983 -0.0788 -0.9481
15543TIP3    H168120   5.102   0.432   2.586 -0.0498 -1.6085 -0.7676
15543TIP3    H268121   5.029   0.472   2.712 -0.0116  1.9864 -1.7560
15544TIP3   OH268122   6.426   0.256   2.702 -0.1119  0.0876  0.1085
15544TIP3    H168123   6.371   0.318   2.654  1.1944  1.6274  0.5248
15544TIP3    H268124   6.507   0.252   2.651  0.8199  0.7977  1.4958
15545TIP3   OH268125   4.052   2.204  13.461 -0.0872  0.4489 -0.0692
15545TIP3    H168126   4.081   2.201  13.552 -0.5579  1.5444  0.1338
15545TIP3    H268127   3.989   2.277  13.458 -1.3765 -0.6397 -0.8992
15546TIP3   OH268128   1.210   1.123   3.942  0.0928  0.3687  0.3083
15546TIP3    H168129   1.144   1.191   3.926 -0.0678 -0.3345 -2.4286
15546TIP3    H268130   1.293   1.170   3.947 -0.2711  0.9735  0.8035
15547TIP3   OH268131   2.373   0.460  13.658 -1.0703 -0.0135 -0.1306
15547TIP3    H168132   2.426   0.387  13.689 -1.1802  0.1598  0.4987
15547TIP3    H268133   2.302   0.467  13.722 -0.2271  1.5830  0.7210
15548TIP3   OH268134   2.603   6.624  13.412  0.3077 -0.0425  0.4030
15548TIP3    H168135   2.549   6.551  13.443  0.8977 -0.4361  0.5353
15548TIP3    H268136   2.557   6.657  13.335 -0.1689 -0.2997  0.5696
15549TIP3   OH268137   0.245   2.262  14.982 -0.2739  0.6623  0.6275
15549TIP3    H168138   0.178   2.328  15.003 -1.2828  0.4640 -1.6777
15549TIP3    H268139   0.200   2.178  14.992  0.6692  0.3122  2.3832
15550TIP3   OH268140   0.055   2.850  13.313  1.1732 -1.1986 -0.4355
15550TIP3    H168141   0.149   2.859  13.325  1.2842 -1.8749 -0.7491
15550TIP3    H268142   0.037   2.757  13.330  0.3784 -0.8460  0.7892
15551TIP3   OH268143   1.510   2.063   1.863 -0.1712  0.1512  0.6640
15551TIP3    H168144   1.525   2.057   1.957 -0.9961 -0.2385  0.7692
15551TIP3    H268145   1.493   1.973   1.835  0.7015  0.1637  0.0229
15552TIP3   OH268146   0.070   6.121   2.676 -0.1360 -0.1138 -0.2318
15552TIP3    H168147   0.042   6.092   2.763 -0.8814 -0.9221 -0.7373
15552TIP3    H268148   0.104   6.043   2.634  0.5513  0.3474 -0.5539
15553TIP3   OH268149   4.688   4.064  15.338 -0.2138 -0.3188  0.1456
15553TIP3    H168150   4.627   3.992  15.359 -1.0951  0.2240 -0.4884
15553TIP3    H268151   4.723   4.041  15.253 -2.8431  1.4457 -1.5598
15554TIP3   OH268152   2.045   2.473  16.659  0.2388 -0.1414 -0.1974
15554TIP3    H168153   2.095   2.406  16.613 -1.0289 -2.0705  1.1035
15554TIP3    H268154   1.954   2.443  16.654 -0.1963  0.7543  1.6350
15555TIP3   OH268155   0.963   5.118  14.075  0.1776  0.0288  0.3123
15555TIP3    H168156   1.034   5.129  14.012 -0.7131 -0.4414 -0.8184
15555TIP3    H268157   0.948   5.205  14.110  1.0013  0.2121  0.2111
15556TIP3   OH268158   5.461   6.664   0.641  0.0592  0.1163  0.2686
15556TIP3    H168159   5.428   6.671   0.551  1.0860  0.7743 -0.0837
15556TIP3    H268160   5.535   6.725   0.644 -0.4184  0.6668  1.7911
15557TIP3   OH268161   6.014   5.168   3.422 -0.0061 -0.3335 -0.8399
15557TIP3    H168162   5.955   5.228   3.469  0.9370  0.0920 -0.1523
15557TIP3    H268163   6.023   5.093   3.480  1.0427  0.1257 -0.3695
15558TIP3   OH268164   3.028   2.618  11.480 -0.3994 -0.1865 -0.2222
15558TIP3    H168165   3.053   2.661  11.398  0.9036 -0.0636  0.2264
15558TIP3    H268166   3.010   2.690  11.540  0.0749 -0.2597  0.0152
15559TIP3   OH268167   3.006   3.473   2.920 -0.0784  0.3826  0.7551
15559TIP3    H168168   2.931   3.416   2.933 -0.2316  0.4334  0.1171
15559TIP3    H268169   3.048   3.477   3.006  0.0492 -0.8487  0.7677
15560TIP3   OH268170   4.355   2.435  15.844 -0.1564 -0.1513 -0.7936
15560TIP3    H168171   4.296   2.407  15.915  1.3960 -0.7287  0.3148
15560TIP3    H268172   4.320   2.391  15.766 -1.5546  0.0245 -0.3000
15561TIP3   OH268173   2.218   5.527   1.658 -0.5125  0.2373 -0.2581
15561TIP3    H168174   2.290   5.537   1.720 -0.7204  1.3857 -0.1921
15561TIP3    H268175   2.193   5.434   1.665  0.4470  0.0120  0.2735
15562TIP3   OH268176   3.135   2.875  16.086  0.0217  0.6291  0.0775
15562TIP3    H168177   3.144   2.780  16.081  1.1804  0.7179  0.0247
15562TIP3    H268178   3.067   2.890  16.151  0.0409 -0.2338  0.3049
15563TIP3   OH268179   0.467   4.588   2.174  0.2668  0.2592 -0.4876
15563TIP3    H168180   0.519   4.667   2.158  2.2142 -0.6449  0.9603
15563TIP3    H268181   0.508   4.521   2.120  0.1465 -0.2819  0.0757
15564TIP3   OH268182   0.006   0.204  12.650  0.1920 -0.6997 -0.2856
15564TIP3    H168183   0.018   0.161  12.566  0.3036  0.6485 -0.9786
15564TIP3    H268184   0.039   0.141  12.715  0.7607 -1.4574 -1.2943
15565TIP3   OH268185   2.550   1.496   1.092 -0.2713 -0.0248  0.4347
15565TIP3    H168186   2.609   1.565   1.065 -1.9166  0.3540 -2.5834
15565TIP3    H268187   2.604   1.437   1.144  2.0153  1.6911  0.1522
15566TIP3   OH268188   1.196   4.531   5.305  0.7691 -0.0184 -0.9175
15566TIP3    H168189   1.286   4.499   5.302  0.5018 -0.9938  0.2750
15566TIP3    H268190   1.162   4.497   5.388 -0.6488  0.4582 -1.2772
15567TIP3   OH268191   4.762   4.781   5.715 -0.3862 -0.3212 -0.3653
15567TIP3    H168192   4.745   4.786   5.621 -0.7828 -0.2269 -0.2891
15567TIP3    H268193   4.813   4.701   5.726 -1.7646 -1.2403 -0.4532
15568TIP3   OH268194   4.935   0.953   3.034  0.2264 -0.1446  0.3664
15568TIP3    H168195   4.867   0.951   2.967 -0.0375 -0.5533  0.6443
15568TIP3    H268196   4.902   1.012   3.101  0.4168  0.1319  0.2205
15569TIP3   OH268197   0.723   5.873  15.595  0.4531 -0.4309 -0.2679
15569TIP3    H168198   0.787   5.802  15.601 -0.3000 -1.1109 -0.2591
15569TIP3    H268199   0.695   5.887  15.685  0.9960  0.2595 -0.1944
15570TIP3   OH268200   2.594   4.927  11.358  0.5898  0.0456  0.0752
15570TIP3    H168201   2.526   4.981  11.398  0.8746  0.9197 -0.5876
15570TIP3    H268202   2.554   4.894  11.278  0.5126 -0.5071  0.3383
15571TIP3   OH268203   3.636   1.560  16.424 -0.3222  0.0088 -0.2558
15571TIP3    H168204   3.591   1.607  16.353  1.0249  1.8840  0.0408
15571TIP3    H268205   3.571   1.555  16.494 -0.0022  3.3854  0.4655
15572TIP3   OH268206   2.657   5.196   2.725  0.0917 -0.2801 -0.2855
15572TIP3    H168207   2.605   5.244   2.789 -0.7316 -0.1171 -1.0658
15572TIP3    H268208   2.677   5.260   2.658 -1.5878 -1.1545 -1.6820
15573TIP3   OH268209   3.118   2.463  15.060  0.3344 -0.2353 -0.7364
15573TIP3    H168210   3.174   2.414  15.120  0.1211  0.3048 -0.0884
15573TIP3    H268211   3.104   2.403  14.986  3.1224  0.2199 -1.7447
15574TIP3   OH268212   6.679   5.874   3.600  0.0508  0.5111 -0.0871
15574TIP3    H168213   6.589   5.877   3.568 -0.0495  0.0846  0.1452
15574TIP3    H268214   6.728   5.827   3.532 -0.0824 -0.0362  0.1858
15575TIP3   OH268215   4.614   1.075   0.800 -0.5966  0.0985  0.0540
15575TIP3    H168216   4.607   1.110   0.889 -0.4412 -0.3457  0.2441
15575TIP3    H268217   4.593   1.149   0.743  3.4044  1.6892  0.2777
15576TIP3   OH268218   5.025   1.378  13.464  0.0075 -0.7579 -0.0456
15576TIP3    H168219   4.968   1.451  13.486  2.2395  0.8868  0.7328
15576TIP3    H268220   4.993   1.304  13.516 -1.0810  0.2277  0.7168
15577TIP3   OH268221   4.211   6.835   0.554 -0.0475 -0.1842  0.7327
15577TIP3    H168222   4.179   6.745   0.561 -1.3440  0.1946 -0.1150
15577TIP3    H268223   4.265   6.835   0.475  0.3761 -0.3278  1.0170
15578TIP3   OH268224   2.263   0.732  15.026  0.1597 -0.3066 -0.0075
15578TIP3    H168225   2.303   0.762  14.944  0.6578 -1.2255 -0.1105
15578TIP3    H268226   2.336   0.729  15.088 -0.1271 -0.0734  0.3474
15579TIP3   OH268227   4.860   1.134   0.465 -0.4857  0.8347  0.5238
15579TIP3    H168228   4.854   1.149   0.371  1.5105 -1.2577 -0.0343
15579TIP3    H268229   4.809   1.053   0.479 -0.4057  0.8942  1.1753
15580TIP3   OH268230   3.845   6.344  16.374  0.1028 -0.1442  0.3162
15580TIP3    H168231   3.755   6.361  16.402  0.5883 -0.3380  2.1493
15580TIP3    H268232   3.899   6.380  16.445  1.4256 -1.1168 -0.1584
15581TIP3   OH268233   2.806   1.061  14.991  0.5827 -0.1848 -0.0817
15581TIP3    H168234   2.893   1.027  15.014  0.8346  0.0619 -0.6521
15581TIP3    H268235   2.819   1.154  14.976  0.0537  0.0132  0.6427
15582TIP3   OH268236   0.982   3.026  10.787 -0.1230  0.1606  0.1046
15582TIP3    H168237   1.028   2.948  10.818  0.4358 -0.1426 -1.4043
15582TIP3    H268238   1.021   3.098  10.836  0.8059 -0.2829  0.0363
15583TIP3   OH268239   4.186   3.186   5.235 -0.6470  0.7060 -0.3613
15583TIP3    H168240   4.208   3.259   5.292 -0.4511  1.7889 -1.7726
15583TIP3    H268241   4.161   3.226   5.152 -0.7744 -0.8188 -1.1067
15584TIP3   OH268242   5.027   5.484  14.648  0.4089  0.2414  0.1097
15584TIP3    H168243   5.092   5.458  14.583  1.2687 -0.1466  1.0987
15584TIP3    H268244   5.072   5.550  14.701 -0.0809  0.1389  0.6598
15585TIP3   OH268245   3.145   5.974  14.863  0.6726 -0.2655 -0.2598
15585TIP3    H168246   3.239   5.977  14.881  0.2368 -1.7002  2.8603
15585TIP3    H268247   3.114   5.899  14.913 -2.1898  0.2964 -1.0512
15586TIP3   OH268248   2.967   2.815  15.642 -0.1901 -0.2500 -0.7095
15586TIP3    H168249   2.997   2.891  15.691 -0.2795  0.3786 -1.6121
15586TIP3    H268250   2.874   2.807  15.665  0.0127 -0.5864  0.0150
15587TIP3   OH268251   5.152   6.381  11.876  0.3231 -0.0330  0.4485
15587TIP3    H168252   5.168   6.473  11.897 -0.7913  0.0829  0.8854
15587TIP3    H268253   5.211   6.363  11.803  2.2119  0.3655  1.8167
15588TIP3   OH268254   3.085   4.899   3.359  0.4379 -0.0469 -0.4497
15588TIP3    H168255   3.048   4.941   3.282  1.9201  2.6492  0.1870
15588TIP3    H268256   3.011   4.891   3.420 -0.2538 -0.0898 -1.2692
15589TIP3   OH268257   0.263   4.350  14.958  0.2796 -0.2089 -0.2016
15589TIP3    H168258   0.225   4.332  15.045  1.2969 -1.5874 -0.0028
15589TIP3    H268259   0.243   4.442  14.942 -1.0026 -0.2495  0.9519
15590TIP3   OH268260   3.852   6.120  16.710  0.3558  0.1090  0.2661
15590TIP3    H168261   3.945   6.103  16.696 -0.0775 -1.3851 -1.1171
15590TIP3    H268262   3.811   6.097  16.626 -1.2498  0.8892  0.7954
15591TIP3   OH268263   0.506   6.442   5.103  0.8200 -0.5384  0.2641
15591TIP3    H168264   0.513   6.420   5.196  1.2906  2.4549  1.0481
15591TIP3    H268265   0.412   6.444   5.085  0.7296 -1.1558  0.6633
15592TIP3   OH268266   4.730   3.167   1.153  0.3189 -0.0410 -0.1635
15592TIP3    H168267   4.657   3.225   1.173  0.9570 -0.0668  2.6535
15592TIP3    H268268   4.719   3.146   1.061 -0.5869  3.6104 -1.0488
15593TIP3   OH268269   4.874   3.067  14.781  0.2744 -0.1863  0.3471
15593TIP3    H168270   4.954   3.058  14.833 -0.5039 -0.5153  1.5107
15593TIP3    H268271   4.902   3.115  14.703  1.1081  2.1233  1.9459
15594TIP3   OH268272   3.050   6.487  14.193 -0.4267 -0.1543  0.2866
15594TIP3    H168273   3.086   6.572  14.217  0.1450  0.0919 -1.3347
15594TIP3    H268274   3.082   6.428  14.261  1.4318  0.4343 -0.0019
15595TIP3   OH268275   4.836   1.990  16.410 -0.1450 -0.0158 -0.1347
15595TIP3    H168276   4.774   1.969  16.341 -0.8504 -1.4693  0.9068
15595TIP3    H268277   4.827   2.085  16.422 -1.1269  0.0073 -0.9636
15596TIP3   OH268278   4.143   1.059  10.254 -0.2615  0.0831 -0.2665
15596TIP3    H168279   4.067   1.070  10.311 -0.7840 -0.6918 -0.7899
15596TIP3    H268280   4.137   1.130  10.191 -0.1766  0.4201  0.1030
15597TIP3   OH268281   1.453   3.183   3.920 -0.3276  0.6330  0.6313
15597TIP3    H168282   1.507   3.262   3.912  0.8938 -0.3489 -2.0653
15597TIP3    H268283   1.515   3.114   3.945 -1.2829  0.3560  2.3903
15598TIP3   OH268284   6.386   4.953   2.872  0.2482  0.0837  0.3737
15598TIP3    H168285   6.383   4.908   2.956 -2.4911  1.1546  0.9260
15598TIP3    H268286   6.295   4.965   2.847  0.9275  2.4818 -1.2912
15599TIP3   OH268287   0.832   3.640  15.445 -0.4056 -0.1939  0.0509
15599TIP3    H168288   0.922   3.619  15.470  0.1434 -0.0615 -1.6626
15599TIP3    H268289   0.785   3.648  15.528  1.3498  0.6137  1.0309
15600TIP3   OH268290   4.918   5.999  11.305 -0.3321  0.2728  0.0555
15600TIP3    H168291   5.003   5.964  11.276 -0.5061 -0.0160 -0.1132
15600TIP3    H268292   4.936   6.036  11.391  0.0073  0.3819 -0.0604
15601TIP3   OH268293   3.597   3.296  13.870 -0.5420  0.4039  0.7316
15601TIP3    H168294   3.504   3.318  13.863 -0.2466  1.4746 -0.2226
15601TIP3    H268295   3.610   3.278  13.963 -2.1478 -2.0319  0.5680
15602TIP3   OH268296   0.741   5.967  13.901  0.0220 -0.4992 -0.1056
15602TIP3    H168297   0.794   6.036  13.862 -0.3930 -0.5665 -0.7945
15602TIP3    H268298   0.668   5.955  13.841  0.7439 -2.4337 -0.6707
15603TIP3   OH268299   4.308   4.030   4.765  0.1197 -0.6026 -0.2578
15603TIP3    H168300   4.353   4.111   4.739 -1.5831  0.2293 -0.7453
15603TIP3    H268301   4.261   4.002   4.686  0.1102 -1.6943  0.1155
15604TIP3   OH268302   0.345   1.991  12.320  0.2528 -0.2627  0.4940
15604TIP3    H168303   0.349   2.021  12.229  1.2422  0.5987  0.8013
15604TIP3    H268304   0.259   2.018  12.351  0.7354  1.4174  0.4518
15605TIP3   OH268305   1.440   6.400  16.187 -0.2224 -0.0698 -0.4826
15605TIP3    H168306   1.488   6.474  16.150  1.8846 -1.3953 -0.5694
15605TIP3    H268307   1.493   6.373  16.262 -2.4093  0.1876  1.2599
15606TIP3   OH268308   2.245   6.809  11.825  0.3200  0.3739  0.0592
15606TIP3    H168309   2.279   6.723  11.850 -0.7407  0.0420  0.4110
15606TIP3    H268310   2.318   6.869  11.839  0.8161 -0.3432  0.6083
15607TIP3   OH268311   1.963   0.136   0.410 -0.0339 -0.2473  0.4313
15607TIP3    H168312   1.868   0.125   0.420  0.0036 -0.4724  0.5433
15607TIP3    H268313   1.995   0.156   0.498  0.0398 -0.2957  0.4157
15608TIP3   OH268314   3.813   1.847   1.938  0.4214  0.2670 -0.0256
15608TIP3    H168315   3.865   1.775   1.975  0.6706  1.0303  1.1765
15608TIP3    H268316   3.877   1.903   1.895  0.1922 -0.3485 -1.2244
15609TIP3   OH268317   3.445   6.363  15.502  0.0740  0.0272 -0.3285
15609TIP3    H168318   3.460   6.322  15.417 -2.3938  2.3670 -2.0460
15609TIP3    H268319   3.380   6.307  15.545  0.2184 -0.3462 -0.5856
15610TIP3   OH268320   0.271   4.792   0.411  0.2533 -0.2968 -0.3035
15610TIP3    H168321   0.356   4.826   0.437 -0.1740  0.6998 -0.1628
15610TIP3    H268322   0.214   4.807   0.487 -0.3580  0.2486 -0.8486
15611TIP3   OH268323   6.494   2.776  12.955  0.6831 -0.0406 -0.1616
15611TIP3    H168324   6.458   2.688  12.965  0.5060  0.0744  0.2342
15611TIP3    H268325   6.583   2.770  12.989  0.5526  0.0149  0.1940
15612TIP3   OH268326   3.902   3.041   4.810 -0.3362  0.7521 -0.3152
15612TIP3    H168327   3.830   2.991   4.847  0.1146  0.2527 -0.0998
15612TIP3    H268328   3.978   2.982   4.816  0.3411  1.6699  0.5108
15613TIP3   OH268329   3.959   4.741   2.164  0.0346  0.7431  0.2113
15613TIP3    H168330   3.983   4.656   2.200 -0.5797  0.2979 -0.3940
15613TIP3    H268331   3.931   4.793   2.239 -0.3762  0.1335  0.4801
15614TIP3   OH268332   6.784   0.199   5.004 -0.2143  0.1397 -0.0437
15614TIP3    H168333   6.792   0.117   5.052 -1.8594  0.2483  0.4789
15614TIP3    H268334   6.692   0.226   5.017  0.0084  1.5146 -1.0716
15615TIP3   OH268335   2.900   5.909  10.728  0.0228 -0.4021 -0.5631
15615TIP3    H168336   2.946   5.921  10.645 -0.1995  0.8985 -0.5059
15615TIP3    H268337   2.968   5.878  10.788  0.0231 -2.1628 -1.3913
15616TIP3   OH268338   2.238   5.420   0.293 -0.0464  0.2912  0.1015
15616TIP3    H168339   2.221   5.417   0.198  1.3208  1.8796 -0.2253
15616TIP3    H268340   2.306   5.355   0.307  1.2248  1.4818 -0.3778
15617TIP3   OH268341   6.141   2.507   5.029  0.0545 -0.1899  0.2131
15617TIP3    H168342   6.139   2.550   4.944 -0.1289 -2.0144 -0.7547
15617TIP3    H268343   6.232   2.478   5.039 -0.3853 -1.8564 -0.3830
15618TIP3   OH268344   0.986   3.089  16.510 -0.0559 -0.2969  0.2618
15618TIP3    H168345   0.998   3.015  16.450  1.3540  1.3019 -1.5522
15618TIP3    H268346   1.059   3.081  16.572  0.2896 -0.2361 -0.1350
15619TIP3   OH268347   0.037   2.661   0.447  0.4912  0.0423  0.1526
15619TIP3    H168348  -0.028   2.729   0.465  0.1082 -0.2285 -0.2058
15619TIP3    H268349   0.112   2.708   0.410  0.1106  0.2338 -0.3773
15620TIP3   OH268350   2.687   1.983  11.603  0.1694 -1.0531  0.1581
15620TIP3    H168351   2.682   2.075  11.576 -0.5981 -1.4371 -1.1000
15620TIP3    H268352   2.682   1.934  11.521 -0.0073 -2.2362  0.8561
15621TIP3   OH268353   4.752   4.082  12.651 -0.4047  0.1522 -0.0139
15621TIP3    H168354   4.693   4.130  12.708  0.3883  0.5674  0.4825
15621TIP3    H268355   4.715   4.093  12.563 -0.6533  1.0331  0.1902
15622TIP3   OH268356   2.095   0.012  14.242 -0.1116  0.1075 -0.1154
15622TIP3    H168357   2.045  -0.050  14.295 -2.6118  0.9152 -1.3693
15622TIP3    H268358   2.167  -0.040  14.206 -1.5085 -1.8549 -0.2760
15623TIP3   OH268359   5.126   1.730   4.961 -0.2069 -0.3937 -0.5129
15623TIP3    H168360   5.081   1.651   4.991 -0.6871 -0.0576 -0.3381
15623TIP3    H268361   5.215   1.721   4.995 -0.1624 -1.0218 -0.7838
15624TIP3   OH268362   3.476   4.421   2.985  0.7018 -0.2720  0.9244
15624TIP3    H168363   3.504   4.334   2.958  1.6318  0.2851 -0.0163
15624TIP3    H268364   3.448   4.411   3.076 -1.8370 -2.0760  0.0451
15625TIP3   OH268365   3.972   6.718   3.608 -0.2663 -0.0556  0.8900
15625TIP3    H168366   3.933   6.794   3.565 -0.3809 -0.0427  1.0204
15625TIP3    H268367   4.028   6.680   3.540  0.9526  0.9950  1.2699
15626TIP3   OH268368   6.568   6.607   1.060  0.8541  0.1932 -0.0867
15626TIP3    H168369   6.487   6.604   1.111  0.6262  1.6767 -0.3087
15626TIP3    H268370   6.628   6.549   1.106  0.1828  0.3656  1.0379
15627TIP3   OH268371   6.504   2.815  14.740  0.5790  0.3120  0.5255
15627TIP3    H168372   6.554   2.789  14.817 -0.5368 -1.9401  0.5826
15627TIP3    H268373   6.512   2.910  14.737  1.0370  0.4333  3.1460
15628TIP3   OH268374   5.696   5.719  15.592 -0.3205  0.4839  0.3530
15628TIP3    H168375   5.767   5.716  15.528 -1.4735  0.5198 -1.0020
15628TIP3    H268376   5.732   5.767  15.667  0.4553  2.4082 -1.1458
15629TIP3   OH268377   1.105   3.670   3.883  0.1792  0.3560  0.2096
15629TIP3    H168378   1.022   3.630   3.908 -0.2368 -0.1285 -1.7534
15629TIP3    H268379   1.154   3.600   3.840  1.0174  1.0127  0.0505
15630TIP3   OH268380   3.754   2.058  13.559 -0.4624 -0.2402  0.4576
15630TIP3    H168381   3.749   2.154  13.565  2.4502 -0.0487  1.2817
15630TIP3    H268382   3.779   2.029  13.646 -0.5691 -1.7221  0.0278
15631TIP3   OH268383   4.458   1.797   5.261  0.1041 -0.0008 -0.2261
15631TIP3    H168384   4.527   1.730   5.261  0.2128  0.0994  0.6185
15631TIP3    H268385   4.503   1.878   5.284  0.0172  0.4288 -1.4968
15632TIP3   OH268386   5.270   1.452   5.110 -0.7728 -0.7727 -0.6447
15632TIP3    H168387   5.338   1.405   5.062  0.1352  0.3189 -0.4630
15632TIP3    H268388   5.318   1.506   5.173 -1.8094  0.0605 -0.5462
15633TIP3   OH268389   0.648   1.246  12.913 -0.1985 -0.1482 -0.2101
15633TIP3    H168390   0.555   1.238  12.935 -0.6273  1.5598 -1.2420
15633TIP3    H268391   0.690   1.269  12.996 -0.9348  0.5132 -0.0064
15634TIP3   OH268392   0.253   1.642  16.841  0.4857 -0.3173  0.0209
15634TIP3    H168393   0.292   1.588  16.909 -2.3971  0.6132  2.6289
15634TIP3    H268394   0.187   1.586  16.801  1.3631 -0.4655 -1.3022
15635TIP3   OH268395   4.487   2.954  14.330  0.1938  0.1761  0.1338
15635TIP3    H168396   4.492   2.912  14.416 -1.8623  0.0628  0.2336
15635TIP3    H268397   4.425   2.900  14.280 -0.8053  1.8208 -0.4648
15636TIP3   OH268398   3.259   3.357   4.205 -0.5140 -0.6257  0.3373
15636TIP3    H168399   3.183   3.414   4.219  0.0306  0.3308 -0.5200
15636TIP3    H268400   3.233   3.298   4.134 -0.0142  0.5604 -0.8623
15637TIP3   OH268401   0.104   3.851  15.926  0.0142 -0.0845  0.2672
15637TIP3    H168402   0.096   3.910  16.001 -0.1174 -0.8379  0.8610
15637TIP3    H268403   0.175   3.792  15.951 -0.9657 -1.2358  0.4327
15638TIP3   OH268404   1.947   3.354   1.189  0.5780  0.1549 -0.2577
15638TIP3    H168405   1.871   3.360   1.245  0.5266 -1.3754 -0.1277
15638TIP3    H268406   2.022   3.350   1.249  0.6942  0.6472 -0.3619
15639TIP3   OH268407   3.981   2.341   4.046  0.2292 -0.2312 -0.4159
15639TIP3    H168408   3.955   2.432   4.030 -0.0098 -0.0803  0.7119
15639TIP3    H268409   4.074   2.347   4.069  0.0648 -0.1841  0.2656
15640TIP3   OH268410   4.694   1.600  14.296  0.1955  0.5522  0.6333
15640TIP3    H168411   4.650   1.650  14.365  1.5234  0.3230  1.6836
15640TIP3    H268412   4.722   1.667  14.233 -0.9373  0.7711  0.3301
15641TIP3   OH268413   3.520   1.439   3.608 -0.0392  0.3661  0.7366
15641TIP3    H168414   3.452   1.472   3.667 -0.2603  0.5670  0.3673
15641TIP3    H268415   3.537   1.511   3.548 -2.4509 -1.0135 -1.8270
15642TIP3   OH268416   6.640   5.999  16.647  0.4923  0.3630 -0.2685
15642TIP3    H168417   6.547   5.985  16.664  0.5845 -0.5912 -0.5122
15642TIP3    H268418   6.654   6.091  16.669 -0.7244  0.8051 -1.2011
15643TIP3   OH268419   6.420   1.420  11.989  0.1931  0.5255 -0.0655
15643TIP3    H168420   6.515   1.415  11.988  0.1518 -1.0196  1.1325
15643TIP3    H268421   6.398   1.475  11.913  1.9500 -0.3574 -1.2705
15644TIP3   OH268422   6.628   6.338   5.278  0.1773 -0.2228  0.0276
15644TIP3    H168423   6.716   6.313   5.308  0.6381  0.2059 -0.9043
15644TIP3    H268424   6.642   6.366   5.188 -0.8632  0.2304  0.0031
15645TIP3   OH268425   5.122   6.291   5.570 -0.1719  0.5272 -0.4550
15645TIP3    H168426   5.044   6.301   5.515  0.3105  1.1214 -1.0475
15645TIP3    H268427   5.096   6.323   5.656 -0.9458 -0.4378 -0.3170
15646TIP3   OH268428   4.732   2.120  14.181  0.3369  0.2298 -0.2351
15646TIP3    H168429   4.748   2.057  14.251 -0.3995  1.0723  0.7167
15646TIP3    H268430   4.762   2.204  14.217  0.1744  0.6302 -1.0197
15647TIP3   OH268431   1.950   4.100   2.965 -0.3142 -0.5952  0.6265
15647TIP3    H168432   1.884   4.086   2.897  0.4702 -1.3325 -0.0152
15647TIP3    H268433   1.933   4.188   2.998 -1.1066 -0.4697 -0.0924
15648TIP3   OH268434   6.674   2.336  11.627 -0.1056  0.1895  0.1173
15648TIP3    H168435   6.623   2.256  11.617  1.8234 -1.0275 -0.4821
15648TIP3    H268436   6.734   2.336  11.552  1.8468  0.7192  1.6110
15649TIP3   OH268437   6.133   2.451  12.026 -0.5387  0.3846 -0.2901
15649TIP3    H168438   6.076   2.409  12.091  0.9966  0.5797  1.2449
15649TIP3    H268439   6.113   2.544  12.033  1.0850  0.6639  1.4946
15650TIP3   OH268440   4.348   4.394   5.832 -0.0635  0.0248 -0.1928
15650TIP3    H168441   4.423   4.409   5.775  1.2690 -0.1758  1.4439
15650TIP3    H268442   4.318   4.305   5.810 -0.3718  0.4045 -1.4103
15651TIP3   OH268443   0.671   2.564  16.753  0.2014 -0.1196 -0.0351
15651TIP3    H168444   0.622   2.637  16.715  1.1953  0.7576  0.2918
15651TIP3    H268445   0.669   2.496  16.686 -2.9871 -0.8800  0.6547
15652TIP3   OH268446   6.291   1.377   2.830 -0.5661  0.1729 -0.5269
15652TIP3    H168447   6.250   1.457   2.798  0.0111  0.6378 -0.1391
15652TIP3    H268448   6.384   1.400   2.842 -0.4746 -0.4183  0.0036
15653TIP3   OH268449   4.041   3.910  11.230 -0.0852  0.2078  0.7728
15653TIP3    H168450   4.080   3.846  11.290 -1.8604 -1.1650  0.5723
15653TIP3    H268451   3.971   3.951  11.281 -2.0703 -1.4531 -0.4364
15654TIP3   OH268452   2.589   5.169  12.928 -0.2384  0.0578 -0.2568
15654TIP3    H168453   2.625   5.163  13.017  1.7900  1.1524 -0.9523
15654TIP3    H268454   2.646   5.115  12.875 -0.5506  0.5943 -1.1545
15655TIP3   OH268455   6.170   4.926  16.683  0.0619 -0.3840  0.0425
15655TIP3    H168456   6.117   5.002  16.659 -0.2173 -0.5658  0.0707
15655TIP3    H268457   6.106   4.856  16.694  0.3553 -0.7175 -0.3649
15656TIP3   OH268458   5.201   6.320  13.149 -0.3610  0.6041 -0.3138
15656TIP3    H168459   5.211   6.236  13.192  0.0921  1.1934  0.7760
15656TIP3    H268460   5.277   6.371  13.177 -1.5852  2.0303  0.6182
15657TIP3   OH268461   0.084   5.178  14.874  0.4645  0.0653 -0.2168
15657TIP3    H168462   0.100   5.101  14.820 -0.4294  0.3975 -0.9901
15657TIP3    H268463   0.043   5.143  14.954  0.5106 -0.3058 -0.3536
15658TIP3   OH268464   1.632   6.296   2.518 -0.0420  0.3568 -0.3584
15658TIP3    H168465   1.633   6.242   2.597  1.3614  0.0084 -0.5846
15658TIP3    H268466   1.612   6.384   2.549 -2.1439 -0.1958  0.0466
15659TIP3   OH268467   6.069   3.886  11.193  0.3461 -0.5822 -0.3335
15659TIP3    H168468   6.076   3.980  11.175  0.7866 -0.3178  1.1270
15659TIP3    H268469   6.000   3.856  11.134 -1.9416  1.2534  1.1972
15660TIP3   OH268470   1.347   0.619  11.618 -0.6041  0.5056  0.4846
15660TIP3    H168471   1.306   0.579  11.694 -0.8955  1.0382  0.6147
15660TIP3    H268472   1.289   0.692  11.595 -0.9616 -0.1219 -0.7331
15661TIP3   OH268473   6.568   6.846  15.991  0.6658  0.2557 -0.6452
15661TIP3    H168474   6.619   6.804  16.059  1.6207 -1.2576 -2.2462
15661TIP3    H268475   6.545   6.776  15.930  0.2095  1.6236 -2.1214
15662TIP3   OH268476   3.403   1.675  12.027 -0.4382  0.1010  0.5309
15662TIP3    H168477   3.498   1.678  12.011 -0.4017 -0.6921  0.5442
15662TIP3    H268478   3.363   1.695  11.943 -0.2522 -0.8273  0.2119
15663TIP3   OH268479   3.615   1.240  16.372 -0.0234 -0.5964  0.2527
15663TIP3    H168480   3.581   1.326  16.396 -0.4347 -1.0288  1.3101
15663TIP3    H268481   3.708   1.253  16.360 -0.0642 -0.0249  0.5453
15664TIP3   OH268482   5.105   1.465   1.430 -0.3775  0.6570  0.1099
15664TIP3    H168483   5.095   1.375   1.462  0.1192  0.7721  0.5935
15664TIP3    H268484   5.190   1.493   1.462 -0.9734  1.6804  0.8678
15665TIP3   OH268485   2.782   3.386  12.825 -0.0437  0.1948 -0.0072
15665TIP3    H168486   2.763   3.436  12.746  1.9629  1.0511 -0.0144
15665TIP3    H268487   2.752   3.297  12.805 -0.8793  0.7193 -1.1608
15666TIP3   OH268488   1.196   4.265  16.299 -0.0894  0.1030  0.1607
15666TIP3    H168489   1.275   4.215  16.281  0.1777  0.1802  1.1156
15666TIP3    H268490   1.180   4.314  16.218  1.2984  0.7165  0.2378
15667TIP3   OH268491   1.148   0.438   2.668  0.1049  0.6084  0.2022
15667TIP3    H168492   1.226   0.493   2.668  0.6395  0.0411  3.2579
15667TIP3    H268493   1.081   0.492   2.712  0.2524 -0.5812  1.9957
15668TIP3   OH268494   5.873   6.718  12.438 -0.7056 -0.5348 -0.4757
15668TIP3    H168495   5.818   6.771  12.381  0.5885  0.0820 -1.2040
15668TIP3    H268496   5.959   6.720  12.397 -0.0453 -1.1716  0.8057
15669TIP3   OH268497   3.696   0.987   1.567  0.3169 -0.3198 -0.4522
15669TIP3    H168498   3.666   0.970   1.656  1.3141  1.6351  0.3213
15669TIP3    H268499   3.781   1.030   1.579  0.8613 -0.7668 -2.3877
15670TIP3   OH268500   4.744   3.421   4.201 -0.2252 -0.1898 -0.0878
15670TIP3    H168501   4.748   3.516   4.191 -2.1685 -0.0484  0.0257
15670TIP3    H268502   4.752   3.386   4.112 -1.7063  0.2284 -0.4159
15671TIP3   OH268503   4.587   0.396   2.694  0.0403 -0.9582  0.0212
15671TIP3    H168504   4.627   0.482   2.705  0.8746 -1.3919  0.5497
15671TIP3    H268505   4.531   0.385   2.770  0.2446 -1.0345  0.1637
15672TIP3   OH268506   6.575   3.684  16.783 -0.2028 -0.3131 -0.6161
15672TIP3    H168507   6.538   3.768  16.809 -1.4985 -1.0218 -0.0874
15672TIP3    H268508   6.580   3.689  16.687  2.3170  1.3780 -0.4887
15673TIP3   OH268509   1.266   4.716  11.752 -0.2450 -0.2359  0.0439
15673TIP3    H168510   1.350   4.748  11.718 -0.5661  1.2540  0.5897
15673TIP3    H268511   1.203   4.740  11.684 -0.6246  1.1632  0.8587
15674TIP3   OH268512   0.919   2.320  12.269 -0.7619  0.2921 -0.0498
15674TIP3    H168513   1.012   2.297  12.274 -0.7112  0.4559 -0.2542
15674TIP3    H268514   0.878   2.266  12.337 -0.4427  0.6248  0.4134
15675TIP3   OH268515   1.082   4.217   5.200 -0.3528 -0.0776 -0.3848
15675TIP3    H168516   1.143   4.219   5.273  0.0946 -0.5034 -0.7393
15675TIP3    H268517   1.031   4.137   5.213 -1.4403  0.7102  0.3801
15676TIP3   OH268518   3.507   3.905   0.055 -0.7219 -0.1771  0.5842
15676TIP3    H168519   3.573   3.856   0.008 -0.2726  1.3409 -0.4455
15676TIP3    H268520   3.526   3.889   0.148  2.0877  1.3912  0.3782
15677TIP3   OH268521   3.218   3.807   2.996  0.9766  0.3782  0.4867
15677TIP3    H168522   3.152   3.788   2.929  1.8136 -0.5475 -0.1106
15677TIP3    H268523   3.254   3.721   3.018  2.4058  0.9284  0.3472
15678TIP3   OH268524   0.049   5.119   0.919 -0.3415 -0.1751 -0.4723
15678TIP3    H168525   0.139   5.096   0.899 -0.0975 -0.1910  0.5905
15678TIP3    H268526   0.049   5.215   0.920 -0.5317 -0.1592 -1.2809
15679TIP3   OH268527   2.427   3.905  12.853 -0.2762  0.0191  0.7133
15679TIP3    H168528   2.334   3.900  12.832 -0.3952  0.7266  1.0182
15679TIP3    H268529   2.436   3.853  12.933 -0.8235  1.6066  1.8788
15680TIP3   OH268530   5.880   6.770  16.978  0.1394  0.0207  0.2677
15680TIP3    H168531   5.789   6.789  16.954  0.7273  0.5388 -1.8090
15680TIP3    H268532   5.874   6.708  17.050 -1.8574  0.8165  0.8342
15681TIP3   OH268533   0.173   1.447   1.230  0.1993  0.0753  0.0891
15681TIP3    H168534   0.102   1.510   1.220  1.5011  1.6421  0.3152
15681TIP3    H268535   0.228   1.483   1.300  1.7580 -0.5545 -0.7496
15682TIP3   OH268536   3.182   4.336  12.285 -0.4639 -0.2588  0.1230
15682TIP3    H168537   3.246   4.268  12.306 -0.4618  0.0741  1.2713
15682TIP3    H268538   3.181   4.340  12.190  0.6463 -0.8094  0.0772
15683TIP3   OH268539   0.387   2.681  14.050 -0.6729  0.5406 -0.1392
15683TIP3    H168540   0.469   2.721  14.078  0.1877 -0.3218 -1.3353
15683TIP3    H268541   0.337   2.753  14.012 -0.4254  1.0511  0.4972
15684TIP3   OH268542   1.970   0.368  16.639 -0.0123  0.1193  0.1665
15684TIP3    H168543   1.994   0.459  16.618  3.6325 -0.6805  0.2117
15684TIP3    H268544   1.952   0.328  16.554  1.3102  0.1887 -0.1651
15685TIP3   OH268545   1.329   3.481   0.467 -0.0648  0.5070 -0.1947
15685TIP3    H168546   1.277   3.403   0.484 -0.0800  0.6238  0.3068
15685TIP3    H268547   1.265   3.552   0.465  0.2293  0.8882  2.0543
15686TIP3   OH268548   3.527   6.556   2.256  0.2241 -0.4714  0.5922
15686TIP3    H168549   3.499   6.575   2.167  1.4188 -0.3436  0.2308
15686TIP3    H268550   3.597   6.492   2.247 -0.1395 -1.0264  1.4908
15687TIP3   OH268551   6.016   6.517   1.555  0.3928 -0.3451 -0.2812
15687TIP3    H168552   6.101   6.474   1.565 -0.3027 -1.4853  1.2208
15687TIP3    H268553   5.967   6.490   1.632 -1.7925 -0.8126 -1.7428
15688TIP3   OH268554   4.562   3.718  12.662 -0.3653 -0.1638 -0.2840
15688TIP3    H168555   4.529   3.788  12.606  0.2244  1.1035  0.9122
15688TIP3    H268556   4.595   3.762  12.740  0.8046 -1.7066  0.1451
15689TIP3   OH268557   2.513   2.147  14.677 -0.2713 -0.2571  0.2942
15689TIP3    H168558   2.430   2.192  14.657 -0.3015 -0.7068 -0.6955
15689TIP3    H268559   2.568   2.214  14.717 -0.8063  0.2890  0.1320
15690TIP3   OH268560   4.904   6.713   1.128  0.7532  0.0754 -0.4579
15690TIP3    H168561   4.818   6.722   1.087  0.4145 -1.8069 -0.2204
15690TIP3    H268562   4.966   6.711   1.055  0.2809 -1.8162 -0.8607
15691TIP3   OH268563   3.885   6.346   2.476 -0.4809 -0.2588 -0.0986
15691TIP3    H168564   3.881   6.296   2.395 -4.2084 -0.7391  0.1822
15691TIP3    H268565   3.903   6.282   2.544  0.0326 -0.3092 -0.2835
15692TIP3   OH268566   5.819   2.040   2.040 -0.2185 -0.2301 -0.2012
15692TIP3    H168567   5.821   2.113   2.103 -1.2485 -0.1230 -0.2811
15692TIP3    H268568   5.771   1.971   2.085  0.8666 -0.9355 -0.0757
15693TIP3   OH268569   0.332   5.457   3.703 -0.5082 -0.0889 -0.5320
15693TIP3    H168570   0.412   5.460   3.756 -0.4825 -1.8636 -0.4149
15693TIP3    H268571   0.272   5.518   3.747 -0.3556 -1.2133  1.3737
15694TIP3   OH268572   2.301   3.386   2.863  0.1652  0.1897  0.5400
15694TIP3    H168573   2.371   3.432   2.817 -1.0978  1.3358 -0.2866
15694TIP3    H268574   2.247   3.349   2.793 -1.6715  1.7879  1.0310
15695TIP3   OH268575   2.760   2.285   5.351 -1.2510  0.1639 -0.2625
15695TIP3    H168576   2.732   2.263   5.440  2.5693  0.8630  1.2962
15695TIP3    H268577   2.847   2.247   5.342 -0.5810  1.9785 -2.9112
15696TIP3   OH268578   3.744   3.363  16.375  0.2444  0.1756 -0.2162
15696TIP3    H168579   3.795   3.348  16.295 -0.4875  1.1547 -0.8899
15696TIP3    H268580   3.810   3.370  16.444  0.9844  0.6484 -0.9481
15697TIP3   OH268581   3.823   3.211   4.384  0.0615  0.1354 -0.2878
15697TIP3    H168582   3.912   3.205   4.417  0.4536  1.8061 -0.9410
15697TIP3    H268583   3.771   3.237   4.460  0.2259 -0.2089 -0.0533
15698TIP3   OH268584   5.002   6.583  12.380 -0.6042 -0.4398 -0.2278
15698TIP3    H168585   5.040   6.556  12.464 -0.4884  0.4542  0.0155
15698TIP3    H268586   5.037   6.520  12.317  1.2037  0.2638  0.0099
15699TIP3   OH268587   4.057   0.645   4.500  0.4109 -0.4961  0.3619
15699TIP3    H168588   4.080   0.726   4.454 -0.2672 -1.0071 -0.9571
15699TIP3    H268589   4.141   0.603   4.518  1.0142  1.7316  3.6029
15700TIP3   OH268590   4.322   4.416   5.472  0.2456  0.0900 -0.0876
15700TIP3    H168591   4.341   4.333   5.429 -0.7136 -0.5523  0.6959
15700TIP3    H268592   4.399   4.431   5.528  0.9138  0.2962 -1.0327
15701TIP3   OH268593   2.035   0.414  10.975 -0.0536  0.2293 -0.2927
15701TIP3    H168594   2.017   0.427  10.882 -0.5314  1.2647 -0.0794
15701TIP3    H268595   2.051   0.320  10.984 -1.8143 -0.1880 -1.1097
15702TIP3   OH268596   6.282   1.525  11.739  0.3825 -0.2798 -0.1972
15702TIP3    H168597   6.242   1.612  11.730  1.7954  0.4113 -0.0296
15702TIP3    H268598   6.376   1.542  11.744  0.6131 -1.7184  1.1594
15703TIP3   OH268599   3.799   1.343  10.645 -0.7450  0.3260 -0.1102
15703TIP3    H168600   3.893   1.332  10.660 -0.6727 -0.2527 -0.8936
15703TIP3    H268601   3.760   1.262  10.677 -0.6324 -0.7421 -2.4492
15704TIP3   OH268602   5.932   1.978  16.001 -0.0093 -0.2151 -0.1913
15704TIP3    H168603   5.915   1.978  16.095  0.8765 -2.9200  0.0655
15704TIP3    H268604   6.027   1.992  15.994 -0.1480  0.5260 -0.7397
15705TIP3   OH268605   4.960   5.803  10.334 -0.0311  0.4199  0.3338
15705TIP3    H168606   4.911   5.874  10.377 -0.5310 -0.1519  0.7398
15705TIP3    H268607   4.901   5.727  10.339  0.6252 -0.1090  0.2093
15706TIP3   OH268608   1.429   6.422   4.537 -0.2385  0.5845  0.4555
15706TIP3    H168609   1.408   6.514   4.551 -0.6727  0.5520  0.0289
15706TIP3    H268610   1.346   6.382   4.510 -0.8670 -0.5586  3.5722
15707TIP3   OH268611   4.361   2.174   6.752 -0.4229  0.8726 -0.3441
15707TIP3    H168612   4.339   2.265   6.773  1.2382  1.1575  0.3915
15707TIP3    H268613   4.283   2.124   6.776 -1.6388  2.1628 -1.4470
15708TIP3   OH268614   3.699   2.716   3.103  0.3655  0.1922 -0.1916
15708TIP3    H168615   3.668   2.766   3.179 -0.1717  1.1617 -1.0323
15708TIP3    H268616   3.790   2.743   3.092  0.1177  0.8864 -0.5591
15709TIP3   OH268617   2.675   1.916  14.967 -0.4007  0.2136 -0.3133
15709TIP3    H168618   2.703   1.999  15.005  2.0959 -0.1651 -1.1185
15709TIP3    H268619   2.590   1.935  14.928  0.1821  2.4686 -0.6535
15710TIP3   OH268620   1.904   4.354   3.030 -0.2405 -0.5791 -0.7470
15710TIP3    H168621   1.952   4.433   3.052  0.1340 -0.2947 -2.4039
15710TIP3    H268622   1.818   4.384   3.000 -1.6047 -1.0899  2.2874
15711TIP3   OH268623   5.688   6.624  12.913 -0.6959 -0.2170  0.1461
15711TIP3    H168624   5.739   6.703  12.931  0.6052 -0.7523 -1.0179
15711TIP3    H268625   5.734   6.582  12.841 -1.3687 -2.0422  0.7352
15712TIP3   OH268626   4.166   5.066  13.949  0.4435  0.1656  0.0384
15712TIP3    H168627   4.185   5.152  13.987 -0.2323  0.3246  0.0471
15712TIP3    H268628   4.251   5.031  13.924  0.7519  0.7338  0.2649
15713TIP3   OH268629   4.771   0.917  13.709  0.3899 -0.1206 -0.0863
15713TIP3    H168630   4.706   0.868  13.658 -1.9517  3.7761 -1.2938
15713TIP3    H268631   4.758   0.887  13.799  1.0277 -3.4781 -0.9706
15714TIP3   OH268632   0.511   5.333   1.447 -0.5390 -0.1400  0.0512
15714TIP3    H168633   0.446   5.275   1.487  0.6737 -0.2949  1.9404
15714TIP3    H268634   0.479   5.421   1.468 -1.8686 -0.0586 -1.9868
15715TIP3   OH268635   1.885   0.745  16.063 -0.1874 -0.2636  0.5214
15715TIP3    H168636   1.886   0.658  16.105  1.8271 -0.9352 -0.7541
15715TIP3    H268637   1.872   0.726  15.970  2.1223  0.5907 -0.0384
15716TIP3   OH268638   3.797   1.626   3.797  0.0056  0.3348 -0.0315
15716TIP3    H168639   3.880   1.584   3.773 -0.4734 -1.0309  0.5764
15716TIP3    H268640   3.735   1.593   3.731 -0.8907 -1.8943  1.7813
15717TIP3   OH268641   3.890   4.685   4.914  0.3944  0.1749  0.0890
15717TIP3    H168642   3.923   4.696   5.003  0.9447  2.1470 -0.3072
15717TIP3    H268643   3.824   4.753   4.904 -0.2398 -0.5398 -0.7543
15718TIP3   OH268644   4.090   3.284  12.395 -0.4073  0.4194 -0.7215
15718TIP3    H168645   4.113   3.203  12.439 -0.4961  0.1843 -1.1025
15718TIP3    H268646   4.106   3.352  12.460 -0.1801  0.1126 -0.4529
15719TIP3   OH268647   4.484   5.461   2.738 -0.0805  0.0783 -0.0085
15719TIP3    H168648   4.402   5.435   2.695  0.7354  0.1038 -1.6695
15719TIP3    H268649   4.501   5.549   2.705  0.2549  0.3717  0.9142
15720TIP3   OH268650   1.483   2.766  15.520 -0.1330  0.0087  0.3770
15720TIP3    H168651   1.460   2.685  15.476  0.7617 -0.5544  0.9182
15720TIP3    H268652   1.399   2.808  15.541 -0.6167 -1.1856  0.8712
15721TIP3   OH268653   4.084   1.541  11.412 -0.5394 -0.0597  0.5108
15721TIP3    H168654   4.127   1.508  11.334  1.0387  2.1831  0.3623
15721TIP3    H268655   4.054   1.629  11.389  1.0088  1.1485  2.7075
15722TIP3   OH268656   1.397   3.622  11.476 -0.6036  0.3464 -0.2089
15722TIP3    H168657   1.351   3.585  11.400 -0.8524  2.3763 -1.1075
15722TIP3    H268658   1.487   3.635  11.445  0.1231 -1.6400  0.8758
15723TIP3   OH268659   1.436   3.426   1.383  0.4124 -0.2979 -0.3519
15723TIP3    H168660   1.522   3.392   1.359  0.8216  0.1363  0.4315
15723TIP3    H268661   1.438   3.518   1.355 -0.5280 -0.7691 -2.0804
15724TIP3   OH268662   5.513   0.347   1.856  0.7594  0.2259  0.1365
15724TIP3    H168663   5.478   0.371   1.770 -0.5588 -2.5310 -0.1704
15724TIP3    H268664   5.566   0.269   1.840  0.1006 -0.6298  1.8812
15725TIP3   OH268665   4.294   4.641  14.875  0.5361  0.0937 -0.1569
15725TIP3    H168666   4.295   4.725  14.828 -0.3689 -0.7331 -1.7277
15725TIP3    H268667   4.247   4.660  14.956 -1.0718  0.8123 -1.1898
15726TIP3   OH268668   0.911   4.546  15.488 -0.1717 -0.0402  0.0398
15726TIP3    H168669   0.941   4.551  15.397 -1.0050  1.0594 -0.1953
15726TIP3    H268670   0.818   4.524  15.482 -0.3529  0.5259  0.5923
15727TIP3   OH268671   1.460   2.713  15.257  0.1144  0.3828  0.1482
15727TIP3    H168672   1.369   2.723  15.285  0.7731 -0.6285  3.0208
15727TIP3    H268673   1.472   2.618  15.248  0.7225  0.5437 -0.9638
15728TIP3   OH268674   6.327   3.063   0.469  0.2268  0.0788 -0.3242
15728TIP3    H168675   6.319   3.113   0.388 -0.2239  0.3847 -0.0943
15728TIP3    H268676   6.290   3.120   0.537  0.9451 -0.0135  0.1644
15729TIP3   OH268677   6.233   3.982   5.366 -0.0006 -0.1667  0.2518
15729TIP3    H168678   6.223   3.902   5.417 -1.2659  0.4441  1.0096
15729TIP3    H268679   6.269   4.045   5.428  1.9591 -0.3608 -0.5898
15730TIP3   OH268680   5.962   4.190  13.173  0.3503 -0.1024 -0.2865
15730TIP3    H168681   5.920   4.275  13.161 -2.5371 -1.0255  2.1410
15730TIP3    H268682   5.933   4.138  13.098 -0.6493  0.0793 -0.0340
15731TIP3   OH268683   2.295   2.842   2.196 -0.3739 -0.7702 -0.3125
15731TIP3    H168684   2.377   2.817   2.239  0.6102  1.2202 -0.9234
15731TIP3    H268685   2.280   2.771   2.133  0.9395 -1.1339 -0.2621
15732TIP3   OH268686   1.539   1.671  16.865 -0.4525  0.0466 -0.0056
15732TIP3    H168687   1.628   1.704  16.857 -1.0443  2.2278  1.3914
15732TIP3    H268688   1.483   1.749  16.853 -2.0099 -0.6608  2.0041
15733TIP3   OH268689   3.301   5.437  14.242 -0.2187 -0.0532 -0.4664
15733TIP3    H168690   3.335   5.526  14.238  0.3345 -0.2826 -0.9025
15733TIP3    H268691   3.323   5.398  14.158 -0.6204 -0.5466 -0.3510
15734TIP3   OH268692   5.388   4.516   1.514 -0.1486  0.1551  0.3257
15734TIP3    H168693   5.435   4.566   1.448  0.7796  0.9006  1.5137
15734TIP3    H268694   5.337   4.452   1.464 -0.4027  1.4668 -1.1561
15735TIP3   OH268695   5.715   4.550   5.924 -0.4390  0.1570  0.1624
15735TIP3    H168696   5.629   4.590   5.915 -0.4195  0.0562 -0.5126
15735TIP3    H268697   5.765   4.612   5.977 -1.1227 -0.0933  1.1358
15736TIP3   OH268698   1.919   0.997   4.038 -0.6691  0.0110 -0.2637
15736TIP3    H168699   1.991   0.975   4.097 -2.1514  1.7704  2.4568
15736TIP3    H268700   1.847   0.939   4.066 -1.9290  2.0601  1.0201
15737TIP3   OH268701   2.779   1.603  13.343  0.2376  0.0535 -0.1712
15737TIP3    H168702   2.787   1.681  13.287 -0.5381  0.0709 -0.2778
15737TIP3    H268703   2.849   1.545  13.314 -1.2116 -0.7317 -2.4738
15738TIP3   OH268704   2.174   1.347  12.189  0.2136 -0.4768  0.2576
15738TIP3    H168705   2.266   1.326  12.174 -0.2779 -2.0153 -0.8022
15738TIP3    H268706   2.156   1.421  12.131  0.6782 -0.4300  0.1743
15739TIP3   OH268707   4.107   0.461  12.663  1.1716 -0.3201 -0.2818
15739TIP3    H168708   4.113   0.420  12.750  1.1955  2.0507  0.9132
15739TIP3    H268709   4.013   0.476  12.650  1.0945 -1.3895 -1.0502
15740TIP3   OH268710   3.741   1.839  11.168  0.1227 -0.1013 -0.4740
15740TIP3    H168711   3.731   1.768  11.105 -1.8607  0.2617 -0.6164
15740TIP3    H268712   3.703   1.915  11.125  1.0363  0.7643  0.1951
15741TIP3   OH268713   0.665   1.024  14.085  0.3819  0.1385 -0.5138
15741TIP3    H168714   0.758   1.011  14.105  0.4593  1.4853  0.1293
15741TIP3    H268715   0.661   1.111  14.045 -0.9468  1.7247  2.6374
15742TIP3   OH268716   0.807   0.504   0.644  0.2858  0.0049 -0.3613
15742TIP3    H168717   0.788   0.440   0.575  0.9426 -0.9721  0.3357
15742TIP3    H268718   0.828   0.585   0.597 -1.1511 -0.0936 -1.2514
15743TIP3   OH268719   4.031   3.906   5.555 -0.5038 -0.7355 -0.2992
15743TIP3    H168720   4.097   3.847   5.591  1.9010  0.9502 -1.6601
15743TIP3    H268721   3.998   3.955   5.630  1.8797  0.3069  0.1520
15744TIP3   OH268722   4.035   6.844  11.015  0.5606 -0.1203  0.6633
15744TIP3    H168723   3.982   6.856  11.094 -0.2498 -0.1990  0.1484
15744TIP3    H268724   4.058   6.933  10.989 -1.4529  0.1152 -0.4983
15745TIP3   OH268725   2.212   2.541  14.488 -0.8356  0.8053  0.4513
15745TIP3    H168726   2.198   2.599  14.564 -0.0761  1.1592  0.3335
15745TIP3    H268727   2.154   2.577  14.421 -0.7621  1.1156  0.5474
15746TIP3   OH268728   6.683   2.282  12.920  0.5629 -0.0647  0.1572
15746TIP3    H168729   6.649   2.346  12.856 -3.8211 -0.8019  1.3944
15746TIP3    H268730   6.711   2.336  12.994 -3.7042  0.7709  1.4737
15747TIP3   OH268731   6.471   3.198  11.814 -0.1629  0.2538  0.0587
15747TIP3    H168732   6.496   3.225  11.726 -0.6816  0.0722 -0.1469
15747TIP3    H268733   6.423   3.272  11.850  0.4192  0.4965  0.3531
15748TIP3   OH268734   3.521   1.719   3.610 -0.3914 -0.6577 -0.0454
15748TIP3    H168735   3.456   1.756   3.670 -1.9224 -3.3686  0.1353
15748TIP3    H268736   3.542   1.791   3.551 -1.3876  1.1373  1.6394
15749TIP3   OH268737   0.592   3.339   3.357 -0.0383  0.6270  0.0969
15749TIP3    H168738   0.515   3.363   3.409  0.8149 -0.1417  1.7997
15749TIP3    H268739   0.601   3.245   3.370  1.4342  0.7653  0.3063
15750TIP3   OH268740   3.042   1.811   6.350 -0.5248  0.1057  0.3336
15750TIP3    H168741   3.132   1.834   6.373 -0.6785 -0.2254  1.3013
15750TIP3    H268742   3.008   1.891   6.310  0.9533 -0.5466 -2.4449
15751TIP3   OH268743   4.874   2.859  13.154 -0.0448  0.5595  0.3795
15751TIP3    H168744   4.958   2.891  13.124 -0.0575  0.9180  0.7275
15751TIP3    H268745   4.887   2.839  13.246 -0.2365  0.2487  0.3426
15752TIP3   OH268746   5.931   6.818   1.746 -0.1037 -0.1145 -0.0342
15752TIP3    H168747   6.016   6.827   1.790  0.0792  2.1123 -0.7250
15752TIP3    H268748   5.953   6.800   1.655 -0.4041 -0.0054 -0.1269
15753TIP3   OH268749   4.331   0.932  12.368  0.2212  0.3006  0.0014
15753TIP3    H168750   4.269   0.872  12.409  0.4546 -1.1773 -1.6939
15753TIP3    H268751   4.404   0.877  12.340 -0.8427  0.6742 -4.2913
15754TIP3   OH268752   0.549   5.773   6.657  0.0996 -0.1099 -0.2630
15754TIP3    H168753   0.527   5.709   6.724 -0.6460  0.1683 -0.2395
15754TIP3    H268754   0.577   5.720   6.582  1.2101 -0.4136  0.3473
15755TIP3   OH268755   5.124   6.207   0.394 -0.0713 -0.1629 -0.5620
15755TIP3    H168756   5.136   6.299   0.368  0.6230 -0.5970 -1.8614
15755TIP3    H268757   5.046   6.179   0.346 -0.9480  0.0515  0.7105
15756TIP3   OH268758   1.584   2.505   4.335 -0.1201 -0.3597 -0.4760
15756TIP3    H168759   1.625   2.445   4.397  0.3374 -1.0066 -1.3782
15756TIP3    H268760   1.507   2.458   4.303 -1.6255  0.8500  1.2069
15757TIP3   OH268761   3.863   2.885   2.100 -0.5390 -0.1921  0.5516
15757TIP3    H168762   3.866   2.851   2.189 -1.6969  1.0405  1.0888
15757TIP3    H268763   3.795   2.834   2.057 -1.0055  0.2047  0.8149
15758TIP3   OH268764   3.108   4.678  11.131 -1.0721 -0.2240  0.6268
15758TIP3    H168765   3.029   4.719  11.095 -1.8044 -0.2098  2.1427
15758TIP3    H268766   3.176   4.694  11.066 -1.7534  1.8771  0.3678
15759TIP3   OH268767   3.507   6.628   1.973 -0.2135 -0.1770 -0.0912
15759TIP3    H168768   3.477   6.538   1.962  1.2810 -0.5458 -1.4981
15759TIP3    H268769   3.601   6.624   1.956 -0.3565  1.8825 -1.6421
15760TIP3   OH268770   2.842   1.117  16.714  0.1250  0.4019  1.0276
15760TIP3    H168771   2.758   1.080  16.740  0.6638 -0.5450  1.4950
15760TIP3    H268772   2.894   1.116  16.795  0.5766  1.0238  0.7573
15761TIP3   OH268773   6.844   5.426  13.031  0.2204  0.1240 -0.2025
15761TIP3    H168774   6.764   5.479  13.021 -0.4058 -0.9428 -0.9534
15761TIP3    H268775   6.824   5.344  12.987  1.9676  0.0598 -0.9301
15762TIP3   OH268776   4.563   6.021  17.109 -0.0677 -0.5550  0.1949
15762TIP3    H168777   4.594   6.111  17.099 -1.0432 -0.1929  0.3514
15762TIP3    H268778   4.617   5.985  17.180  2.5223 -1.1401 -1.9343
15763TIP3   OH268779   0.027   0.854   0.841  0.5275 -0.2758 -0.3075
15763TIP3    H168780   0.010   0.919   0.909  1.7698 -2.9024  2.7594
15763TIP3    H268781  -0.060   0.833   0.807 -0.5982 -1.0858  2.7609
15764TIP3   OH268782   4.660   5.281  13.773 -0.2972  0.1009  0.2094
15764TIP3    H168783   4.601   5.320  13.837  0.2574  2.2251 -0.4847
15764TIP3    H268784   4.730   5.346  13.763  0.3365 -0.7933 -1.5358
15765TIP3   OH268785   2.339   1.245   1.053 -0.5647 -0.2518  0.6010
15765TIP3    H168786   2.353   1.337   1.032 -1.9505 -0.1234  0.1244
15765TIP3    H268787   2.327   1.243   1.148  2.3240 -0.3754  1.0618
15766TIP3   OH268788   4.976   6.377  11.593  0.1888 -0.1552  0.3160
15766TIP3    H168789   4.994   6.439  11.522 -0.9733  0.5413  0.5960
15766TIP3    H268790   5.011   6.420  11.671  1.9788 -1.1727  0.1254
15767TIP3   OH268791   0.628   5.645  13.816 -1.0148 -0.2003  0.4644
15767TIP3    H168792   0.713   5.607  13.841 -0.7170  1.3946  2.0011
15767TIP3    H268793   0.646   5.690  13.733 -0.6401 -0.7564  0.2317
15768TIP3   OH268794   4.950   3.543   2.626 -0.2511  0.3619 -0.2775
15768TIP3    H168795   4.862   3.506   2.640  0.1123 -0.7974 -0.8720
15768TIP3    H268796   5.005   3.466   2.611  0.6038  1.1441 -1.2624
15769TIP3   OH268797   0.048   1.691  12.288 -0.3282  0.4822 -0.0358
15769TIP3    H168798  -0.047   1.675  12.287 -0.5531  1.2399  2.5930
15769TIP3    H268799   0.063   1.742  12.367  2.2144  1.0679 -0.8081
15770TIP3   OH268800   4.038   2.768   4.569  0.6032  0.1078  0.4348
15770TIP3    H168801   3.942   2.774   4.571  0.6789  1.1834  1.6490
15770TIP3    H268802   4.068   2.857   4.582  1.7653 -0.5001  2.2821
15771TIP3   OH268803   6.214   6.488   5.523  0.2082  0.5121  0.2004
15771TIP3    H168804   6.159   6.462   5.450  1.0954 -0.3278 -0.1913
15771TIP3    H268805   6.157   6.478   5.600 -0.5294  0.7814 -0.2982
15772TIP3   OH268806   1.685   2.853  15.705 -0.3992  0.3772 -0.3935
15772TIP3    H168807   1.751   2.793  15.670 -2.0195 -2.3253  0.8044
15772TIP3    H268808   1.619   2.859  15.636  1.1108  3.3299 -1.7196
15773TIP3   OH268809   3.406   1.697   3.957 -0.2076 -0.0411  0.2001
15773TIP3    H168810   3.384   1.612   3.917  0.0271 -0.0527  0.0908
15773TIP3    H268811   3.395   1.760   3.886  4.1143 -0.5055 -1.1897
15774TIP3   OH268812   4.046   0.260  16.086 -0.3235 -0.4365  0.2884
15774TIP3    H168813   4.050   0.228  15.996 -0.9615  0.0326  0.0841
15774TIP3    H268814   4.055   0.355  16.078  2.0565 -0.5519  0.9311
15775TIP3   OH268815   3.907   4.183   1.404  0.5859  0.1549  0.3204
15775TIP3    H168816   3.817   4.159   1.381  0.5366  0.4815  0.1697
15775TIP3    H268817   3.961   4.133   1.342  0.5490 -0.6493  0.9175
15776TIP3   OH268818   6.009   4.161  10.893 -0.5920  0.2571  0.2300
15776TIP3    H168819   6.043   4.071  10.896 -1.6904 -0.1758  0.0069
15776TIP3    H268820   5.921   4.152  10.858 -0.2861  1.5629 -0.9614
15777TIP3   OH268821   4.726   3.084   2.922 -0.8159  0.0770  0.9795
15777TIP3    H168822   4.702   3.171   2.953  0.0969  0.7186 -0.0360
15777TIP3    H268823   4.818   3.075   2.945 -1.3847 -1.4677  2.8802
15778TIP3   OH268824   1.740   6.649  15.109 -0.8567 -0.0987  0.1002
15778TIP3    H168825   1.672   6.631  15.044 -0.9837 -0.0743  0.2266
15778TIP3    H268826   1.700   6.625  15.192 -0.6479 -0.2558  0.1566
15779TIP3   OH268827   5.380   2.179   0.898  0.1931  0.3166  0.4767
15779TIP3    H168828   5.361   2.147   0.810  1.5709  1.0029 -0.0829
15779TIP3    H268829   5.379   2.100   0.952 -1.5154 -0.0147  0.0390
15780TIP3   OH268830   5.891   3.888   4.887 -0.3999 -0.2796 -0.1823
15780TIP3    H168831   5.956   3.956   4.906  0.5231 -0.9486 -0.9005
15780TIP3    H268832   5.942   3.808   4.876 -1.1846 -0.5557 -2.1343
15781TIP3   OH268833   2.998   5.413  12.697  0.7325 -0.0544 -0.3084
15781TIP3    H168834   2.992   5.470  12.773  0.6807 -1.4258  0.7507
15781TIP3    H268835   2.921   5.356  12.703  0.3349  0.2699 -1.7880
15782TIP3   OH268836   6.087   3.509   2.950 -0.0781  0.0865 -0.3343
15782TIP3    H168837   6.042   3.477   3.028  0.5429  0.5028  0.2072
15782TIP3    H268838   6.021   3.506   2.881 -0.3435 -1.2490 -0.0356
15783TIP3   OH268839   3.642   3.659  13.031 -0.1879 -0.1634 -0.5380
15783TIP3    H168840   3.609   3.650  12.942 -1.2816 -0.7030 -0.1022
15783TIP3    H268841   3.707   3.729  13.026 -1.4570  0.9970 -1.4186
15784TIP3   OH268842   3.679   6.401  11.928 -0.2550  0.1329 -0.1670
15784TIP3    H168843   3.681   6.374  11.837  1.2523  1.0080 -0.4235
15784TIP3    H268844   3.714   6.490  11.928 -0.1051  0.1034  1.2823
15785TIP3   OH268845   2.006   5.533  13.939 -0.3459  0.4067 -0.0273
15785TIP3    H168846   1.977   5.556  14.028  0.9548  1.4141  0.1593
15785TIP3    H268847   1.929   5.490  13.900 -0.5814 -1.1903  1.9694
15786TIP3   OH268848   0.702   2.218  11.636 -0.7677  0.8205  0.1875
15786TIP3    H168849   0.744   2.246  11.717 -0.3719  0.6833  0.0345
15786TIP3    H268850   0.721   2.288  11.574 -1.1021  0.9433  0.2247
15787TIP3   OH268851   3.044   0.236  13.928 -0.9629  0.2226 -0.4096
15787TIP3    H168852   2.951   0.218  13.941 -0.6225 -0.2171  2.0608
15787TIP3    H268853   3.068   0.186  13.850 -2.6423 -0.1959 -0.6918
15788TIP3   OH268854   2.573   4.942  12.323  0.0665  0.0116 -0.9403
15788TIP3    H168855   2.637   4.874  12.344 -0.7563 -0.5944 -0.3347
15788TIP3    H268856   2.548   4.979  12.407 -1.0150 -0.3504 -1.0943
15789TIP3   OH268857   0.134   6.786   4.170  0.5017  0.2578 -0.5440
15789TIP3    H168858   0.175   6.871   4.187  0.7927 -0.1207  0.8227
15789TIP3    H268859   0.090   6.765   4.252  0.0473 -0.7053 -1.0250
15790TIP3   OH268860   5.357   0.827  16.563 -0.0561 -0.3897  0.6263
15790TIP3    H168861   5.412   0.778  16.624  1.1257  0.4971  0.3185
15790TIP3    H268862   5.382   0.794  16.477  1.9140  1.7188  0.2751
15791TIP3   OH268863   4.004   2.555  11.414  0.8366  0.3752 -0.6257
15791TIP3    H168864   3.967   2.508  11.489  2.0752 -2.1377 -1.4397
15791TIP3    H268865   4.069   2.613  11.452 -0.1575  0.8558  0.3922
15792TIP3   OH268866   0.434   4.427   6.471 -0.8169 -0.5195 -0.4296
15792TIP3    H168867   0.387   4.458   6.394  1.4806 -0.3704 -1.8812
15792TIP3    H268868   0.490   4.501   6.496 -1.1768 -0.7367  1.1252
15793TIP3   OH268869   0.071   5.845   1.496 -0.1924 -0.0374  0.3840
15793TIP3    H168870   0.015   5.919   1.519  1.8649  1.4369  0.9909
15793TIP3    H268871   0.076   5.848   1.400 -1.3380 -0.3862  0.2970
15794TIP3   OH268872   0.734   2.028  15.042  0.1843 -0.4521 -0.3725
15794TIP3    H168873   0.766   2.034  14.952  0.3696  0.3118 -0.2575
15794TIP3    H268874   0.712   2.117  15.066  2.2884 -0.2444  1.1177
15795TIP3   OH268875   3.453   0.596  16.139 -0.1270  0.2557 -0.1176
15795TIP3    H168876   3.381   0.533  16.149  0.8803 -1.1957 -1.5290
15795TIP3    H268877   3.531   0.548  16.166  0.6509  0.9287 -1.0817
15796TIP3   OH268878   3.297   6.219  15.677 -0.2378 -0.2893 -0.2898
15796TIP3    H168879   3.306   6.135  15.720  1.5830  0.5397  1.0399
15796TIP3    H268880   3.213   6.254  15.708 -1.0478 -1.5882 -0.9237
15797TIP3   OH268881   1.941   0.637  15.369  0.1740 -0.3374 -0.0787
15797TIP3    H168882   1.943   0.678  15.283 -1.5015 -0.4081 -0.1940
15797TIP3    H268883   1.860   0.586  15.369  0.7476 -1.2912  1.1176
15798TIP3   OH268884   5.510   0.050  15.496 -0.1855 -0.2829 -0.2650
15798TIP3    H168885   5.573   0.121  15.488 -0.8623  0.3901  0.1601
15798TIP3    H268886   5.424   0.093  15.489 -0.6116 -1.0308  0.1671
15799TIP3   OH268887   0.314   3.178  14.992  0.0444  0.1361 -0.6321
15799TIP3    H168888   0.353   3.263  14.971  0.7039  0.1461  0.5441
15799TIP3    H268889   0.360   3.150  15.071 -1.4305 -0.4754  0.0307
15800TIP3   OH268890   3.437   5.929   3.264  0.0322  0.0779  0.4352
15800TIP3    H168891   3.384   5.962   3.337 -0.3323 -0.2281  0.3159
15800TIP3    H268892   3.512   5.989   3.259  0.3262 -0.2042  1.3775
15801TIP3   OH268893   3.869   2.980  13.279 -0.8454  0.5830 -0.0672
15801TIP3    H168894   3.824   2.957  13.198  0.7439  0.9240 -1.1015
15801TIP3    H268895   3.950   2.928  13.277  0.0606  1.9151  0.3846
15802TIP3   OH268896   5.747   1.992  11.267  0.1788  0.3465 -0.1322
15802TIP3    H168897   5.728   1.956  11.354 -0.0479 -0.3460 -0.4681
15802TIP3    H268898   5.693   2.071  11.262  0.4314  0.5650  0.4775
15803TIP3   OH268899   1.160   5.680  12.915 -0.0948 -0.0278  0.2541
15803TIP3    H168900   1.205   5.728  12.846 -1.7378  0.1059 -0.7787
15803TIP3    H268901   1.082   5.643  12.872 -1.5687  0.6798  2.1822
15804TIP3   OH268902   6.037   1.830   3.194  0.6661 -0.4309 -0.2982
15804TIP3    H168903   6.011   1.830   3.286  0.1701 -2.2784 -0.4012
15804TIP3    H268904   6.121   1.875   3.192 -0.1802  1.2871  0.7734
15805TIP3   OH268905   5.827   0.190  13.372 -0.6341  0.1454 -0.6851
15805TIP3    H168906   5.899   0.134  13.344  0.7379  1.3365  0.2733
15805TIP3    H268907   5.849   0.276  13.337 -1.8672  0.4298 -0.7966
15806TIP3   OH268908   4.614   2.283   0.767 -0.2449 -0.4778  0.0084
15806TIP3    H168909   4.646   2.325   0.687  0.4316  0.4100  0.7252
15806TIP3    H268910   4.693   2.264   0.817 -0.7573  3.0801  2.5006
15807TIP3   OH268911   6.556   2.869  16.710  0.2815 -0.6694 -0.7147
15807TIP3    H168912   6.598   2.803  16.764 -0.3435 -0.9566 -0.5650
15807TIP3    H268913   6.491   2.909  16.767 -0.6431 -1.2344 -1.3435
15808TIP3   OH268914   1.592   5.784  11.745  0.3075 -0.1294 -0.6464
15808TIP3    H168915   1.499   5.780  11.765  0.2829 -0.8272 -0.8586
15808TIP3    H268916   1.618   5.692  11.732  1.0136  0.0565 -0.6142
15809TIP3   OH268917   1.351   0.413   3.186 -0.0453  0.4055  0.2662
15809TIP3    H168918   1.414   0.364   3.240 -0.9723 -2.5878 -1.1616
15809TIP3    H268919   1.278   0.429   3.245 -0.2202 -1.0741  0.5069
15810TIP3   OH268920   5.424   2.833  12.051 -0.7183 -0.1211 -0.2287
15810TIP3    H168921   5.353   2.820  11.988 -1.0964  0.5455  0.0430
15810TIP3    H268922   5.497   2.865  11.999 -0.2067 -1.9594 -0.6968
15811TIP3   OH268923   4.947   3.756  13.926 -0.0557  0.1174  0.1311
15811TIP3    H168924   4.866   3.706  13.935  0.7905 -1.1515  1.0638
15811TIP3    H268925   5.008   3.714  13.987  1.9016 -0.1510 -1.8979
15812TIP3   OH268926   4.190   2.550  13.530 -0.4431 -0.0510  0.5041
15812TIP3    H168927   4.204   2.575  13.621 -0.0634 -0.6395  0.6110
15812TIP3    H268928   4.263   2.589  13.483  0.8707 -1.9665  0.8585
15813TIP3   OH268929   3.048   6.096   0.985 -0.3063  0.6347  0.1464
15813TIP3    H168930   3.114   6.083   1.054  0.1308  1.3441 -0.1299
15813TIP3    H268931   3.012   6.183   1.003 -1.0001  0.3534  0.1454
15814TIP3   OH268932   3.950   6.704   2.096  0.2289  0.5218 -0.4495
15814TIP3    H168933   4.037   6.664   2.103  0.4550  1.2179  4.0775
15814TIP3    H268934   3.899   6.641   2.045  2.4265 -1.8684  0.0738
15815TIP3   OH268935   5.883   3.839  17.076 -0.4832  0.0779 -0.2499
15815TIP3    H168936   5.803   3.787  17.088 -1.4841  1.3639 -1.1140
15815TIP3    H268937   5.883   3.899  17.150  0.4663 -0.8635  0.5345
15816TIP3   OH268938   0.113   1.894  13.536  0.0127 -0.3128 -0.5053
15816TIP3    H168939   0.149   1.935  13.615 -0.3114 -0.3873 -0.3164
15816TIP3    H268940   0.179   1.910  13.468 -0.0255  0.3602 -0.3875
15817TIP3   OH268941   3.646   6.817   3.564 -0.1322 -0.2803 -0.2728
15817TIP3    H168942   3.712   6.768   3.614 -0.3369 -0.3763 -0.0930
15817TIP3    H268943   3.614   6.755   3.499 -0.2333 -0.3164 -0.1887
15818TIP3   OH268944   2.838   6.332   3.418 -0.1987 -0.4492 -0.4591
15818TIP3    H168945   2.853   6.424   3.442 -1.5386 -0.6873  1.4920
15818TIP3    H268946   2.763   6.305   3.471 -0.1412 -2.5590 -1.3518
15819TIP3   OH268947   5.932   6.012  12.963  0.5147  0.0957 -0.3284
15819TIP3    H168948   5.939   5.960  13.043  0.5833 -1.4519 -1.2996
15819TIP3    H268949   6.011   6.067  12.963 -0.2053  1.1988  1.3649
15820TIP3   OH268950   6.767   0.919  13.776  0.2109  0.0629  0.4863
15820TIP3    H168951   6.726   0.846  13.823 -0.2501 -0.3249 -0.5059
15820TIP3    H268952   6.780   0.985  13.844 -0.3042 -0.5435  1.2010
15821TIP3   OH268953   2.785   0.727  15.358 -0.2069  0.5706 -0.0356
15821TIP3    H168954   2.838   0.652  15.385 -0.0960  0.1442 -1.3582
15821TIP3    H268955   2.696   0.704  15.386 -0.0807  0.1843  0.0533
15822TIP3   OH268956   6.537   6.111   2.176 -0.1429 -0.2386  0.3824
15822TIP3    H168957   6.572   6.090   2.089  1.3673  0.5376  0.7622
15822TIP3    H268958   6.486   6.191   2.164  2.3739  1.5366  0.6050
15823TIP3   OH268959   0.689   1.479  15.700  0.0248 -0.1222  0.4860
15823TIP3    H168960   0.605   1.505  15.738 -0.3760  0.1222 -0.5379
15823TIP3    H268961   0.666   1.414  15.634  0.5040  0.9178 -0.7350
15824TIP3   OH268962   2.084   0.845  11.500  0.4184 -0.0292 -0.0535
15824TIP3    H168963   2.042   0.901  11.565 -0.6016 -1.8856  0.9927
15824TIP3    H268964   2.153   0.799  11.547 -0.5686 -1.6725 -0.0984
15825TIP3   OH268965   0.039   1.776   5.686 -0.6146  0.2645 -0.4468
15825TIP3    H168966   0.065   1.689   5.715 -3.6317 -0.4673  0.4708
15825TIP3    H268967   0.005   1.763   5.597 -0.4597  0.6341 -0.5637
15826TIP3   OH268968   2.438   5.200  13.250 -0.2662  0.3648  0.2556
15826TIP3    H168969   2.363   5.241  13.292 -1.6267 -0.8404 -0.8832
15826TIP3    H268970   2.417   5.106  13.248  1.2431 -0.0023 -0.1615
15827TIP3   OH268971   0.051   0.379  15.820  0.4825  0.4563 -0.6406
15827TIP3    H168972   0.028   0.323  15.746 -1.9220  0.6545 -0.1297
15827TIP3    H268973   0.100   0.322  15.879 -2.9930 -1.6785  0.4820
15828TIP3   OH268974   0.217   2.287  15.289 -0.1181 -0.0654 -0.0117
15828TIP3    H168975   0.171   2.229  15.349 -1.2119 -1.0986 -1.7467
15828TIP3    H268976   0.168   2.281  15.207  2.1047  0.1123 -1.4649
15829TIP3   OH268977   6.436   1.457  16.563  0.6273  0.6159  0.2720
15829TIP3    H168978   6.361   1.433  16.617 -0.2281 -0.0494 -1.1690
15829TIP3    H268979   6.486   1.376  16.554 -0.1948  0.2508 -1.3791
15830TIP3   OH268980   5.072   0.228  15.099  0.1586  0.1782 -0.1932
15830TIP3    H168981   5.156   0.275  15.102 -0.1490  0.9436 -2.1685
15830TIP3    H268982   5.052   0.210  15.191  3.4853 -1.9125  0.3041
15831TIP3   OH268983   2.494   5.322   2.919  0.2264  0.0145 -0.5142
15831TIP3    H168984   2.554   5.299   2.991 -0.2585 -0.6064 -0.3005
15831TIP3    H268985   2.460   5.408   2.943  0.7138  0.1855 -0.4264
15832TIP3   OH268986   2.400   5.949  16.572  0.2593  0.1073 -0.1184
15832TIP3    H168987   2.395   5.995  16.489  1.6770  0.8729  0.1961
15832TIP3    H268988   2.403   5.856  16.549 -0.1920  0.2743 -0.8654
15833TIP3   OH268989   5.526   1.965   1.239  0.0748  0.4123  0.0259
15833TIP3    H168990   5.458   1.964   1.172 -2.2733  1.6540  2.1858
15833TIP3    H268991   5.493   1.905   1.307  2.1375 -0.4763  0.3181
15834TIP3   OH268992   0.904   3.356   1.879  0.8957 -0.1850 -0.0375
15834TIP3    H168993   0.858   3.430   1.838  1.9369 -0.7361 -2.3515
15834TIP3    H268994   0.867   3.278   1.837  1.8040 -0.8113  0.2936
15835TIP3   OH268995   1.983   4.846   0.959  0.1478  0.2612 -0.2200
15835TIP3    H168996   1.895   4.840   0.924 -0.1046 -0.4395  0.5129
15835TIP3    H268997   1.974   4.900   1.038  0.7280  1.9179 -1.2233
15836TIP3   OH268998   1.358   1.184  15.974 -0.2762 -0.3985  0.1928
15836TIP3    H168999   1.365   1.132  15.894  2.5436 -0.9833  0.7269
15836TIP3    H269000   1.286   1.245  15.956 -1.7381 -2.4656 -1.5833
15837TIP3   OH269001   5.019   6.333  17.074 -0.4432 -0.2326 -0.2820
15837TIP3    H169002   4.995   6.243  17.095 -2.1235 -0.6401 -3.3529
15837TIP3    H269003   5.091   6.324  17.010 -0.1635  0.6428 -0.1035
15838TIP3   OH269004   2.766   2.896  11.252  0.1122 -0.1614 -0.3165
15838TIP3    H169005   2.794   2.862  11.337 -1.8493 -0.3584  0.2855
15838TIP3    H269006   2.763   2.991  11.265  0.2500 -0.1557 -0.3183
15839TIP3   OH269007   1.896   0.497  10.693  0.5620  0.4364  0.1998
15839TIP3    H169008   1.979   0.511  10.646  0.0774 -0.1795 -0.8751
15839TIP3    H269009   1.845   0.440  10.635 -0.3530  0.2520  1.1589
15840TIP3   OH269010   3.743   5.678   6.374  0.1512 -0.3675 -0.5420
15840TIP3    H169011   3.742   5.661   6.468  1.0697 -0.1230 -0.4741
15840TIP3    H269012   3.827   5.722   6.359 -0.4937  0.6460 -1.2962
15841TIP3   OH269013   5.644   1.500   3.762 -0.0586 -0.1176 -0.1134
15841TIP3    H169014   5.566   1.538   3.803  0.1023  0.4393 -0.3201
15841TIP3    H269015   5.702   1.574   3.748  0.1118 -0.3867 -0.8572
15842TIP3   OH269016   4.441   6.756  11.974  0.0116  0.1378 -0.1460
15842TIP3    H169017   4.449   6.749  11.879 -0.5501 -1.3864 -0.1252
15842TIP3    H269018   4.484   6.677  12.007  0.2437  0.6745  0.8779
15843TIP3   OH269019   3.343   2.195  15.689  0.0743  0.1839 -0.4211
15843TIP3    H169020   3.261   2.146  15.688 -0.8455  1.2893  3.2083
15843TIP3    H269021   3.411   2.128  15.699 -0.8098 -0.5956  0.6750
15844TIP3   OH269022   0.857   3.938  11.119  0.3724  0.3445  0.1418
15844TIP3    H169023   0.865   3.946  11.024  1.4670  2.8502  0.3638
15844TIP3    H269024   0.771   3.976  11.139  0.7600  1.1824  0.2529
15845TIP3   OH269025   6.218   4.715  17.103 -0.1677 -0.6308 -0.4456
15845TIP3    H169026   6.239   4.637  17.051  0.5627 -0.0068 -1.0952
15845TIP3    H269027   6.129   4.739  17.075  0.6952  0.4627 -2.3942
15846TIP3   OH269028   4.299   3.831  16.926  0.4512  0.5066  0.1171
15846TIP3    H169029   4.296   3.921  16.960  1.8831  0.2296  1.0833
15846TIP3    H269030   4.218   3.791  16.957  0.8478  0.8243  1.6479
15847TIP3   OH269031   4.945   4.326  12.123  0.7781 -0.0019  0.1501
15847TIP3    H169032   4.962   4.311  12.216  1.1101  2.0103  0.4479
15847TIP3    H269033   5.031   4.342  12.085  0.7145 -1.4139 -0.6608
15848TIP3   OH269034   4.584   2.947   5.006 -0.2421 -0.1898  0.1518
15848TIP3    H169035   4.597   2.974   5.097 -2.9919 -0.9897  0.8770
15848TIP3    H269036   4.633   2.865   4.998  1.6631  0.8946  0.2653
15849TIP3   OH269037   1.736   2.020  16.984  0.2633 -0.0291  0.4206
15849TIP3    H169038   1.671   1.958  17.016 -0.4359  0.6117  0.2773
15849TIP3    H269039   1.717   2.029  16.891  0.4484  0.2921  0.4119
15850TIP3   OH269040   1.991   4.476  11.107  0.1323 -0.0528  0.2458
15850TIP3    H169041   1.983   4.562  11.065  4.4107 -0.1075 -1.1989
15850TIP3    H269042   1.956   4.415  11.042 -1.2959  0.4189  0.5384
15851TIP3   OH269043   4.138   0.126  16.557  0.6506  0.1555 -0.0353
15851TIP3    H169044   4.205   0.182  16.595  0.2390  1.2502 -0.8742
15851TIP3    H269045   4.186   0.053  16.518  1.2365  0.2350  0.5212
15852TIP3   OH269046   2.817   6.525  12.867 -0.0265 -0.3443  0.6569
15852TIP3    H169047   2.773   6.535  12.952 -0.0555 -0.4269  0.6527
15852TIP3    H269048   2.843   6.613  12.842 -0.6025 -0.2381  0.4384
15853TIP3   OH269049   1.928   5.210  13.703 -0.2710  0.8107  0.1508
15853TIP3    H169050   1.876   5.212  13.623 -0.1895 -0.4025  0.0542
15853TIP3    H269051   2.018   5.210  13.673 -0.1997  2.0618  0.3014
15854TIP3   OH269052   4.667   0.811  12.796  0.4456  0.0533 -0.1798
15854TIP3    H169053   4.725   0.734  12.798  0.8371  0.3487  1.4276
15854TIP3    H269054   4.726   0.885  12.779  0.2707  0.1427 -0.3933
15855TIP3   OH269055   5.571   5.981   1.106 -0.4665 -0.6090 -0.3436
15855TIP3    H169056   5.534   6.068   1.123 -1.7656 -1.1678 -0.1589
15855TIP3    H269057   5.568   5.971   1.011 -0.1100 -0.3768 -0.3822
15856TIP3   OH269058   3.308   6.669  10.533 -0.0038 -0.1821  0.5035
15856TIP3    H169059   3.252   6.742  10.558  0.6416  0.1436  1.0211
15856TIP3    H269060   3.296   6.660  10.439 -2.5229 -1.4637  0.8483
15857TIP3   OH269061   4.248   4.375  11.340 -0.3980  0.1053  0.7080
15857TIP3    H169062   4.178   4.439  11.354  0.4008  0.9558  0.9532
15857TIP3    H269063   4.305   4.416  11.275 -1.0113 -1.3293 -0.8191
15858TIP3   OH269064   4.499   5.811  15.355 -0.1869 -0.4179  0.5464
15858TIP3    H169065   4.463   5.796  15.267 -0.1229  2.1053 -0.0052
15858TIP3    H269066   4.577   5.755  15.359  2.0743  2.0805 -2.6113
15859TIP3   OH269067   3.555   5.896  14.655  0.3503  0.4708 -0.3273
15859TIP3    H169068   3.516   5.983  14.656  1.0645  0.8053  1.8201
15859TIP3    H269069   3.607   5.894  14.575  0.8978  2.2908 -0.0607
15860TIP3   OH269070   5.073   6.701   6.171 -0.6033 -0.4520 -0.1868
15860TIP3    H169071   5.158   6.721   6.131  0.0049  0.6184  1.5696
15860TIP3    H269072   5.057   6.609   6.147  0.4251 -0.3016 -1.5833
15861TIP3   OH269073   4.741   6.682  15.177  0.1798 -0.3159  0.0883
15861TIP3    H169074   4.712   6.670  15.267  0.2845 -1.3179  0.0041
15861TIP3    H269075   4.740   6.777  15.164 -0.2260 -0.1784  1.0084
15862TIP3   OH269076   2.124   0.049   3.834 -0.5057  0.0981 -0.2545
15862TIP3    H169077   2.193  -0.011   3.808 -0.2978  0.2639 -0.0863
15862TIP3    H269078   2.167   0.114   3.889 -0.8679 -0.0400  0.2043
15863TIP3   OH269079   6.558   6.404  11.939 -0.4821 -0.5079 -0.1504
15863TIP3    H169080   6.604   6.420  12.022 -1.0421 -3.1485  0.7818
15863TIP3    H269081   6.469   6.381  11.965 -1.8687  2.4737 -1.8155
15864TIP3   OH269082   6.322   6.798  14.547 -0.1617  0.1205  0.3497
15864TIP3    H169083   6.230   6.823  14.540 -0.3129 -0.8001 -1.8212
15864TIP3    H269084   6.321   6.703  14.558  0.5054  0.0887  0.1985
15865TIP3   OH269085   0.679   5.377   2.118 -0.2505 -0.1247 -0.1753
15865TIP3    H169086   0.748   5.335   2.065  1.9949  3.3784 -0.3689
15865TIP3    H269087   0.599   5.362   2.069  1.2012 -0.0372 -2.7632
15866TIP3   OH269088   2.785   5.098  15.070  0.5976  0.5199  0.3556
15866TIP3    H169089   2.723   5.150  15.120  1.2986  1.6667  0.0798
15866TIP3    H269090   2.809   5.026  15.128  0.1618  0.9112  1.0339
15867TIP3   OH269091   3.710   2.559  12.315  0.1500 -0.1220  0.4504
15867TIP3    H169092   3.672   2.523  12.234 -1.5077 -0.2625  1.2484
15867TIP3    H269093   3.804   2.546  12.305 -0.1503 -1.7407 -0.6898
15868TIP3   OH269094   6.821   5.285   2.116 -0.4945 -0.0520 -0.4383
15868TIP3    H169095   6.770   5.289   2.197  0.7930  0.1567  0.3854
15868TIP3    H269096   6.875   5.363   2.117  1.3116 -1.2434 -0.2693
15869TIP3   OH269097   1.298   4.670   6.185 -0.2342  0.3853  0.1169
15869TIP3    H169098   1.254   4.613   6.248 -0.5978  0.9109  0.3519
15869TIP3    H269099   1.242   4.668   6.107 -0.1515  0.2802  0.0599
15870TIP3   OH269100   4.014   4.075   0.311 -0.2338  0.0995  0.1372
15870TIP3    H169101   3.966   4.025   0.377  1.2349 -1.8550 -0.2167
15870TIP3    H269102   4.103   4.083   0.346 -0.0139  1.0698 -0.5784
15871TIP3   OH269103   0.255   4.472   3.769 -0.0769  0.0550  0.3329
15871TIP3    H169104   0.222   4.511   3.850  1.8565  0.2006  1.1005
15871TIP3    H269105   0.343   4.440   3.792 -0.8285 -3.2010 -0.6961
15872TIP3   OH269106   4.995   1.498   3.595 -0.2202 -0.0914  0.5354
15872TIP3    H169107   5.081   1.463   3.575 -0.5010  0.0713 -1.1059
15872TIP3    H269108   4.994   1.585   3.556 -1.3100 -0.3001  0.0528
15873TIP3   OH269109   2.254   0.127  11.456 -0.4951  0.8162 -0.0735
15873TIP3    H169110   2.294   0.161  11.376  3.4084  1.0886  1.7582
15873TIP3    H269111   2.296   0.042  11.468 -0.9079  0.8374  1.7034
15874TIP3   OH269112   2.738   6.737  16.863 -0.3206  0.4354  0.2692
15874TIP3    H169113   2.688   6.816  16.841  0.3379  0.5747 -0.8124
15874TIP3    H269114   2.828   6.759  16.842 -0.3486 -1.2279 -1.9199
15875TIP3   OH269115   5.720   0.890   4.770  0.3287 -0.0448 -0.5601
15875TIP3    H169116   5.681   0.869   4.686  0.0918 -1.8885 -0.0307
15875TIP3    H269117   5.748   0.805   4.806  0.7397  0.7294  1.0591
15876TIP3   OH269118   1.056   6.754  15.978 -0.0164 -0.4979 -0.1122
15876TIP3    H169119   1.010   6.838  15.975 -0.2652 -0.6542 -0.7170
15876TIP3    H269120   0.986   6.689  15.976  0.1403 -0.7248  1.0072
15877TIP3   OH269121   2.929   3.814   2.552 -0.4692 -0.4307  0.3145
15877TIP3    H169122   2.862   3.853   2.496 -0.4615  1.8831  1.7810
15877TIP3    H269123   3.010   3.821   2.502 -0.6085  0.7725  0.2420
15878TIP3   OH269124   6.744   1.026  12.843  0.4068  0.0384  0.1057
15878TIP3    H169125   6.800   0.949  12.833  0.9985  0.6717 -1.7204
15878TIP3    H269126   6.655   0.990  12.848  0.6103 -0.7530 -1.4150
15879TIP3   OH269127   3.789   6.189  11.146  0.2010 -0.2799 -0.5466
15879TIP3    H169128   3.831   6.110  11.112 -0.8072 -0.5464 -1.2370
15879TIP3    H269129   3.695   6.170  11.142  0.0005 -0.0718  1.8601
15880TIP3   OH269130   3.240   3.382   0.002 -0.0603 -0.1339  0.1777
15880TIP3    H169131   3.261   3.437   0.078  0.1224 -0.8304  0.6385
15880TIP3    H269132   3.175   3.320   0.035  0.9701 -1.2652  0.1249
15881TIP3   OH269133   3.825   4.583  15.860 -0.4053 -0.3287  0.2048
15881TIP3    H169134   3.743   4.536  15.880  1.0084 -2.4938  1.2745
15881TIP3    H269135   3.837   4.641  15.935 -0.0434 -1.3683  0.9703
15882TIP3   OH269136   6.375   0.951  14.342  0.3214  0.4385  0.0538
15882TIP3    H169137   6.395   1.044  14.352  0.5999  0.1895  2.1695
15882TIP3    H269138   6.320   0.929  14.417 -1.9269 -0.5754 -1.7727
15883TIP3   OH269139   2.260   6.030  16.321  0.0869  0.0512 -0.5013
15883TIP3    H169140   2.167   6.028  16.344  0.3779  0.3340  0.7543
15883TIP3    H269141   2.291   6.115  16.352  1.1644 -0.7702  0.7892
15884TIP3   OH269142   4.614   4.246   1.560  0.4202  0.3018  0.2008
15884TIP3    H169143   4.610   4.201   1.645 -1.4324 -1.9554 -0.9476
15884TIP3    H269144   4.524   4.244   1.528  1.3449 -0.7785 -2.6743
15885TIP3   OH269145   1.707   2.466  10.780  0.7571 -0.1736  0.1873
15885TIP3    H169146   1.652   2.544  10.783 -1.9357 -1.8787 -0.8876
15885TIP3    H269147   1.682   2.421  10.700 -0.5267 -3.9103  2.3970
15886TIP3   OH269148   5.836   5.223  15.644 -0.0450  0.6993  0.4786
15886TIP3    H169149   5.836   5.180  15.559 -2.9735 -0.1073  0.7802
15886TIP3    H269150   5.792   5.306  15.630  0.0227  0.8490  1.0983
15887TIP3   OH269151   0.434   1.152  16.308  0.2865 -0.0163 -0.0404
15887TIP3    H169152   0.404   1.062  16.294 -0.7366  0.2337  0.4439
15887TIP3    H269153   0.491   1.170  16.233  1.0193 -1.2734  0.1894
15888TIP3   OH269154   6.785   0.126  13.827  0.3446 -0.1220 -0.5639
15888TIP3    H169155   6.850   0.193  13.809 -2.2803  2.2391 -2.0764
15888TIP3    H269156   6.796   0.062  13.756  1.4742 -0.1634 -0.3620
15889TIP3   OH269157   1.182   2.432  15.512  0.2361  0.5951 -0.1519
15889TIP3    H169158   1.233   2.377  15.452  0.1274  1.9697 -1.5580
15889TIP3    H269159   1.213   2.406  15.599  1.3729 -0.5105 -0.8443
15890TIP3   OH269160   5.367   3.458   1.122 -0.2987  0.4394 -0.0283
15890TIP3    H169161   5.435   3.395   1.095 -0.6392 -0.2730  0.7129
15890TIP3    H269162   5.343   3.503   1.042  0.9826  0.6386 -0.3312
15891TIP3   OH269163   3.453   4.029  12.740 -0.4489  0.1321  0.1352
15891TIP3    H169164   3.449   3.939  12.708  1.9575  0.0913 -0.2143
15891TIP3    H269165   3.361   4.054  12.751 -1.2020 -2.0743 -0.5055
15892TIP3   OH269166   1.260   1.181   5.014  0.3848  0.1965  0.2829
15892TIP3    H169167   1.248   1.211   5.104  1.2384  1.7788 -0.0945
15892TIP3    H269168   1.355   1.174   5.004  0.2650 -0.8280 -0.2320
15893TIP3   OH269169   3.708   5.190   5.145 -0.8158 -0.3742  0.2481
15893TIP3    H169170   3.798   5.197   5.113  0.2964  1.4465  3.2974
15893TIP3    H269171   3.666   5.271   5.116 -0.9567 -0.4474  0.2477
15894TIP3   OH269172   2.736   2.996  15.774 -0.4691 -0.3444  0.2611
15894TIP3    H169173   2.645   2.968  15.768 -0.7293  0.4685  0.4335
15894TIP3    H269174   2.733   3.091  15.784  0.4091 -0.2626 -0.0924
15895TIP3   OH269175   6.487   0.883  12.228  0.9447 -0.2245  0.1877
15895TIP3    H169176   6.399   0.920  12.231  1.6402  1.4616  0.7635
15895TIP3    H269177   6.501   0.845  12.314  1.4307  1.1656  0.7526
15896TIP3   OH269178   3.528   0.829   5.908 -0.1458 -0.2674 -0.3911
15896TIP3    H169179   3.555   0.831   6.000 -0.3326  0.7350 -0.3541
15896TIP3    H269180   3.541   0.918   5.877 -2.1847 -0.0343 -0.7225
15897TIP3   OH269181   6.785   2.856   3.613  0.0466  0.3770  0.3253
15897TIP3    H169182   6.724   2.817   3.676  0.5029 -0.3777  0.3160
15897TIP3    H269183   6.826   2.928   3.660 -0.1144  0.2488  0.6665
15898TIP3   OH269184   6.341   3.029   2.735 -0.5587 -0.1110 -0.6697
15898TIP3    H169185   6.300   3.106   2.696  0.1504 -0.3699 -1.9912
15898TIP3    H269186   6.348   2.967   2.663 -0.8661 -1.3228  0.3083
15899TIP3   OH269187   4.831   0.501  16.296  0.0330  0.4977 -0.5991
15899TIP3    H169188   4.843   0.595  16.288 -0.2268  0.5371 -0.5211
15899TIP3    H269189   4.900   0.473  16.356 -0.5570  0.7935  0.2384
15900TIP3   OH269190   1.573   2.714  13.999 -0.1029 -0.0902  0.0158
15900TIP3    H169191   1.630   2.774  13.951  0.7160 -0.9380 -0.1134
15900TIP3    H269192   1.613   2.628  13.987  0.4182 -0.2969  2.6151
15901TIP3   OH269193   3.732   6.257   3.464  0.2397  0.1145 -0.1939
15901TIP3    H169194   3.815   6.220   3.494  0.4590  0.1012 -0.7899
15901TIP3    H269195   3.748   6.279   3.372 -0.6922 -0.7537 -0.5845
15902TIP3   OH269196   1.532   1.837  13.654  0.0581  0.6148 -0.1319
15902TIP3    H169197   1.509   1.840  13.561  1.0215  0.2696 -0.3994
15902TIP3    H269198   1.472   1.898  13.696 -1.1251 -0.0307 -0.8161
15903TIP3   OH269199   2.875   0.966  13.948 -0.5664 -0.0657  0.0191
15903TIP3    H169200   2.916   0.904  13.888 -0.1815 -1.1121  1.2956
15903TIP3    H269201   2.901   1.052  13.916 -0.2619 -0.5906 -1.2058
15904TIP3   OH269202   1.943   2.577  16.271 -0.3341  0.0444 -0.3670
15904TIP3    H169203   2.016   2.531  16.228 -0.6861  1.2438 -2.3825
15904TIP3    H269204   1.983   2.654  16.311 -0.1896 -0.4494  0.4654
15905TIP3   OH269205   3.478   0.794  11.779 -0.1169  0.7431  0.2996
15905TIP3    H169206   3.526   0.755  11.852  0.1631  1.2295  0.3777
15905TIP3    H269207   3.427   0.864  11.818  0.2429  1.1857 -0.0105
15906TIP3   OH269208   6.381   6.450  16.381 -0.3068 -0.4238 -0.5902
15906TIP3    H169209   6.351   6.392  16.311 -1.2596  0.3187 -0.8020
15906TIP3    H269210   6.380   6.537  16.342  0.5709 -0.1788 -0.0936
15907TIP3   OH269211   1.094   5.189   1.608  0.0536  0.0928  0.1622
15907TIP3    H169212   1.090   5.188   1.703  3.7539  0.8561  0.4464
15907TIP3    H269213   1.012   5.232   1.582 -1.5829 -1.1332  2.8492
15908TIP3   OH269214   4.348   2.667   2.182  0.0802  0.2625  0.0091
15908TIP3    H169215   4.442   2.658   2.169 -0.0200 -0.2796 -0.3990
15908TIP3    H269216   4.311   2.657   2.094 -0.4249 -0.4938  0.3032
15909TIP3   OH269217   3.918   5.421   4.698  0.5321 -0.0733 -0.0993
15909TIP3    H169218   3.987   5.358   4.718  1.1212 -0.6268 -3.2942
15909TIP3    H269219   3.964   5.498   4.666 -0.2123 -0.3227 -1.9410
15910TIP3   OH269220   2.876   5.910   0.237  0.0266 -0.5364 -0.6369
15910TIP3    H169221   2.782   5.891   0.245 -0.0778  0.1318 -0.1766
15910TIP3    H269222   2.879   5.998   0.199  0.4541 -0.1814  0.2098
15911TIP3   OH269223   2.875   3.766  16.032 -0.0514  0.2450 -1.0503
15911TIP3    H169224   2.907   3.759  16.122 -3.7138 -1.8172  0.3535
15911TIP3    H269225   2.953   3.765  15.978  2.2816  0.2084  2.0555
15912TIP3   OH269226   2.330   3.589  15.084  0.4119  0.1455 -0.1642
15912TIP3    H169227   2.281   3.668  15.110 -0.6029 -1.1048  2.0140
15912TIP3    H269228   2.354   3.605  14.993 -0.3306  2.6788 -0.0042
15913TIP3   OH269229   4.051   1.003  13.242  0.0985  0.1957 -0.0323
15913TIP3    H169230   4.111   1.033  13.174  0.1054  1.2462  0.4268
15913TIP3    H269231   4.108   0.987  13.318  0.2741 -2.1388 -0.5831
15914TIP3   OH269232   5.482   0.115   2.896 -0.1020 -0.0939 -0.3628
15914TIP3    H169233   5.447   0.026   2.900 -0.6698  0.0318 -1.9037
15914TIP3    H269234   5.405   0.171   2.894  0.2249  0.3411 -0.9622
15915TIP3   OH269235   3.465   3.704  12.166 -0.4561 -0.1525 -0.2766
15915TIP3    H169236   3.492   3.670  12.252  0.4317 -0.9307 -0.8494
15915TIP3    H269237   3.495   3.638  12.103 -2.1941 -0.1986 -1.1093
15916TIP3   OH269238   3.521   1.077   2.656 -0.1535  0.7557  0.5625
15916TIP3    H169239   3.570   0.995   2.655 -1.6914 -0.2203  1.1113
15916TIP3    H269240   3.476   1.080   2.571 -1.7630 -0.0688  1.3443
15917TIP3   OH269241   3.608   2.821  14.990 -0.6607  0.5643 -0.1720
15917TIP3    H169242   3.670   2.811  14.919 -0.2219 -2.0760  0.4664
15917TIP3    H269243   3.533   2.766  14.965 -1.7777  1.8821  0.1168
15918TIP3   OH269244   0.255   1.274  15.132  0.4748 -0.2119  0.2480
15918TIP3    H169245   0.326   1.221  15.171  0.2963 -0.0664  0.7792
15918TIP3    H269246   0.276   1.276  15.039  0.3771 -1.3916  0.1840
15919TIP3   OH269247   6.274   5.591  16.239  0.0363  0.0902  0.0058
15919TIP3    H169248   6.220   5.543  16.176  0.4104  1.1747 -1.1902
15919TIP3    H269249   6.216   5.658  16.274  0.4109  0.8956 -0.8608
15920TIP3   OH269250   3.166   2.373   1.409  1.0575 -0.1077  0.1690
15920TIP3    H169251   3.215   2.318   1.348  1.4525 -0.8409  1.1437
15920TIP3    H269252   3.195   2.462   1.388  2.1713 -0.4610  0.1665
15921TIP3   OH269253   2.216   4.945   4.011  0.0558 -0.1634  0.2258
15921TIP3    H169254   2.282   4.890   4.052  0.8415  0.5768 -0.0247
15921TIP3    H269255   2.132   4.906   4.038  0.5773 -0.7497  1.0425
15922TIP3   OH269256   3.431   4.918  11.429 -0.5096  0.1155 -0.2045
15922TIP3    H169257   3.415   4.966  11.348 -1.0310 -0.6826 -0.5843
15922TIP3    H269258   3.436   4.826  11.402 -1.5302 -0.2446  0.7730
15923TIP3   OH269259   4.217   0.991   4.187  0.2760  0.9034  0.5228
15923TIP3    H169260   4.255   0.959   4.105 -1.4678 -1.8422  0.6584
15923TIP3    H269261   4.292   1.021   4.239  1.6953  0.0974 -0.9880
15924TIP3   OH269262   6.259   4.390  16.427 -0.0329  0.1564 -0.0727
15924TIP3    H169263   6.332   4.342  16.463  2.0069  1.7445 -1.8155
15924TIP3    H269264   6.244   4.462  16.489  0.7480  0.5593 -0.3481
15925TIP3   OH269265   5.644   6.652  13.346  0.8576  0.4079  0.1058
15925TIP3    H169266   5.612   6.740  13.327 -0.6110 -0.1676 -0.1937
15925TIP3    H269267   5.566   6.597  13.347  1.7702 -0.9535  0.0197
15926TIP3   OH269268   2.615   3.615  13.191  0.5086  0.5487  0.6418
15926TIP3    H169269   2.529   3.640  13.159 -0.1398 -0.7898  1.2742
15926TIP3    H269270   2.666   3.599  13.111  0.4812  2.2063  0.2460
15927TIP3   OH269271   5.035   1.957   0.271  0.1534  0.2037  0.3224
15927TIP3    H169272   4.946   1.923   0.285  0.4949 -0.5641  0.6572
15927TIP3    H269273   5.072   1.963   0.358  1.1829 -1.5891  0.0671
15928TIP3   OH269274   5.948   3.858  14.112  1.3655  0.2537  0.2144
15928TIP3    H169275   5.893   3.821  14.043 -0.1976 -1.4335  2.2195
15928TIP3    H269276   5.933   3.952  14.107  0.6771  0.0972 -1.2134
15929TIP3   OH269277   4.476   5.640  14.539 -0.0244  0.5219 -0.1104
15929TIP3    H169278   4.460   5.651  14.445  0.5806 -0.2430 -0.3091
15929TIP3    H269279   4.571   5.647  14.548 -0.0060 -0.2118  0.3314
15930TIP3   OH269280   0.366   2.310   0.178  0.5340 -0.1932  0.2429
15930TIP3    H169281   0.369   2.404   0.161  0.3897 -0.2770 -0.2810
15930TIP3    H269282   0.458   2.283   0.182  0.7949  0.6576  4.6423
15931TIP3   OH269283   1.852   3.281  15.905 -0.0789 -0.1316 -0.1750
15931TIP3    H169284   1.858   3.375  15.922  0.9919 -0.6545  2.8837
15931TIP3    H269285   1.795   3.248  15.974  0.2592 -1.8599 -0.6835
15932TIP3   OH269286   5.830   3.724  16.721  0.0081  0.1350  0.5447
15932TIP3    H169287   5.890   3.798  16.726 -0.2606  0.4026  0.0082
15932TIP3    H269288   5.885   3.647  16.728  0.7425  0.3079 -2.2042
15933TIP3   OH269289   3.646   1.943   5.401  0.1900 -0.0880  0.2444
15933TIP3    H169290   3.680   2.029   5.375 -1.2535  0.1045 -1.1299
15933TIP3    H269291   3.617   1.903   5.319 -2.4123 -0.4356  1.2424
15934TIP3   OH269292   6.010   5.652  10.922  0.1131 -0.4150 -0.1973
15934TIP3    H169293   6.088   5.648  10.866 -0.6339 -1.2054 -1.2204
15934TIP3    H269294   5.936   5.652  10.861 -0.7583 -2.2702  0.7776
15935TIP3   OH269295   4.850   4.438   4.422 -0.3601 -0.4214  0.7870
15935TIP3    H169296   4.933   4.391   4.426 -2.2269 -4.1674 -0.0012
15935TIP3    H269297   4.872   4.522   4.382  2.9490 -1.4032  0.2475
15936TIP3   OH269298   1.946   2.017   2.708 -0.2019  0.6014  0.6175
15936TIP3    H169299   1.860   2.054   2.689  0.2850  0.2776 -2.8399
15936TIP3    H269300   2.007   2.074   2.660  1.0255 -1.7927 -0.8350
15937TIP3   OH269301   3.107   6.690  11.230 -0.1937  0.2410 -0.0586
15937TIP3    H169302   3.015   6.688  11.204 -0.8394  0.1645  2.0638
15937TIP3    H269303   3.133   6.598  11.232  0.5132  0.3231 -2.3754
15938TIP3   OH269304   3.398   0.669   1.549 -0.0378 -0.4074 -0.1160
15938TIP3    H169305   3.492   0.678   1.564 -0.2495 -0.1549  1.1581
15938TIP3    H269306   3.377   0.583   1.584 -0.8073  0.7902  2.5907
15939TIP3   OH269307   1.456   1.227  14.061 -0.2837  0.0864  0.7958
15939TIP3    H169308   1.550   1.209  14.054 -0.6127 -2.0866  1.2858
15939TIP3    H269309   1.444   1.251  14.153 -0.0013  2.0491  0.3646
15940TIP3   OH269310   5.046   5.159  17.002  0.3035  0.3222  0.4105
15940TIP3    H169311   5.016   5.131  16.915 -1.1895  2.2014  0.2593
15940TIP3    H269312   5.100   5.086  17.033  0.2192 -0.7347 -1.7505
15941TIP3   OH269313   2.352   1.584  13.793 -0.1266 -0.4395  0.2148
15941TIP3    H169314   2.421   1.578  13.859  1.8291  2.0603 -1.3714
15941TIP3    H269315   2.332   1.494  13.769  2.4743 -1.2879  0.9390
15942TIP3   OH269316   0.268   1.583  15.236  0.1806 -0.0675  0.1156
15942TIP3    H169317   0.201   1.553  15.175 -0.3506  0.7514  0.2716
15942TIP3    H269318   0.289   1.507  15.290 -0.7830 -0.2805  0.1969
15943TIP3   OH269319   5.501   2.926   3.722  0.2914 -0.6748 -0.2792
15943TIP3    H169320   5.485   2.834   3.744  1.1708 -1.1244 -1.4016
15943TIP3    H269321   5.537   2.924   3.633  1.1041  0.6856 -0.0245
15944TIP3   OH269322   0.926   3.257   4.458  0.3644  0.1242 -0.1616
15944TIP3    H169323   0.864   3.285   4.525 -0.1489  0.9970 -0.9820
15944TIP3    H269324   0.985   3.196   4.504 -0.5827 -0.0808  0.8278
15945TIP3   OH269325   5.823   3.246  15.039 -0.5240 -0.2477 -0.1717
15945TIP3    H169326   5.873   3.214  14.964 -0.0252 -1.3243  0.5951
15945TIP3    H269327   5.737   3.205  15.029 -0.3627 -0.6365 -0.0080
15946TIP3   OH269328   4.672   5.062   2.760  0.4538  0.1578 -0.3733
15946TIP3    H169329   4.678   4.993   2.826  0.3340  0.4745 -0.0284
15946TIP3    H269330   4.613   5.026   2.694  0.7736 -0.2616 -0.4362
15947TIP3   OH269331   2.343   4.357   4.869  0.0312  0.1346  0.1715
15947TIP3    H169332   2.271   4.418   4.880  0.7462  0.8073  1.4326
15947TIP3    H269333   2.413   4.408   4.828  0.2395 -0.1444  0.1718
15948TIP3   OH269334   4.967   5.958  15.571 -1.0672  0.1583 -0.1121
15948TIP3    H169335   4.962   5.866  15.597 -2.4447  0.5180  1.0702
15948TIP3    H269336   5.058   5.983  15.586 -1.1471 -0.4664  1.5959
15949TIP3   OH269337   2.423   4.612  17.006  0.0383 -0.2637  0.7922
15949TIP3    H169338   2.359   4.541  17.004  0.3708 -0.5764  1.1113
15949TIP3    H269339   2.504   4.570  17.035  0.0349  0.3957  1.7847
15950TIP3   OH269340   5.704   1.773   3.741 -0.5741 -0.4325  0.5386
15950TIP3    H169341   5.740   1.839   3.801  0.6858 -0.1650 -0.4842
15950TIP3    H269342   5.612   1.798   3.731  0.0333  1.6489 -0.3936
15951TIP3   OH269343   5.780   6.019   0.810 -0.0448  0.3651 -0.1713
15951TIP3    H169344   5.685   6.013   0.798  0.1817 -2.2364 -1.3509
15951TIP3    H269345   5.810   6.067   0.733 -0.4379  2.2806  0.8004
15952TIP3   OH269346   6.593   3.255   4.347  0.8765 -0.2815  0.0297
15952TIP3    H169347   6.665   3.293   4.297  1.0525 -0.2366  0.3171
15952TIP3    H269348   6.597   3.161   4.327  0.7102 -0.2146 -0.3378
15953TIP3   OH269349   4.326   2.509  11.769 -0.0840 -0.3943 -0.1014
15953TIP3    H169350   4.247   2.560  11.785  0.4639  0.4096  0.1185
15953TIP3    H269351   4.294   2.424  11.740 -1.0283  0.2223 -0.9480
15954TIP3   OH269352   4.213   0.128  15.661 -0.0872 -0.3084 -0.3172
15954TIP3    H169353   4.273   0.187  15.616  0.5091 -0.8902 -0.2920
15954TIP3    H269354   4.265   0.087  15.729 -1.0588  0.8109  1.1765
15955TIP3   OH269355   0.318   1.015   3.650  0.3270  0.3323 -0.3243
15955TIP3    H169356   0.248   1.072   3.619  0.3941 -0.9656 -3.1984
15955TIP3    H269357   0.363   1.066   3.717 -0.4574  3.0580 -1.7438
15956TIP3   OH269358   3.194   2.778  15.527  0.3455  0.1584  0.4290
15956TIP3    H169359   3.187   2.839  15.454 -1.3860 -0.4959 -0.0029
15956TIP3    H269360   3.106   2.773  15.563  1.1785  0.5481  2.6618
15957TIP3   OH269361   3.186   3.829  12.456  0.6570  0.2938  0.9989
15957TIP3    H169362   3.180   3.734  12.447  0.5766  0.4538 -0.8723
15957TIP3    H269363   3.103   3.854  12.497  1.3441 -0.5613  3.0655
15958TIP3   OH269364   3.354   2.721  11.102 -0.4300 -0.2937  0.3626
15958TIP3    H169365   3.374   2.668  11.025 -1.9894  0.5444 -0.6709
15958TIP3    H269366   3.268   2.690  11.131 -0.9030  0.9200  0.3513
15959TIP3   OH269367   3.947   6.137  14.527 -0.3935 -0.5116  0.3068
15959TIP3    H169368   3.861   6.165  14.496 -0.4494 -2.1604 -1.2099
15959TIP3    H269369   3.994   6.218  14.543 -1.3588  0.4575 -1.4160
15960TIP3   OH269370   2.675   5.431   3.715  0.0599  0.0324  0.6329
15960TIP3    H169371   2.590   5.459   3.681 -0.3131 -0.5027  1.1093
15960TIP3    H269372   2.668   5.336   3.722  1.0506 -0.1229 -0.2536
15961TIP3   OH269373   4.661   0.925   2.559  0.3444 -0.2165  0.3746
15961TIP3    H169374   4.587   0.868   2.580  0.1381  0.1249  0.5735
15961TIP3    H269375   4.629   1.014   2.575  0.5880 -0.0284 -0.1710
15962TIP3   OH269376   4.424   1.300  13.062 -0.6650  0.5820  0.2098
15962TIP3    H169377   4.343   1.254  13.039 -0.1284  0.3875 -1.4733
15962TIP3    H269378   4.477   1.234  13.107 -0.2684 -0.2444 -1.3726
15963TIP3   OH269379   4.509   1.884   6.512  0.2616 -0.0975  0.3471
15963TIP3    H169380   4.493   1.801   6.467 -0.3079  1.1971 -1.9768
15963TIP3    H269381   4.579   1.926   6.462  1.0961  0.5128  1.9604
15964TIP3   OH269382   4.381   1.228  14.248  0.3707  0.4797  0.0718
15964TIP3    H169383   4.448   1.160  14.252  0.1539  0.3220  2.2091
15964TIP3    H269384   4.328   1.205  14.172  0.7993 -1.2724  0.2630
15965TIP3   OH269385   4.203   5.275  12.656  0.2224 -0.1037  0.7646
15965TIP3    H169386   4.296   5.263  12.633  0.4680  0.4905  1.4242
15965TIP3    H269387   4.159   5.286  12.572  0.4995 -1.9902  0.3279
15966TIP3   OH269388   5.210   1.477  11.245  0.1236  0.4950  0.4293
15966TIP3    H169389   5.119   1.492  11.221 -0.3627 -0.2920  1.6629
15966TIP3    H269390   5.238   1.559  11.286  0.1940  0.9746 -0.5615
15967TIP3   OH269391   0.912   3.507   5.538  0.1848  0.1427 -0.0065
15967TIP3    H169392   0.905   3.441   5.607  1.3464 -0.9820 -0.9022
15967TIP3    H269393   0.829   3.502   5.491 -1.0153  1.5951  1.8286
15968TIP3   OH269394   4.201   5.878  16.384 -0.0323  0.5490  0.7059
15968TIP3    H169395   4.141   5.952  16.394  0.0211  0.8038 -0.7194
15968TIP3    H269396   4.274   5.913  16.333 -0.1849 -0.5668 -0.3170
15969TIP3   OH269397   2.632   5.593   6.886  0.4122 -0.1225 -0.0702
15969TIP3    H169398   2.587   5.675   6.903 -1.4570 -1.1494  0.2678
15969TIP3    H269399   2.680   5.607   6.805  1.2962  1.7084  0.7186
15970TIP3   OH269400   3.985   4.523  11.021 -0.0345  0.0296 -0.2083
15970TIP3    H169401   4.076   4.498  11.005 -0.2455 -1.1480  0.3678
15970TIP3    H269402   3.985   4.619  11.016  1.3699  0.0820  0.5093
15971TIP3   OH269403   2.462   4.980  15.130  0.6404 -0.3432 -0.3590
15971TIP3    H169404   2.496   5.058  15.174 -1.3444 -0.4782  1.5522
15971TIP3    H269405   2.463   4.912  15.197  1.0098 -1.6288 -1.6120
15972TIP3   OH269406   0.152   5.797   0.931 -0.5031  0.3454  0.6042
15972TIP3    H169407   0.120   5.878   0.891  0.7613  1.1134  1.0965
15972TIP3    H269408   0.102   5.728   0.887 -0.2620  1.2527 -1.2021
15973TIP3   OH269409   0.141   0.044   2.034  0.1808  0.0770  0.2430
15973TIP3    H169410   0.051   0.016   2.021  0.3032 -1.3034  2.0744
15973TIP3    H269411   0.134   0.135   2.064 -0.5713  0.1391 -0.1193
15974TIP3   OH269412   2.847   1.872  14.424 -0.3180  0.5999 -0.9879
15974TIP3    H169413   2.824   1.920  14.503  2.3769  1.8465 -0.8475
15974TIP3    H269414   2.887   1.937  14.366  1.0219 -0.9468 -1.8960
15975TIP3   OH269415   6.260   0.107   5.915  0.3774  0.0884 -0.2224
15975TIP3    H169416   6.301   0.194   5.906 -0.2318  0.4204  0.1540
15975TIP3    H269417   6.220   0.108   6.001 -0.1099 -0.3697 -0.4396
15976TIP3   OH269418   5.588   1.802  14.257 -0.0506  0.2293 -0.2996
15976TIP3    H169419   5.552   1.829  14.172 -1.4038  1.7101  0.7046
15976TIP3    H269420   5.636   1.878  14.289  1.9683 -0.8973 -0.4724
15977TIP3   OH269421   3.940   4.801   2.931 -0.5921  0.1014 -0.0895
15977TIP3    H169422   4.012   4.738   2.942  0.2194  1.1934  1.1192
15977TIP3    H269423   3.877   4.756   2.874  1.2279 -0.7321 -1.5500
15978TIP3   OH269424   2.587   6.183  12.791 -0.6808 -0.4629  0.6856
15978TIP3    H169425   2.574   6.101  12.744 -0.8666 -1.1549  1.9082
15978TIP3    H269426   2.499   6.221  12.796 -0.4233  0.4243 -0.9178
15979TIP3   OH269427   6.322   1.811   3.879 -0.1265 -0.4458 -0.0574
15979TIP3    H169428   6.272   1.730   3.894  0.3015 -0.9216 -1.1173
15979TIP3    H269429   6.357   1.833   3.965  1.3901 -2.5025 -0.0876
15980TIP3   OH269430   6.766   0.971  16.818 -0.3944 -0.2338 -0.3376
15980TIP3    H169431   6.737   1.061  16.826 -1.2714 -0.5956  0.7095
15980TIP3    H269432   6.832   0.960  16.886 -0.1558 -0.3392 -0.5804
15981TIP3   OH269433   1.261   1.632   6.274 -1.0644 -0.4961  0.1513
15981TIP3    H169434   1.190   1.568   6.279 -0.6770 -0.9547 -0.1676
15981TIP3    H269435   1.238   1.698   6.339 -1.7204 -0.7037  0.1354
15982TIP3   OH269436   5.733   5.013   0.086 -0.2894 -0.2924  0.6467
15982TIP3    H169437   5.725   5.104   0.059  0.5227 -0.2053  0.6799
15982TIP3    H269438   5.728   5.015   0.182  0.1340 -0.2352  0.6688
15983TIP3   OH269439   0.756   6.224   5.540 -0.0142  0.5118  0.2232
15983TIP3    H169440   0.767   6.303   5.593  1.2241  0.3796  0.1895
15983TIP3    H269441   0.763   6.255   5.449 -1.1945  0.5953  0.1419
15984TIP3   OH269442   6.282   0.538   0.298  0.5873 -0.4802  0.3348
15984TIP3    H169443   6.289   0.488   0.217 -3.1634  0.1630 -0.5422
15984TIP3    H269444   6.326   0.622   0.278 -2.9721  0.9894 -2.3755
15985TIP3   OH269445   6.295   5.444  11.416  0.4281  0.1075 -0.4047
15985TIP3    H169446   6.226   5.392  11.457  0.3077 -0.5994 -1.4515
15985TIP3    H269447   6.370   5.434  11.473 -0.7818  2.3916  1.7728
15986TIP3   OH269448   6.030   6.392   2.335 -0.0949  0.1445  0.0076
15986TIP3    H169449   6.006   6.429   2.420  0.9901  3.4537 -0.9399
15986TIP3    H269450   6.118   6.356   2.349 -0.1826  0.0962  0.4437
15987TIP3   OH269451   0.749   0.074  13.031 -0.8984 -0.2146  0.3418
15987TIP3    H169452   0.726   0.164  13.054  1.5212  0.3124  0.9190
15987TIP3    H269453   0.795   0.082  12.947  0.0691 -0.7847  0.8026
15988TIP3   OH269454   5.833   1.641  15.975  0.1274 -0.1820  0.3137
15988TIP3    H169455   5.858   1.680  16.058  1.4627  1.1949 -0.6605
15988TIP3    H269456   5.913   1.599  15.943  0.4770  1.6827 -1.4918
15989TIP3   OH269457   2.743   6.661  15.130  0.3315 -0.4575  0.2070
15989TIP3    H169458   2.749   6.662  15.035 -1.0947 -2.0620  0.0541
15989TIP3    H269459   2.778   6.575  15.156 -1.4568 -1.0338  0.8974
15990TIP3   OH269460   3.848   2.340   2.492 -0.3560 -0.0759  0.3847
15990TIP3    H169461   3.855   2.270   2.427  1.2892 -0.1215  0.5773
15990TIP3    H269462   3.796   2.408   2.449  1.5292  0.3172 -1.3886
15991TIP3   OH269463   3.472   6.488  15.766 -0.2551 -0.9904  0.2947
15991TIP3    H169464   3.487   6.457  15.677  1.3356 -1.5338  0.7094
15991TIP3    H269465   3.539   6.444  15.818 -1.7137 -1.3866  1.9319
15992TIP3   OH269466   5.341   3.774  15.639  0.2627  0.2878  0.2153
15992TIP3    H169467   5.351   3.842  15.705 -1.5974 -0.9381  1.8928
15992TIP3    H269468   5.375   3.695  15.681 -2.1179 -0.7756  0.2820
15993TIP3   OH269469   4.314   3.562   1.275  0.2221  0.0846  0.1260
15993TIP3    H169470   4.366   3.516   1.341 -0.1510  0.2275  0.5316
15993TIP3    H269471   4.377   3.589   1.209  0.4598 -0.9446 -0.0875
15994TIP3   OH269472   4.060   6.565  11.959 -0.4281 -0.2824 -0.0893
15994TIP3    H169473   4.074   6.494  12.023 -2.5394 -0.1609  0.5626
15994TIP3    H269474   3.966   6.581  11.961  0.0536  3.1026  0.3725
15995TIP3   OH269475   0.353   0.283   2.280  0.0414 -0.0184 -0.2404
15995TIP3    H169476   0.385   0.360   2.326 -1.6218 -0.3959  1.7046
15995TIP3    H269477   0.349   0.309   2.188  0.2346  1.9570  0.2708
15996TIP3   OH269478   6.284   3.669  13.142 -0.3060  0.3317  0.3763
15996TIP3    H169479   6.340   3.632  13.074 -0.1196  0.5348  0.4206
15996TIP3    H269480   6.340   3.729  13.191  0.1754 -1.3870  2.0852
15997TIP3   OH269481   0.180   2.031   3.038  0.5307 -0.6620  0.5166
15997TIP3    H169482   0.116   2.089   3.080  0.2853 -2.1613  2.3112
15997TIP3    H269483   0.257   2.086   3.026 -0.0530  0.3349  1.1732
15998TIP3   OH269484   5.210   2.448  14.568 -0.3098  0.2809 -0.1619
15998TIP3    H169485   5.220   2.421  14.477 -0.9906  0.7887 -0.3958
15998TIP3    H269486   5.300   2.463  14.598 -0.0035 -1.0669 -0.3685
15999TIP3   OH269487   4.887   2.143   5.230 -0.4209 -0.4382 -0.4698
15999TIP3    H169488   4.975   2.175   5.210 -0.2696 -0.5318  0.0300
15999TIP3    H269489   4.862   2.191   5.309 -1.3876  0.6381 -1.3819
16000TIP3   OH269490   1.340   2.018  12.866  0.7967  0.6890  0.0959
16000TIP3    H169491   1.323   2.109  12.843  1.8020  0.8914  0.0969
16000TIP3    H269492   1.272   1.995  12.928  0.0234  1.1702 -0.5584
16001TIP3   OH269493   3.088   3.470   5.455  0.1544  0.4067  0.0001
16001TIP3    H169494   3.057   3.459   5.545 -1.4159 -1.3368 -0.6612
16001TIP3    H269495   3.008   3.461   5.402  1.3776 -1.2683 -1.6822
16002TIP3   OH269496   5.072   4.928   3.916  0.3937  0.2929 -0.1693
16002TIP3    H169497   5.029   4.845   3.896 -0.5569  0.3620  1.3477
16002TIP3    H269498   5.060   4.981   3.837 -1.6885  0.0229 -0.1071
16003TIP3   OH269499   1.912   0.341   3.889 -0.2696 -0.4070 -0.2439
16003TIP3    H169500   1.915   0.336   3.793 -0.2976  1.1706 -0.3594
16003TIP3    H269501   1.938   0.254   3.919  0.2054 -0.7822 -1.6748
16004TIP3   OH269502   4.483   6.060  11.227 -0.2945  0.0792 -0.4320
16004TIP3    H169503   4.397   6.078  11.190 -0.9270  0.9095  1.3375
16004TIP3    H269504   4.465   6.025  11.315  1.0858 -3.2702 -1.3215
16005TIP3   OH269505   0.628   0.131  16.339 -0.3561  0.4006  0.5112
16005TIP3    H169506   0.695   0.127  16.407  1.1505  1.0832 -0.8420
16005TIP3    H269507   0.545   0.134  16.386  0.6770  2.1477  2.3760
16006TIP3   OH269508   6.484   3.971   6.141 -0.0718  0.1306  0.2679
16006TIP3    H169509   6.508   3.878   6.142 -2.5469 -0.5783  1.8594
16006TIP3    H269510   6.428   3.982   6.217  0.6717  3.1365  0.4862
16007TIP3   OH269511   3.318   1.510  12.915 -0.3812 -0.4254 -0.0765
16007TIP3    H169512   3.351   1.545  12.832  1.6616 -1.5532  0.1862
16007TIP3    H269513   3.340   1.578  12.980 -0.7866 -0.1218 -0.2529
16008TIP3   OH269514   4.333   1.763   4.923  0.4109  0.6581 -0.0674
16008TIP3    H169515   4.335   1.858   4.920  1.1925  0.6352 -0.5060
16008TIP3    H269516   4.424   1.738   4.938  0.0356  0.0181  1.3254
16009TIP3   OH269517   3.226   2.372  17.084  0.0355  0.1843  0.1520
16009TIP3    H169518   3.313   2.395  17.115  0.3009 -3.3803  2.6980
16009TIP3    H269519   3.237   2.286  17.044 -2.1425  0.1159 -0.4223
16010TIP3   OH269520   2.941   1.788  15.174 -0.1315  0.0645 -0.0869
16010TIP3    H169521   3.008   1.724  15.151  0.8834  1.3837 -0.9561
16010TIP3    H269522   2.868   1.735  15.206  1.3265 -1.4236  0.9774
16011TIP3   OH269523   2.087   4.105   5.108 -0.0275  0.0022  0.0751
16011TIP3    H169524   1.994   4.089   5.098 -0.2558  1.1671  0.1928
16011TIP3    H269525   2.119   4.118   5.018  0.0114 -0.3199  0.0409
16012TIP3   OH269526   5.169   5.351   0.037 -0.7305 -0.5583  0.1405
16012TIP3    H169527   5.116   5.371   0.114 -1.0067  0.4021 -0.2884
16012TIP3    H269528   5.124   5.277  -0.003 -0.7030 -0.9327  0.7785
16013TIP3   OH269529   4.116   2.068  16.891 -0.1110 -0.1893  0.8459
16013TIP3    H169530   4.022   2.059  16.878 -0.1682  0.6920  0.5847
16013TIP3    H269531   4.129   2.054  16.985 -0.3818 -1.1726  0.7510
16014TIP3   OH269532   4.984   6.803  13.163 -0.3732  0.2477 -0.2135
16014TIP3    H169533   4.959   6.751  13.240 -1.0535  1.2577  0.2689
16014TIP3    H269534   5.031   6.878  13.199  0.5540  0.0081 -0.8965
16015TIP3   OH269535   3.927   1.812  12.908 -0.0751 -0.1786 -0.4909
16015TIP3    H169536   4.014   1.778  12.926 -0.0663 -0.1325 -0.4440
16015TIP3    H269537   3.882   1.808  12.993  0.8688  2.7177  0.2524
16016TIP3   OH269538   3.819   3.766  13.625  0.1168  0.3399 -0.5818
16016TIP3    H169539   3.725   3.748  13.631  0.2117  0.2476  1.7407
16016TIP3    H269540   3.825   3.862  13.627  0.0504  0.3930 -2.0315
16017TIP3   OH269541   4.172   3.741   0.228 -0.2311  0.1632  0.0265
16017TIP3    H169542   4.116   3.765   0.154 -0.0852  0.3828 -0.0145
16017TIP3    H269543   4.181   3.822   0.279  0.7016  0.3417 -0.4008
16018TIP3   OH269544   4.151   5.489   1.735 -0.2651 -0.4531 -0.0617
16018TIP3    H169545   4.118   5.574   1.706 -1.3497 -0.5663  0.7651
16018TIP3    H269546   4.220   5.511   1.798 -1.1232 -0.1572  0.7973
16019TIP3   OH269547   6.248   1.118   0.078 -0.3206 -0.4534  0.4347
16019TIP3    H169548   6.166   1.110   0.031 -0.9935 -0.3474  1.5591
16019TIP3    H269549   6.233   1.188   0.142  0.7941 -0.1057  0.3521
16020TIP3   OH269550   1.453   4.737  14.996  0.3089  0.1665  0.2563
16020TIP3    H169551   1.428   4.770  14.910  0.2903  0.0710  0.2255
16020TIP3    H269552   1.545   4.763  15.006  0.2332  0.4137  0.3223
16021TIP3   OH269553   3.703   0.453  15.641  0.2853 -0.3469  0.4096
16021TIP3    H169554   3.738   0.511  15.573 -0.6462  0.1344  0.3274
16021TIP3    H269555   3.733   0.366  15.616 -0.2695 -0.2154 -0.7749
16022TIP3   OH269556   2.237   4.176  13.300 -0.3451 -0.8346  0.3043
16022TIP3    H169557   2.145   4.193  13.321 -0.1331 -0.1110  0.6907
16022TIP3    H269558   2.234   4.112  13.229 -1.1320 -1.4060  0.8298
16023TIP3   OH269559   0.121   3.119   2.781 -0.2052 -0.2215  0.2821
16023TIP3    H169560   0.133   3.098   2.688  0.1282  1.7742 -0.1698
16023TIP3    H269561   0.181   3.060   2.826 -0.8979 -1.7339 -0.6755
16024TIP3   OH269562   2.833   6.584   5.327  0.1723 -0.7740  0.7081
16024TIP3    H169563   2.908   6.641   5.344  0.9057 -1.8227  1.1133
16024TIP3    H269564   2.761   6.625   5.374  0.5015  0.2200  0.3686
16025TIP3   OH269565   3.559   3.642  13.582  0.1297  0.9131 -0.4158
16025TIP3    H169566   3.519   3.627  13.496 -1.9056 -0.3880  0.6741
16025TIP3    H269567   3.601   3.558  13.603  1.8089  1.6511 -0.6826
16026TIP3   OH269568   4.530   0.544   2.992 -0.2027 -0.0255  0.2049
16026TIP3    H169569   4.574   0.519   3.073 -1.7160  1.8762  1.7249
16026TIP3    H269570   4.598   0.585   2.939  0.8691 -1.5178  0.3613
16027TIP3   OH269571   4.141   5.310   5.559  0.1955 -0.1356 -0.3793
16027TIP3    H169572   4.140   5.313   5.463 -0.8630  0.0041 -0.3702
16027TIP3    H269573   4.170   5.397   5.585  2.5131 -0.7692 -0.5670
16028TIP3   OH269574   1.368   1.725  14.640  0.2173  0.5928  0.1894
16028TIP3    H169575   1.303   1.755  14.576  1.2549  1.4871 -0.4684
16028TIP3    H269576   1.440   1.787  14.632 -0.8004  2.7017  4.3618
16029TIP3   OH269577   1.369   6.468  15.111 -0.1674 -0.8611 -0.3934
16029TIP3    H169578   1.299   6.469  15.176  0.3766  1.3282  0.2514
16029TIP3    H269579   1.375   6.558  15.080  1.5591 -1.2446 -1.3201
16030TIP3   OH269580   2.418   4.946  14.047  0.7751  0.5198  0.1982
16030TIP3    H169581   2.429   4.868  13.992 -1.9057  1.3059 -1.6979
16030TIP3    H269582   2.440   4.917  14.135 -1.8032 -2.9943 -0.0980
16031TIP3   OH269583   6.368   5.029   5.865  0.5446 -0.7060 -0.3602
16031TIP3    H169584   6.361   5.074   5.948 -1.7791 -0.5669 -0.5538
16031TIP3    H269585   6.375   5.098   5.799 -0.7895 -0.6551 -0.4823
16032TIP3   OH269586   0.544   4.995  16.935 -0.1646 -0.5736  0.3362
16032TIP3    H169587   0.466   5.033  16.975  0.5412 -0.6901  1.8670
16032TIP3    H269588   0.509   4.933  16.870 -1.3366 -0.1409  0.5324
16033TIP3   OH269589   2.127   5.031  14.527 -0.0873  0.3246 -0.0427
16033TIP3    H169590   2.064   5.069  14.589 -0.8656 -0.2243 -0.4940
16033TIP3    H269591   2.098   5.063  14.441 -0.2461 -0.6021 -0.3384
16034TIP3   OH269592   2.484   3.447  12.677 -0.0989 -0.2396 -0.1648
16034TIP3    H169593   2.415   3.462  12.613  1.1494  1.2799 -1.2385
16034TIP3    H269594   2.454   3.491  12.756 -1.3687 -1.5904  0.1534
16035TIP3   OH269595   2.215   0.483   5.034 -0.4600 -0.0974  0.1946
16035TIP3    H169596   2.268   0.510   5.109 -0.9138 -0.8909  0.8192
16035TIP3    H269597   2.185   0.565   4.995  0.8737  0.3490  0.0805
16036TIP3   OH269598   1.142   0.374   3.361 -0.4520  0.2784 -0.5039
16036TIP3    H169599   1.050   0.395   3.371 -0.8638  0.7403 -4.0611
16036TIP3    H269600   1.145   0.279   3.349 -0.0283 -0.1731  2.2613
16037TIP3   OH269601   6.711   1.954   2.988 -0.3978  1.1154  0.0323
16037TIP3    H169602   6.739   1.943   2.897 -0.8947  0.7343 -0.0808
16037TIP3    H269603   6.722   2.048   3.005  0.1111  1.1142 -0.2784
16038TIP3   OH269604   6.789   2.161   6.322 -0.0597  0.6060  0.4314
16038TIP3    H169605   6.809   2.126   6.409  0.6095 -0.3763 -0.1041
16038TIP3    H269606   6.820   2.095   6.261 -1.2320  0.9226 -0.5556
16039TIP3   OH269607   3.365   3.534  10.710 -0.1358  0.5623  0.3108
16039TIP3    H169608   3.347   3.454  10.759  0.9005  0.5448  0.6953
16039TIP3    H269609   3.403   3.503  10.628 -1.2528  0.6145 -0.2371
16040TIP3   OH269610   1.379   1.869   4.429 -0.1063  0.6694 -0.0182
16040TIP3    H169611   1.293   1.861   4.471  0.9264 -1.5370  1.8936
16040TIP3    H269612   1.440   1.833   4.493  1.8363 -1.2121 -2.7139
16041TIP3   OH269613   6.592   1.276   1.134 -0.4700 -0.0501  0.1661
16041TIP3    H169614   6.648   1.201   1.151 -0.7929 -0.0813  1.1575
16041TIP3    H269615   6.512   1.239   1.096 -0.1444 -0.0820 -0.4966
16042TIP3   OH269616   5.657   3.611  14.092  0.5057  0.4999 -0.8729
16042TIP3    H169617   5.649   3.516  14.103 -0.7164  0.6855 -0.0190
16042TIP3    H269618   5.657   3.624  13.997 -0.4292 -0.2697 -0.9910
16043TIP3   OH269619   5.404   6.731  13.960  0.1053 -0.3851 -0.5822
16043TIP3    H169620   5.332   6.688  13.915 -0.6066 -1.0636  1.1461
16043TIP3    H269621   5.478   6.724  13.899 -1.3799  0.9130 -2.6809
16044TIP3   OH269622   2.092   0.426   0.376 -0.0411  0.1394  0.4329
16044TIP3    H169623   2.018   0.371   0.402 -1.3542  1.4632 -0.3220
16044TIP3    H269624   2.092   0.423   0.280  2.1046 -1.3237  0.4097
16045TIP3   OH269625   1.612   5.464  12.268  0.2524  0.4109  0.0818
16045TIP3    H169626   1.542   5.504  12.216  1.6755  0.9793 -1.4819
16045TIP3    H269627   1.609   5.511  12.351 -1.9408 -0.3822  0.5299
16046TIP3   OH269628   2.801   0.143   4.890  0.5715  0.6512 -0.2877
16046TIP3    H169629   2.837   0.060   4.857  1.3729  1.3931 -1.3418
16046TIP3    H269630   2.754   0.118   4.969  0.4936 -0.8740 -0.7715
16047TIP3   OH269631   4.800   3.935  14.072 -0.2400  0.2755  0.2202
16047TIP3    H169632   4.858   3.997  14.115  0.3931  1.2272 -1.8588
16047TIP3    H269633   4.857   3.866  14.040 -0.6653 -0.2976  0.6688
16048TIP3   OH269634   0.335   3.945   2.193 -0.0330  0.2603  0.2200
16048TIP3    H169635   0.300   3.883   2.130 -1.4074  0.5220  0.6988
16048TIP3    H269636   0.317   3.906   2.279  2.7056 -0.5835  0.5213
16049TIP3   OH269637   5.615   2.868  16.033 -0.3916  0.6930  0.0141
16049TIP3    H169638   5.573   2.895  15.951  0.5892  1.5512 -0.2350
16049TIP3    H269639   5.683   2.807  16.005  1.2484  2.4513 -0.0839
16050TIP3   OH269640   1.624   4.818   4.973  0.4411  0.5461 -0.3751
16050TIP3    H169641   1.626   4.732   5.015  0.5838  0.0250 -1.4251
16050TIP3    H269642   1.531   4.834   4.956  0.5512 -0.4486 -2.2170
16051TIP3   OH269643   0.502   1.255  13.681  0.0614 -0.1347 -0.1183
16051TIP3    H169644   0.514   1.315  13.608  0.3745  2.8310  2.2116
16051TIP3    H269645   0.591   1.226  13.704  0.3392  1.4698  0.9981
16052TIP3   OH269646   6.644   3.374   5.324  0.1991  0.6593  0.1432
16052TIP3    H169647   6.624   3.467   5.327 -0.8599  0.4615 -0.3254
16052TIP3    H269648   6.687   3.361   5.239 -2.2680  0.2800 -1.1542
16053TIP3   OH269649   5.546   3.955  16.811  0.3235  0.3446 -0.5932
16053TIP3    H169650   5.503   3.900  16.877 -0.7493  1.7075 -0.0994
16053TIP3    H269651   5.478   3.973  16.746  1.0318  0.0259 -1.4440
16054TIP3   OH269652   6.276   1.255  14.432  0.1047 -0.3474  0.1904
16054TIP3    H169653   6.323   1.246  14.515  0.2596 -1.0354  0.0387
16054TIP3    H269654   6.337   1.301  14.375 -0.7648  2.0224  1.0398
16055TIP3   OH269655   1.151   1.864  17.009 -1.3684 -0.0333  0.1880
16055TIP3    H169656   1.155   1.898  16.919  0.0222  0.9579  0.5798
16055TIP3    H269657   1.163   1.769  16.999 -0.6930  0.1214 -0.6641
16056TIP3   OH269658   2.361   2.959  12.270 -0.5110 -0.6778 -0.2743
16056TIP3    H169659   2.273   2.946  12.232  0.1027  0.5023 -2.2613
16056TIP3    H269660   2.393   2.870  12.286 -1.9163 -1.1393  0.1067
16057TIP3   OH269661   4.338   0.946   1.470  0.9140  0.0549 -0.5401
16057TIP3    H169662   4.262   0.995   1.503  1.8329  1.3945 -0.3153
16057TIP3    H269663   4.384   1.009   1.414  1.8228 -0.7555 -0.7214
16058TIP3   OH269664   6.247   4.290   0.040 -0.8401  0.0764 -0.0133
16058TIP3    H169665   6.277   4.362  -0.017  1.6672  0.2990  1.4429
16058TIP3    H269666   6.325   4.235   0.051 -1.4467 -0.3630  2.5690
16059TIP3   OH269667   5.228   1.977   1.794 -0.1367  0.4848  0.0890
16059TIP3    H169668   5.199   1.897   1.839  1.1936  0.0882  0.2790
16059TIP3    H269669   5.302   1.949   1.741  0.0857  1.5207 -0.1655
16060TIP3   OH269670   0.615   5.346  16.834  0.0022 -0.1455  0.4592
16060TIP3    H169671   0.618   5.421  16.774  0.3867 -0.8258 -0.4072
16060TIP3    H269672   0.706   5.335  16.861  0.7373 -2.5885 -2.4290
16061TIP3   OH269673   0.716   4.178  16.679  0.3849 -0.5689 -0.6432
16061TIP3    H169674   0.808   4.180  16.707  0.0317  1.3556  0.5041
16061TIP3    H269675   0.695   4.268  16.657 -1.6511 -0.6832  0.5914
16062TIP3   OH269676   3.786   6.654   5.034  0.4654  0.1835  0.3465
16062TIP3    H169677   3.785   6.667   5.129 -0.1579 -0.5244  0.4513
16062TIP3    H269678   3.825   6.733   4.999  1.8501 -0.0500  1.2781
16063TIP3   OH269679   3.447   6.537   0.045  0.3946 -0.0566  0.0301
16063TIP3    H169680   3.470   6.624   0.012 -1.0096  0.8026  1.1621
16063TIP3    H269681   3.523   6.510   0.096 -0.1971  1.8456  2.0995
16064TIP3   OH269682   5.359   1.503  11.008  0.2097 -0.0719  0.3793
16064TIP3    H169683   5.341   1.436  11.075 -0.4855  1.0909  1.4030
16064TIP3    H269684   5.273   1.536  10.984  0.5439  0.3697 -0.2148
16065TIP3   OH269685   5.037   6.096  11.569  0.1911 -0.2909  0.0694
16065TIP3    H169686   5.031   6.191  11.580 -0.2727 -0.0344 -1.9880
16065TIP3    H269687   4.952   6.063  11.599 -0.0756  0.0784 -0.2647
16066TIP3   OH269688   0.615   0.041   3.086  0.3142  0.0365  0.3471
16066TIP3    H169689   0.657   0.079   3.008 -0.1408 -0.4024 -0.1269
16066TIP3    H269690   0.688   0.010   3.140  0.6109 -0.9692 -0.5924
16067TIP3   OH269691   5.336   6.823   2.187 -0.2941 -0.0994  0.1275
16067TIP3    H169692   5.344   6.789   2.276  0.7195 -0.0771  0.0587
16067TIP3    H269693   5.366   6.914   2.194  1.5616 -0.6165 -0.5534
16068TIP3   OH269694   4.366   0.501  13.589  0.1420 -0.3308  0.0300
16068TIP3    H169695   4.391   0.412  13.566  1.6230  0.7144 -3.0398
16068TIP3    H269696   4.287   0.518  13.538  0.4896  0.4134 -0.2929
16069TIP3   OH269697   6.401   1.917   6.100  0.3577 -0.6638  0.0418
16069TIP3    H169698   6.370   1.867   6.176  0.9028 -0.1011  0.6485
16069TIP3    H269699   6.494   1.930   6.118  0.0126  1.5174  0.4445
16070TIP3   OH269700   3.277   6.845   4.372  0.0562  0.4228  0.4484
16070TIP3    H169701   3.347   6.780   4.380 -0.3216 -0.0793 -0.2304
16070TIP3    H269702   3.321   6.926   4.348  0.2424 -0.4326 -2.4808
16071TIP3   OH269703   3.475   4.669   4.227 -0.1070  0.4873  0.1323
16071TIP3    H169704   3.504   4.725   4.298  0.5415  0.4718 -0.1129
16071TIP3    H269705   3.514   4.583   4.247 -0.0436  0.4474 -0.1623
16072TIP3   OH269706   3.852   1.223  13.592 -0.6340  0.0392 -0.3881
16072TIP3    H169707   3.841   1.226  13.497  0.1626 -0.4096 -0.4936
16072TIP3    H269708   3.911   1.150  13.608  0.2889  0.9099  0.3492
16073TIP3   OH269709   1.316   6.728  16.476  0.0624 -0.1012  0.1385
16073TIP3    H169710   1.404   6.754  16.447  0.4282  0.3756  1.5791
16073TIP3    H269711   1.274   6.810  16.501 -0.5267 -0.4068  0.1598
16074TIP3   OH269712   0.529   3.294   1.574 -0.2577  0.0714 -0.1987
16074TIP3    H169713   0.489   3.318   1.658 -0.7671 -0.9926 -0.1122
16074TIP3    H269714   0.598   3.358   1.561 -0.2222  0.3046  1.0046
16075TIP3   OH269715   4.088   5.480   2.387  0.0137  0.2473  0.4691
16075TIP3    H169716   3.999   5.450   2.404  0.4440 -0.7517  1.0431
16075TIP3    H269717   4.078   5.552   2.325 -1.1826  0.0942  0.4704
16076TIP3   OH269718   1.011   1.148  13.631  0.6248 -0.5680  0.1204
16076TIP3    H169719   1.045   1.179  13.715  0.3379 -0.2073  0.1057
16076TIP3    H269720   1.040   1.213  13.568 -0.5782  0.0641  0.1914
16077TIP3   OH269721   2.367   4.620  12.152 -0.2197 -0.5589  0.1517
16077TIP3    H169722   2.356   4.715  12.161 -0.6456 -0.5265 -0.6935
16077TIP3    H269723   2.451   4.610  12.107 -0.7569 -0.5447 -0.8531
16078TIP3   OH269724   0.125   2.566   0.678  0.1878  0.2263 -0.3572
16078TIP3    H169725   0.120   2.563   0.583 -0.0786 -1.4342 -0.3188
16078TIP3    H269726   0.081   2.647   0.703 -0.0983  0.4682 -1.6189
16079TIP3   OH269727   2.319   6.734  14.106 -0.4377  0.0724 -0.4953
16079TIP3    H169728   2.414   6.742  14.095 -0.5599  2.3178 -0.3443
16079TIP3    H269729   2.282   6.782  14.032 -1.4420 -0.0506 -0.0911
16080TIP3   OH269730   6.442   1.678   2.805 -0.3821 -0.6927 -0.0166
16080TIP3    H169731   6.471   1.612   2.742 -0.2883 -1.6316  0.9935
16080TIP3    H269732   6.430   1.757   2.752  0.1756 -1.3237 -1.1272
16081TIP3   OH269733   4.427   4.061   0.748  0.1712 -0.0805 -0.4468
16081TIP3    H169734   4.474   4.130   0.701  1.2485 -0.5507 -0.0981
16081TIP3    H269735   4.494   3.994   0.765 -0.2637 -0.1006  1.4049
16082TIP3   OH269736   0.402   6.041  11.147  0.4456 -0.8311 -0.3114
16082TIP3    H169737   0.353   6.022  11.067 -1.1445  0.0070  0.4184
16082TIP3    H269738   0.479   5.985  11.141 -0.7722 -2.5078 -1.3328
16083TIP3   OH269739   3.331   0.714  13.728  0.4505  0.1063  0.0886
16083TIP3    H169740   3.307   0.773  13.657  0.6889  1.8536  1.4054
16083TIP3    H269741   3.427   0.712  13.726  0.4725 -2.7780 -1.8950
16084TIP3   OH269742   0.135   3.305  14.608 -0.2048 -0.1991  0.1423
16084TIP3    H169743   0.162   3.223  14.566 -2.9449 -0.7194 -0.8316
16084TIP3    H269744   0.186   3.373  14.565 -0.5242 -1.0604 -1.6819
16085TIP3   OH269745   0.534   3.801  15.358 -0.0116  0.3966  0.5564
16085TIP3    H169746   0.488   3.762  15.433 -0.6669  1.7790  0.8906
16085TIP3    H269747   0.626   3.778  15.372 -0.4986 -2.2788 -0.0425
16086TIP3   OH269748   3.201   6.114  16.129 -0.0044 -0.1933 -0.3579
16086TIP3    H169749   3.109   6.089  16.141  0.1552 -0.6636 -0.1099
16086TIP3    H269750   3.198   6.184  16.064 -0.5174 -0.4117 -0.5758
16087TIP3   OH269751   3.331   3.533   3.014 -0.0083 -0.4850  0.1893
16087TIP3    H169752   3.315   3.470   2.943 -0.4879 -0.6717  0.4592
16087TIP3    H269753   3.270   3.508   3.083  0.4175 -0.2672  0.6503
16088TIP3   OH269754   6.371   6.027   3.619 -0.2741 -0.7398  0.5718
16088TIP3    H169755   6.386   5.997   3.709  1.7093 -0.2065  0.4771
16088TIP3    H269756   6.406   6.116   3.618  1.2113 -1.2840 -1.0917
16089TIP3   OH269757   0.676   5.133  12.905 -0.1043  0.1416 -0.4683
16089TIP3    H169758   0.587   5.117  12.873 -0.2832  0.1162  0.0335
16089TIP3    H269759   0.723   5.052  12.887 -0.2000  0.1270 -0.6628
16090TIP3   OH269760   0.819   1.316  14.681 -0.1591 -0.4632 -0.2767
16090TIP3    H169761   0.778   1.350  14.601 -1.4324 -2.2452 -0.4625
16090TIP3    H269762   0.890   1.260  14.648  1.3428  1.1928 -0.0065
16091TIP3   OH269763   3.119   2.895   2.270 -0.0220 -0.6962 -0.4117
16091TIP3    H169764   3.051   2.883   2.203  0.1167 -0.4831 -0.5919
16091TIP3    H269765   3.074   2.941   2.341  0.0674 -0.0284 -0.7713
16092TIP3   OH269766   1.774   3.370   3.536  0.3768 -0.7171 -0.1824
16092TIP3    H169767   1.727   3.318   3.471 -0.6026  0.0712 -0.1216
16092TIP3    H269768   1.757   3.461   3.510  2.6707 -0.3710 -0.7504
16093TIP3   OH269769   1.103   1.948   3.630 -0.1341 -0.2838 -0.0648
16093TIP3    H169770   1.025   1.921   3.581 -0.5014 -0.6306  0.6825
16093TIP3    H269771   1.175   1.902   3.587 -0.4107 -0.3542 -0.4596
16094TIP3   OH269772   0.328   0.405   3.978 -0.9385  0.3114  0.0520
16094TIP3    H169773   0.352   0.473   3.916 -1.4150  0.8243  0.4277
16094TIP3    H269774   0.235   0.417   3.992 -2.0250 -2.8195 -2.8678
16095TIP3   OH269775   6.485   5.903   3.867  0.4695 -0.0509  0.0985
16095TIP3    H169776   6.531   5.822   3.845  1.0248  0.3630 -0.2974
16095TIP3    H269777   6.551   5.972   3.855 -0.6769  0.7554 -2.1706
16096TIP3   OH269778   3.955   3.117   1.146  0.3952  0.5014 -0.1262
16096TIP3    H169779   3.962   3.149   1.057  0.1460  0.8262 -0.0324
16096TIP3    H269780   3.966   3.195   1.201 -2.6866  0.9513  0.0685
16097TIP3   OH269781   5.213   5.089   0.724  0.5728  0.1461  0.3029
16097TIP3    H169782   5.130   5.129   0.700 -0.6713 -0.8169  2.7387
16097TIP3    H269783   5.220   5.014   0.665  0.3197  0.8970 -0.7095
16098TIP3   OH269784   0.205   6.468   4.341  0.1816 -0.0366 -0.1315
16098TIP3    H169785   0.154   6.398   4.382 -1.0020  0.2436 -1.0895
16098TIP3    H269786   0.217   6.533   4.411 -1.6499  0.3557 -0.1547
16099TIP3   OH269787   0.858   3.552   3.902 -0.0053  0.2278  0.4234
16099TIP3    H169788   0.795   3.515   3.964 -1.1788 -0.1173 -0.9035
16099TIP3    H269789   0.828   3.642   3.888  1.0676  0.7505  1.3706
16100TIP3   OH269790   5.713   0.201   3.442  0.2303  0.2362 -0.6476
16100TIP3    H169791   5.646   0.186   3.376 -0.9752  1.1240  0.3413
16100TIP3    H269792   5.725   0.296   3.443 -0.4537  0.3441  1.0321
16101TIP3   OH269793   0.027   5.566   2.181  0.3769 -0.0038 -0.4813
16101TIP3    H169794   0.061   5.655   2.181  0.7400 -0.1368 -1.2741
16101TIP3    H269795  -0.061   5.573   2.144  0.5778 -0.0327 -0.9709
16102TIP3   OH269796   4.063   4.224  14.081  0.5838  0.3777 -0.5069
16102TIP3    H169797   4.026   4.302  14.039 -0.3984 -0.2723 -0.8772
16102TIP3    H269798   3.994   4.194  14.139  0.9249 -0.2816 -0.4365
16103TIP3   OH269799   0.206   1.779   3.104 -0.2962  0.1314  0.0532
16103TIP3    H169800   0.197   1.874   3.107  0.9925  0.2984 -0.5447
16103TIP3    H269801   0.218   1.758   3.011 -1.4848 -0.7218  0.0740
16104TIP3   OH269802   0.484   5.551   3.288 -0.1434  0.4133  0.1489
16104TIP3    H169803   0.417   5.499   3.244 -0.1158  1.0713 -0.6877
16104TIP3    H269804   0.436   5.602   3.354 -0.1778 -0.6022  0.9356
16105TIP3   OH269805   2.895   2.503   3.414 -0.1644  0.3111 -0.1912
16105TIP3    H169806   2.862   2.419   3.445  0.0221  0.2088 -0.2731
16105TIP3    H269807   2.950   2.535   3.486 -0.0991  0.2848 -0.2296
16106TIP3   OH269808   2.659   6.237  14.691 -0.1769  0.0766  0.8056
16106TIP3    H169809   2.721   6.182  14.644  0.5126  0.3372  1.3901
16106TIP3    H269810   2.582   6.241  14.634  0.6810  0.5098 -0.3626
16107TIP3   OH269811   5.729   2.884   0.329 -0.5765 -0.2030  0.8018
16107TIP3    H169812   5.797   2.909   0.392  0.0299 -1.7695  0.8162
16107TIP3    H269813   5.678   2.817   0.375  0.8046 -2.5166 -0.8145
16108TIP3   OH269814   4.911   6.416   4.925  0.1886 -0.2700  0.5212
16108TIP3    H169815   4.992   6.468   4.918  0.1739 -0.4398 -1.5843
16108TIP3    H269816   4.841   6.481   4.922  0.1987 -0.3022 -0.8854
16109TIP3   OH269817   3.760   6.278   4.036 -0.4118 -0.0807 -0.1318
16109TIP3    H169818   3.669   6.287   4.063 -0.2236 -0.7067  0.7479
16109TIP3    H269819   3.809   6.276   4.118  0.5124  1.2737 -0.6156
16110TIP3   OH269820   2.928   1.407  12.005 -0.1177  0.1915  0.5743
16110TIP3    H169821   2.912   1.502  12.003 -1.1225  0.0337  0.3265
16110TIP3    H269822   2.854   1.370  11.958  1.2392 -0.6050 -1.0372
16111TIP3   OH269823   3.799   2.231   0.543 -0.1122 -0.5576  0.2575
16111TIP3    H169824   3.857   2.155   0.532 -2.6068 -2.3502 -1.5599
16111TIP3    H269825   3.767   2.250   0.455  1.3551  3.5327  0.4195
16112TIP3   OH269826   5.262   1.697  14.035 -0.1625 -0.2249  0.5490
16112TIP3    H169827   5.320   1.771  14.018  0.5145 -1.1814 -1.5411
16112TIP3    H269828   5.207   1.690  13.957  0.0089 -2.1263  0.5673
16113TIP3   OH269829   6.604   2.779  14.997  0.5131  0.0795  0.3927
16113TIP3    H169830   6.567   2.867  15.004  0.0643 -0.1404  0.8626
16113TIP3    H269831   6.698   2.792  15.007  0.5478  0.6131 -0.4947
16114TIP3   OH269832   3.577   3.671  11.539  0.1373 -0.6078  0.9552
16114TIP3    H169833   3.652   3.665  11.599  0.8167  0.9210  0.2947
16114TIP3    H269834   3.529   3.748  11.568 -1.3214 -1.6477  1.4583
16115TIP3   OH269835   2.618   0.075   5.744  0.1024 -0.4932 -0.1236
16115TIP3    H169836   2.610   0.146   5.809  0.9372  0.4037 -0.9584
16115TIP3    H269837   2.562   0.005   5.778  0.3928  0.0038  1.4849
16116TIP3   OH269838   3.209   5.634   0.832 -0.1185  0.1217  0.3664
16116TIP3    H169839   3.148   5.580   0.782  1.3730 -0.7658 -0.5824
16116TIP3    H269840   3.245   5.575   0.899  0.7417  0.2246  0.0053
16117TIP3   OH269841   5.502   0.282  11.166  0.8676 -0.1948  0.0323
16117TIP3    H169842   5.488   0.352  11.230 -0.2997 -0.6117  0.2497
16117TIP3    H269843   5.548   0.214  11.215  1.8442  0.3356 -0.1333
16118TIP3   OH269844   4.231   0.296   2.598  0.1519  0.0461  0.0929
16118TIP3    H169845   4.273   0.325   2.679 -0.5227  3.6665 -0.6834
16118TIP3    H269846   4.304   0.277   2.539  0.6840  0.4800  0.5996
16119TIP3   OH269847   6.231   4.680   1.601 -1.0161  0.1936 -0.5294
16119TIP3    H169848   6.216   4.665   1.507 -2.5534 -0.2067 -0.2391
16119TIP3    H269849   6.296   4.750   1.603 -1.0266  0.2802 -1.8982
16120TIP3   OH269850   6.800   4.235  13.051 -0.0427 -0.3270  0.4642
16120TIP3    H169851   6.750   4.295  13.107 -2.0961  0.5451 -2.1156
16120TIP3    H269852   6.865   4.291  13.009 -1.1332 -0.0868 -0.9802
16121TIP3   OH269853   5.855   2.058  16.467  1.0126 -0.8881 -0.5302
16121TIP3    H169854   5.814   1.995  16.408 -1.0644 -0.2798  0.1675
16121TIP3    H269855   5.819   2.037  16.554  0.9966  0.6445 -0.1335
16122TIP3   OH269856   4.166   5.373  13.519 -0.3687 -0.2942 -0.2844
16122TIP3    H169857   4.225   5.313  13.475  0.8084 -0.5750  1.5540
16122TIP3    H269858   4.208   5.459  13.512  2.2495 -0.9381  3.8499
16123TIP3   OH269859   5.964   1.946   2.926 -0.4594  0.1038  0.1083
16123TIP3    H169860   6.048   1.985   2.901 -0.4123  0.9480  1.5016
16123TIP3    H269861   5.985   1.887   2.999 -0.8293 -1.1168 -0.7269
16124TIP3   OH269862   0.840   4.382   6.540 -0.4255  0.4840  0.1384
16124TIP3    H169863   0.779   4.314   6.567  0.7913 -0.4184  0.6774
16124TIP3    H269864   0.870   4.421   6.622  0.3820  0.3202 -0.0722
16125TIP3   OH269865   2.858   5.460   4.090  0.3802 -0.1114 -0.3192
16125TIP3    H169866   2.885   5.443   3.999  2.3917  0.5892  0.0982
16125TIP3    H269867   2.933   5.434   4.143 -0.3947  0.3984  1.0909
16126TIP3   OH269868   2.292   3.066   5.320 -0.5971  0.1484 -0.7130
16126TIP3    H169869   2.351   3.000   5.357  0.5261  0.5640 -1.6777
16126TIP3    H269870   2.211   3.018   5.301 -0.2087 -0.6842 -0.3214
16127TIP3   OH269871   6.478   6.613  15.868  0.1551 -0.5133  0.6253
16127TIP3    H169872   6.391   6.580  15.849  0.0590 -0.5699  1.1453
16127TIP3    H269873   6.526   6.537  15.902  0.1608 -0.2982  1.1038
16128TIP3   OH269874   3.639   4.441   4.373  0.3078  0.0542 -0.2973
16128TIP3    H169875   3.637   4.401   4.286  1.2516  0.3124 -0.4407
16128TIP3    H269876   3.692   4.382   4.426 -0.4834 -0.2428  0.1929
16129TIP3   OH269877   3.830   0.476  15.072  0.3679 -0.1485  0.2388
16129TIP3    H169878   3.814   0.462  14.979 -0.5240  0.6554  0.2592
16129TIP3    H269879   3.896   0.410  15.095 -1.2550 -2.0825 -0.3653
16130TIP3   OH269880   1.712   0.228   0.056  0.2218  0.6537 -0.5515
16130TIP3    H169881   1.640   0.258   0.002  1.3623  2.3358 -1.2157
16130TIP3    H269882   1.790   0.267   0.017  1.4114 -0.3867  0.6545
16131TIP3   OH269883   4.372   0.936   2.794 -1.0076  0.7530  0.3189
16131TIP3    H169884   4.328   0.878   2.856  1.7437 -1.3012  0.5635
16131TIP3    H269885   4.439   0.981   2.846  0.5411 -0.0793 -0.8504
16132TIP3   OH269886   6.640   1.399   5.002  0.0187 -0.2932 -0.1657
16132TIP3    H169887   6.632   1.435   4.915 -1.4469 -2.2354 -0.9065
16132TIP3    H269888   6.729   1.363   5.005  1.2183  2.4752  0.3291
16133TIP3   OH269889   4.331   2.804   1.410 -0.5087 -0.3582 -0.1452
16133TIP3    H169890   4.411   2.854   1.431 -0.8180  0.1374 -0.1187
16133TIP3    H269891   4.334   2.729   1.469 -1.0690  0.7054  1.3167
16134TIP3   OH269892   5.031   6.823  13.943 -0.0601 -0.4561 -0.3924
16134TIP3    H169893   4.941   6.794  13.958 -0.7011  1.1709 -0.7710
16134TIP3    H269894   5.081   6.743  13.932 -0.7706 -1.5859  3.3292
16135TIP3   OH269895   5.728   2.425  11.560  0.2510  0.5091 -0.2640
16135TIP3    H169896   5.639   2.461  11.563  0.1386  0.2141  2.3655
16135TIP3    H269897   5.715   2.330  11.550  0.0773  0.1490  2.6720
16136TIP3   OH269898   0.424   3.196   2.937 -0.1352  0.3157  0.0667
16136TIP3    H169899   0.393   3.182   3.027 -1.6072 -2.5976 -0.7695
16136TIP3    H269900   0.516   3.169   2.939 -0.3700 -0.4947  0.5669
16137TIP3   OH269901   4.324   4.713  11.554 -0.4371 -0.1475  0.1787
16137TIP3    H169902   4.391   4.749  11.612 -1.2558 -0.3972  1.3319
16137TIP3    H269903   4.371   4.653  11.497  0.9437  2.5059 -1.6910
16138TIP3   OH269904   6.334   5.700  11.316 -0.1532  0.3957  0.0958
16138TIP3    H169905   6.310   5.610  11.341 -0.2938  0.6335  0.8350
16138TIP3    H269906   6.255   5.734  11.272  0.2624 -0.1863 -1.1629
16139TIP3   OH269907   1.682   3.700  11.485 -0.3317 -0.6016 -0.3105
16139TIP3    H169908   1.674   3.685  11.391 -1.5754 -0.2046 -0.2885
16139TIP3    H269909   1.675   3.795  11.495 -1.8424 -0.7496  0.2944
16140TIP3   OH269910   5.974   5.809   3.118 -0.0041 -0.1229 -0.5783
16140TIP3    H169911   5.931   5.885   3.080 -0.1506 -0.3411 -0.8532
16140TIP3    H269912   6.053   5.844   3.159 -1.4175  0.6209  1.7084
16141TIP3   OH269913   6.538   3.324  11.552 -0.5173 -0.4476  0.2560
16141TIP3    H169914   6.619   3.277  11.532 -2.0371 -2.9235 -0.4687
16141TIP3    H269915   6.566   3.415  11.562  2.3085 -1.1573 -0.1762
16142TIP3   OH269916   0.893   0.106   0.801  0.1447 -0.5667  0.5687
16142TIP3    H169917   0.869   0.037   0.739 -1.1388 -0.3071  0.7369
16142TIP3    H269918   0.897   0.062   0.886 -0.9211 -0.4155  0.7144
16143TIP3   OH269919   2.232   1.961   4.833  0.0288  0.5216  0.0174
16143TIP3    H169920   2.200   1.879   4.871 -0.7356 -0.1277 -1.8979
16143TIP3    H269921   2.154   2.017   4.829  0.6306  1.5532  1.7114
16144TIP3   OH269922   5.529   5.041  11.178  0.2029  0.2072 -0.2606
16144TIP3    H169923   5.533   5.134  11.155  0.6469  0.1347 -0.4915
16144TIP3    H269924   5.451   5.009  11.133  1.0289  0.0824 -1.6597
16145TIP3   OH269925   6.582   0.645  13.090  0.4202  0.2303 -0.1234
16145TIP3    H169926   6.590   0.568  13.146  0.4881  0.6735  0.4814
16145TIP3    H269927   6.670   0.659  13.056  0.7136  0.8575  0.8661
16146TIP3   OH269928   5.055   0.131   3.641  0.4101  0.0293 -0.0755
16146TIP3    H169929   5.067   0.209   3.696 -3.1794 -1.2977  3.0065
16146TIP3    H269930   5.021   0.165   3.558  0.1389  1.8168  0.7104
16147TIP3   OH269931   4.933   4.166  11.661 -0.2148 -0.0881 -0.1654
16147TIP3    H169932   4.939   4.106  11.736  0.9989 -0.2016 -0.3385
16147TIP3    H269933   4.854   4.137  11.614 -1.4160  0.4417  1.4285
16148TIP3   OH269934   1.276   6.382   3.905  0.5417 -0.0854 -0.4744
16148TIP3    H169935   1.232   6.466   3.889 -0.7269 -0.7157 -0.4429
16148TIP3    H269936   1.326   6.366   3.825 -0.0308  0.2100 -0.9041
16149TIP3   OH269937   5.111   1.039   4.071 -0.5430 -0.1141 -0.1261
16149TIP3    H169938   5.127   1.124   4.110  2.0132 -0.9711  0.9219
16149TIP3    H269939   5.112   0.978   4.144 -2.9574 -1.0722 -0.7690
16150TIP3   OH269940   0.776   5.557   2.569  0.4042 -0.0541 -0.1638
16150TIP3    H169941   0.728   5.501   2.508 -0.1773 -0.2794  0.4820
16150TIP3    H269942   0.708   5.611   2.609  0.8526  0.4836 -0.1207
16151TIP3   OH269943   4.935   3.786  13.511 -0.0902 -0.1606  0.4833
16151TIP3    H169944   4.919   3.710  13.456 -0.5579 -1.1828  1.9794
16151TIP3    H269945   4.937   3.860  13.450  0.0920 -1.3164 -0.9622
16152TIP3   OH269946   4.131   1.622   0.679 -0.2495 -0.3627 -0.1657
16152TIP3    H169947   4.081   1.703   0.668  0.7747  0.2462 -0.5183
16152TIP3    H269948   4.066   1.553   0.670 -1.0854  0.4075 -0.2524
16153TIP3   OH269949   5.802   2.885   4.977 -0.1492  0.3613 -0.0098
16153TIP3    H169950   5.777   2.794   4.988  0.9712  0.0235 -0.0826
16153TIP3    H269951   5.722   2.935   4.993 -0.6492 -0.6008  0.5592
16154TIP3   OH269952   1.397   0.772  12.452  0.2430  0.1985 -0.0426
16154TIP3    H169953   1.397   0.861  12.488  2.7045  0.5588 -0.7266
16154TIP3    H269954   1.397   0.715  12.530  3.1716  0.9361  0.6397
16155TIP3   OH269955   3.120   1.141  12.762  0.4390  0.2652 -0.3909
16155TIP3    H169956   3.176   1.146  12.685  0.3914  0.0823 -0.4380
16155TIP3    H269957   3.037   1.181  12.733  0.0523 -0.7862 -0.7727
16156TIP3   OH269958   4.165   6.364  16.555  0.0295  0.1978 -0.4550
16156TIP3    H169959   4.222   6.290  16.577 -1.2202 -0.5641  0.3694
16156TIP3    H269960   4.156   6.359  16.460  3.6214  2.1199 -1.0605
16157TIP3   OH269961   6.701   5.973  15.545 -0.1207 -0.5910  0.0212
16157TIP3    H169962   6.722   5.880  15.544  1.5500 -0.2617 -1.2038
16157TIP3    H269963   6.776   6.014  15.589  0.7494  0.4222 -2.2338
16158TIP3   OH269964   2.293   6.056  12.972  0.1665  0.3149 -0.5342
16158TIP3    H169965   2.249   6.084  12.892  0.1470  1.3547 -0.1712
16158TIP3    H269966   2.386   6.053  12.950  0.0294 -1.0274 -1.0508
16159TIP3   OH269967   3.325   0.272  16.412  0.1413 -0.3082  0.1483
16159TIP3    H169968   3.338   0.366  16.397  0.8642 -0.4894 -0.4185
16159TIP3    H269969   3.230   0.261  16.412  0.0493  0.2102 -1.2781
16160TIP3   OH269970   0.127   1.975   0.504  0.6457  0.1460 -0.0699
16160TIP3    H169971   0.114   2.021   0.421 -0.1368 -1.0678 -0.6532
16160TIP3    H269972   0.218   1.946   0.502  1.1479  1.6036  0.2990
16161TIP3   OH269973   2.577   5.215   3.427 -0.0718 -0.4024 -0.2360
16161TIP3    H169974   2.590   5.205   3.521 -1.6778  0.0788  0.0667
16161TIP3    H269975   2.612   5.135   3.389  0.9063 -0.4535  0.7349
16162TIP3   OH269976   6.504   3.568  16.233  0.1834  0.2306 -0.2056
16162TIP3    H169977   6.600   3.562  16.229  0.1902  0.3814 -0.2998
16162TIP3    H269978   6.482   3.633  16.165  0.0320  0.3592 -0.0331
16163TIP3   OH269979   6.631   4.468  16.871  0.6611 -0.4548 -0.1533
16163TIP3    H169980   6.688   4.528  16.918  2.3016 -1.2871 -0.9794
16163TIP3    H269981   6.651   4.482  16.778 -1.8396  0.5096 -0.6498
16164TIP3   OH269982   2.820   0.248   0.698  0.2516 -0.1204  0.0067
16164TIP3    H169983   2.738   0.272   0.742  0.7209 -0.5823  1.1912
16164TIP3    H269984   2.794   0.187   0.629 -0.4588  0.2231 -0.0362
16165TIP3   OH269985   5.291   1.367   3.800  0.5048  1.2271  0.1119
16165TIP3    H169986   5.356   1.394   3.735 -0.0059  1.0323 -0.4974
16165TIP3    H269987   5.295   1.272   3.801 -0.5161  1.1537 -0.7445
16166TIP3   OH269988   5.397   3.085   2.278 -0.0198 -0.3569  0.3196
16166TIP3    H169989   5.466   3.087   2.344  0.0203  3.2372  0.3786
16166TIP3    H269990   5.320   3.120   2.323 -0.5662  0.1506 -0.9720
16167TIP3   OH269991   0.915   6.236   5.935 -0.0018 -0.1435  0.5143
16167TIP3    H169992   0.971   6.195   6.001  1.5678  2.6782  1.0942
16167TIP3    H269993   0.834   6.256   5.981  0.2325 -0.2270  0.9677
16168TIP3   OH269994   2.239   5.580   2.855 -0.2035  0.2510 -0.2276
16168TIP3    H169995   2.156   5.548   2.890 -0.3576  0.4575 -0.3969
16168TIP3    H269996   2.294   5.596   2.932 -0.2090 -0.1913 -0.1338
16169TIP3   OH269997   5.940   4.913  14.692  0.5379  0.2662 -0.5455
16169TIP3    H169998   5.978   4.825  14.691  2.5363  1.0704 -0.7692
16169TIP3    H269999   5.976   4.956  14.614 -0.1548  1.3695 -0.2767
16170TIP3   OH270000   0.644   3.412  13.725 -0.0045 -0.3663 -0.2391
16170TIP3    H170001   0.632   3.383  13.635 -0.6819 -0.5893 -0.0860
16170TIP3    H270002   0.637   3.332  13.777  2.2948 -0.5306 -0.1192
16171TIP3   OH270003   2.207   4.761   5.759  0.5820  0.2809 -0.3578
16171TIP3    H170004   2.179   4.820   5.689 -0.3238  0.6942  0.3401
16171TIP3    H270005   2.238   4.683   5.712  1.1406  1.0171 -1.2616
16172TIP3   OH270006   0.723   6.632   4.708 -0.7238  0.0598  0.2673
16172TIP3    H170007   0.738   6.718   4.667  0.6977 -0.5345 -0.5376
16172TIP3    H270008   0.684   6.653   4.792 -0.0598  1.5376  0.2543
16173TIP3   OH270009   3.544   6.147   2.663  0.0601  0.1615 -0.4163
16173TIP3    H170010   3.583   6.229   2.633  0.0901 -0.0735 -1.0305
16173TIP3    H270011   3.539   6.092   2.584 -1.4322  0.1515 -0.3433
16174TIP3   OH270012   2.478   3.185   2.959  0.0241  0.4254 -0.4766
16174TIP3    H170013   2.529   3.113   2.920 -2.4482 -1.5789 -0.2768
16174TIP3    H270014   2.396   3.186   2.910 -0.7860  1.8295  0.8238
16175TIP3   OH270015   3.386   5.171   3.671  0.3645  0.2219  0.3157
16175TIP3    H170016   3.393   5.091   3.723  0.8294  0.3983  0.5276
16175TIP3    H270017   3.335   5.146   3.594  1.0545 -0.4323  0.0663
16176TIP3   OH270018   0.008   5.581   0.189  0.6290  0.0370 -0.3075
16176TIP3    H170019  -0.066   5.640   0.192  0.8288  0.2762 -0.0592
16176TIP3    H270020  -0.028   5.499   0.156 -0.4650 -0.9168  2.9447
16177TIP3   OH270021   0.222   2.896   2.890  0.1226  0.1643 -0.0467
16177TIP3    H170022   0.262   2.878   2.975  0.9394  2.4339  0.1348
16177TIP3    H270023   0.279   2.852   2.827 -0.1532 -1.0368  0.5231
16178TIP3   OH270024   3.099   1.056  16.406  0.2531  0.3933  0.1804
16178TIP3    H170025   3.106   1.089  16.316 -0.2186 -1.7609 -0.7085
16178TIP3    H270026   3.171   0.993  16.414  1.5760  2.0267  2.0608
16179TIP3   OH270027   0.135   2.705   3.519 -0.3674  0.3726 -0.4128
16179TIP3    H170028   0.157   2.684   3.610 -0.9809 -1.1368 -0.5764
16179TIP3    H270029   0.068   2.773   3.526  1.2163  1.9210  0.1789
16180TIP3   OH270030   0.662   6.266   4.095 -0.7873  0.2103  0.4142
16180TIP3    H170031   0.630   6.354   4.074 -0.7465  0.0941 -0.1433
16180TIP3    H270032   0.618   6.209   4.033 -0.9782 -0.1977  0.9159
16181TIP3   OH270033   4.876   5.086  11.158  0.2522 -0.1035 -0.4502
16181TIP3    H170034   4.871   5.008  11.213  0.2910 -0.9864 -1.6613
16181TIP3    H270035   4.876   5.159  11.220 -1.8793 -0.9545  0.6590
16182TIP3   OH270036   1.749   3.170  11.912  1.0855  0.1403  0.1030
16182TIP3    H170037   1.687   3.134  11.848  0.6567  1.3888 -0.2359
16182TIP3    H270038   1.744   3.111  11.986  0.4108 -0.4825 -0.4187
16183TIP3   OH270039   2.492   6.347   1.692 -0.0209  0.5083  0.0899
16183TIP3    H170040   2.469   6.332   1.601  1.8277  0.0484 -0.3329
16183TIP3    H270041   2.574   6.396   1.689  0.5424 -0.2824  1.4839
16184TIP3   OH270042   5.314   4.386   3.754  0.0625 -0.2300 -0.3150
16184TIP3    H170043   5.330   4.292   3.759  3.2624  0.1709 -0.8416
16184TIP3    H270044   5.287   4.411   3.842  0.9227 -1.3800  0.2958
16185TIP3   OH270045   5.924   6.561  16.404 -0.3488  0.2453 -0.0355
16185TIP3    H170046   5.969   6.571  16.320  1.5716 -0.0084  0.9027
16185TIP3    H270047   5.932   6.647  16.446  0.9515 -0.2662  0.8761
16186TIP3   OH270048   4.600   2.979   6.520 -0.4490  0.1694  0.4273
16186TIP3    H170049   4.685   3.000   6.482  0.0405 -1.6502  0.3923
16186TIP3    H270050   4.559   3.063   6.537  0.9891  1.0710 -0.3907
16187TIP3   OH270051   3.483   6.721  11.268  0.2596 -0.3612  0.6408
16187TIP3    H170052   3.545   6.737  11.197 -2.5782  0.7528 -1.7865
16187TIP3    H270053   3.458   6.809  11.298 -2.0757 -0.6021 -0.3629
16188TIP3   OH270054   5.076   5.705   5.197  0.6393  0.3439 -0.1921
16188TIP3    H170055   5.154   5.711   5.143  0.8538 -1.2423 -0.1126
16188TIP3    H270056   5.059   5.795   5.225  0.2645  1.3103 -3.1997
16189TIP3   OH270057   5.695   2.063  14.988 -0.3322 -0.1989 -0.4428
16189TIP3    H170058   5.674   2.148  15.026  2.4520 -0.1638  1.2907
16189TIP3    H270059   5.735   2.084  14.903  0.1551  0.2184 -0.1150
16190TIP3   OH270060   4.110   0.686  13.929 -0.3658 -0.3353 -0.4055
16190TIP3    H170061   4.161   0.686  14.010  1.8848 -2.6309 -1.6721
16190TIP3    H270062   4.141   0.762  13.881 -0.0854 -0.2012 -0.0198
16191TIP3   OH270063   3.576   4.022  15.109  0.0923 -0.4553 -0.4536
16191TIP3    H170064   3.486   4.014  15.142  0.7192 -1.6385  1.1482
16191TIP3    H270065   3.578   3.965  15.032 -0.8602  0.6698 -1.3539
16192TIP3   OH270066   3.816   6.429   4.903  0.2876 -0.0300 -0.0607
16192TIP3    H170067   3.798   6.513   4.947 -0.4751 -0.7891  1.1488
16192TIP3    H270068   3.744   6.372   4.931  1.1199 -1.2714 -0.3817
16193TIP3   OH270069   5.632   2.288   4.431 -0.3372  0.4620 -0.2965
16193TIP3    H170070   5.706   2.231   4.411 -1.6066 -0.7817 -1.7064
16193TIP3    H270071   5.637   2.358   4.365  0.7881  1.6428  0.9706
16194TIP3   OH270072   5.764   1.578   2.270 -0.1215 -0.2268 -0.3072
16194TIP3    H170073   5.728   1.596   2.358  0.1637  1.2734 -0.4729
16194TIP3    H270074   5.799   1.490   2.276  1.5789  0.4990  1.6832
16195TIP3   OH270075   2.537   3.064   2.405 -0.5012 -0.0898  0.0225
16195TIP3    H170076   2.626   3.100   2.397 -0.3761 -0.4682 -0.2791
16195TIP3    H270077   2.483   3.140   2.427  0.1036 -0.0731  1.6122
16196TIP3   OH270078   4.966   5.502   2.887  0.1527 -0.0963  0.3238
16196TIP3    H170079   4.956   5.468   2.798 -3.3750  0.1080  0.5176
16196TIP3    H270080   5.011   5.585   2.876  0.7332 -0.5657 -1.1313
16197TIP3   OH270081   3.715   0.188   5.635 -0.7139  0.1208 -0.2592
16197TIP3    H170082   3.788   0.151   5.684 -1.7091 -0.8936  0.5251
16197TIP3    H270083   3.672   0.248   5.697 -0.1364  1.2867 -0.9551
16198TIP3   OH270084   2.048   3.362   3.541 -0.0608  0.6295 -0.1735
16198TIP3    H170085   1.959   3.342   3.570  0.5787 -1.8244  0.3696
16198TIP3    H270086   2.085   3.276   3.517  1.9886  1.6356 -0.8583
16199TIP3   OH270087   1.439   0.221  13.909 -0.0154 -0.3676  0.2834
16199TIP3    H170088   1.455   0.204  14.002  1.0502 -0.3268  0.1154
16199TIP3    H270089   1.456   0.314  13.898 -1.0149 -0.1800  0.2088
16200TIP3   OH270090   3.212   1.246   4.027  0.1862  0.5281 -0.0754
16200TIP3    H170091   3.173   1.299   4.096  0.6196  0.0825  0.5221
16200TIP3    H270092   3.299   1.222   4.060  0.8400  1.1834 -1.2186
16201TIP3   OH270093   2.460   6.202   2.882  0.1506 -0.7429  0.1199
16201TIP3    H170094   2.367   6.205   2.859  0.1440 -0.9558  0.1120
16201TIP3    H270095   2.488   6.114   2.856  0.3529 -0.6809  0.1269
16202TIP3   OH270096   5.081   4.565   0.255 -0.3936 -0.0848  0.3581
16202TIP3    H170097   5.144   4.545   0.323 -0.8748  0.9323  1.1379
16202TIP3    H270098   5.044   4.480   0.230 -1.1692 -0.3764  2.3260
16203TIP3   OH270099   2.608   5.690   0.021 -0.0821  0.0107 -0.4088
16203TIP3    H170100   2.597   5.620  -0.043  0.0630  0.3505 -0.8094
16203TIP3    H270101   2.702   5.708   0.022 -0.0863  0.0223 -0.1166
16204TIP3   OH270102   1.854   3.241   2.169 -0.0255  0.1305  0.8614
16204TIP3    H170103   1.800   3.284   2.103  0.9200  3.1029  1.8757
16204TIP3    H270104   1.890   3.164   2.124 -1.3561  0.6600 -1.2496
16205TIP3   OH270105   6.066   4.680  14.269 -0.0427  0.0440  0.6134
16205TIP3    H170106   6.098   4.671  14.180 -2.0677 -0.6111 -0.1175
16205TIP3    H270107   6.144   4.683  14.323  1.2250 -0.0631 -1.1315
16206TIP3   OH270108   6.196   1.180   0.528  0.1923  0.2619  0.2350
16206TIP3    H170109   6.122   1.155   0.473 -0.3687 -0.6637  1.3778
16206TIP3    H270110   6.192   1.276   0.532 -0.1975  0.3000 -0.7020
16207TIP3   OH270111   3.327   5.558   0.293 -0.1045 -0.3446 -0.4833
16207TIP3    H170112   3.358   5.628   0.237  0.4290  0.0191  0.2577
16207TIP3    H270113   3.398   5.542   0.355 -1.1425  0.1420  0.9064
16208TIP3   OH270114   0.297   0.364   1.217 -0.4878  0.2539  0.6496
16208TIP3    H170115   0.207   0.332   1.228 -0.4855  0.1533  0.3866
16208TIP3    H270116   0.302   0.390   1.126 -0.1969  0.0959  0.6188
16209TIP3   OH270117   1.689   0.295  16.549  0.2531 -0.3000 -0.0384
16209TIP3    H170118   1.613   0.290  16.491  0.8737 -2.0411 -0.7629
16209TIP3    H270119   1.653   0.322  16.633 -0.8585  0.9625 -0.8752
16210TIP3   OH270120   3.035   0.560  11.527  0.4867  0.5433  0.0789
16210TIP3    H170121   2.939   0.563  11.532  0.4666  0.2346 -0.1109
16210TIP3    H270122   3.057   0.604  11.445  0.3352 -1.8728 -1.3717
16211TIP3   OH270123   3.504   4.808  17.036 -0.1679 -0.4502 -0.1876
16211TIP3    H170124   3.570   4.786  16.970  0.5338 -1.8589  0.9330
16211TIP3    H270125   3.539   4.773  17.118 -1.0889  1.1149  0.9403
16212TIP3   OH270126   6.316   6.309  12.001 -0.1705 -0.4686 -0.2978
16212TIP3    H170127   6.302   6.228  12.051  1.2100 -0.0780  0.7970
16212TIP3    H270128   6.259   6.301  11.925 -2.3808 -1.1054  1.3360
16213TIP3   OH270129   0.365   5.134  14.017  0.6385 -0.1675  0.1643
16213TIP3    H170130   0.454   5.169  14.016  1.1837 -1.4689  0.9181
16213TIP3    H270131   0.355   5.094  14.103 -0.0175 -1.6608 -0.5635
16214TIP3   OH270132   3.137   0.917  12.197  0.0672 -0.0309 -0.0160
16214TIP3    H170133   3.205   0.985  12.206  0.6401 -0.5145 -0.5751
16214TIP3    H270134   3.170   0.860  12.128 -0.3849 -0.9080  0.4786
16215TIP3   OH270135   2.880   2.828  15.229 -0.0335 -0.5164 -0.1074
16215TIP3    H170136   2.814   2.888  15.194 -0.9415  0.0890  2.4545
16215TIP3    H270137   2.962   2.876  15.223 -0.3459  0.0030 -0.3180
16216TIP3   OH270138   2.281   2.069  15.520  0.7979 -0.1120 -0.2346
16216TIP3    H170139   2.333   2.034  15.448 -1.2470 -1.0521 -1.3513
16216TIP3    H270140   2.203   2.105  15.478  1.2312  2.8127  1.2065
16217TIP3   OH270141   2.867   1.048   4.215 -0.2955 -0.7131 -0.4610
16217TIP3    H170142   2.797   1.001   4.170  0.2680 -0.4529 -1.6258
16217TIP3    H270143   2.937   1.055   4.151  0.2594  0.2927  0.2296
16218TIP3   OH270144   5.767   6.119  16.077  0.5475  0.0273  0.8093
16218TIP3    H170145   5.781   6.213  16.072  0.3781  0.0165  0.0605
16218TIP3    H270146   5.852   6.082  16.100  1.0206  0.2300 -0.5187
16219TIP3   OH270147   4.296   0.851  16.190 -0.8766  0.0283  0.0105
16219TIP3    H170148   4.310   0.935  16.145  0.8301 -0.8129 -1.1467
16219TIP3    H270149   4.201   0.845  16.200 -1.0376  2.1528  0.2764
16220TIP3   OH270150   5.508   4.060   3.483  0.2689  0.7190  0.2933
16220TIP3    H170151   5.424   4.105   3.494 -0.4756 -0.5973  0.1809
16220TIP3    H270152   5.497   4.009   3.402 -0.1290 -2.1813  2.0581
16221TIP3   OH270153   1.592   1.874  16.521  0.0422 -0.3397  0.5816
16221TIP3    H170154   1.561   1.783  16.523  1.1342 -0.7301  0.2595
16221TIP3    H270155   1.582   1.900  16.429  1.5260 -0.7978  0.2578
16222TIP3   OH270156   0.347   4.919   4.807  0.3531  0.3120 -0.0777
16222TIP3    H170157   0.259   4.918   4.843  0.5349  0.2707  0.3706
16222TIP3    H270158   0.350   4.843   4.748  0.2550  0.0119  0.3052
16223TIP3   OH270159   6.715   4.577  16.541  0.1217 -0.2613  0.6680
16223TIP3    H170160   6.743   4.656  16.494 -0.5137  0.0144  0.7516
16223TIP3    H270161   6.797   4.539  16.573  0.5502 -0.3288 -0.4421
16224TIP3   OH270162   2.353   3.957   4.873 -0.3128  0.5207  0.0843
16224TIP3    H170163   2.369   4.007   4.793  2.8743 -1.1265 -0.4691
16224TIP3    H270164   2.358   4.022   4.943 -2.8678  1.9349 -0.9242
16225TIP3   OH270165   2.224   4.888  15.041  0.3682 -0.4081 -0.1229
16225TIP3    H170166   2.317   4.907  15.055  0.4221 -1.0794  0.4478
16225TIP3    H270167   2.215   4.884  14.946  0.6591  0.9200 -0.2296
16226TIP3   OH270168   6.168   2.665  16.732  0.1926  0.0576  0.5927
16226TIP3    H170169   6.105   2.635  16.798 -0.9823 -0.3393 -0.6488
16226TIP3    H270170   6.113   2.686  16.656  1.6329 -0.9937 -0.7865
16227TIP3   OH270171   5.220   3.905   0.498 -0.0570 -0.1711  0.0915
16227TIP3    H170172   5.210   4.000   0.505 -1.1046 -0.2392 -0.2396
16227TIP3    H270173   5.232   3.889   0.404  1.8549 -0.2437  0.3083
16228TIP3   OH270174   2.635   4.665  11.735  0.3788 -0.6856 -0.3201
16228TIP3    H170175   2.618   4.689  11.643  3.3932 -0.4453 -0.9064
16228TIP3    H270176   2.681   4.741  11.771 -1.0367 -0.6439  1.5671
16229TIP3   OH270177   3.654   4.570  14.804 -0.1860  0.0465 -0.8879
16229TIP3    H170178   3.667   4.664  14.792  1.9583 -0.2622 -1.4692
16229TIP3    H270179   3.591   4.546  14.737 -2.4112  1.3549  0.5970
16230TIP3   OH270180   3.536   3.535  11.938 -0.6777 -0.6774  0.0537
16230TIP3    H170181   3.461   3.536  11.879 -2.1403  0.3241  1.8432
16230TIP3    H270182   3.552   3.442  11.955 -1.2211 -0.9106 -0.6600
16231TIP3   OH270183   1.167   0.693   2.475  0.5482  0.5775 -0.7711
16231TIP3    H170184   1.117   0.619   2.510 -0.5254  1.0798 -1.2137
16231TIP3    H270185   1.228   0.716   2.545  0.4032 -0.2661 -0.3518
16232TIP3   OH270186   4.534   3.608  15.035 -0.5898 -0.3885  0.1616
16232TIP3    H170187   4.477   3.685  15.033 -0.5067 -0.1078  3.2073
16232TIP3    H270188   4.585   3.613  14.954 -2.2187  1.4379 -0.8357
16233TIP3   OH270189   2.643   6.106   1.375 -0.0937  0.3769  0.2369
16233TIP3    H170190   2.653   6.083   1.468  1.0289  1.3679  0.3752
16233TIP3    H270191   2.732   6.102   1.339 -0.3417  1.2508 -0.4985
16234TIP3   OH270192   4.077   3.076   2.962  0.3638 -0.6454 -0.3037
16234TIP3    H170193   4.167   3.108   2.953 -0.1991  0.7713 -1.3989
16234TIP3    H270194   4.025   3.137   2.909 -1.3025 -1.1730  0.6566
16235TIP3   OH270195   0.163   5.985   0.324 -0.1736  0.3640 -0.2758
16235TIP3    H170196   0.073   6.004   0.299 -0.0713 -0.0696 -0.9948
16235TIP3    H270197   0.169   5.889   0.322  0.3069  0.3874 -0.2378
16236TIP3   OH270198   4.363   3.681  11.075 -0.6713 -0.3511  0.6223
16236TIP3    H170199   4.356   3.746  11.145 -0.7652 -0.7856  1.0192
16236TIP3    H270200   4.455   3.683  11.049 -0.9609  1.0484 -0.4505
16237TIP3   OH270201   3.259   4.341   2.261 -0.1717 -0.0309  0.5154
16237TIP3    H170202   3.216   4.375   2.339 -2.6070 -1.2196 -0.2148
16237TIP3    H270203   3.241   4.247   2.263  4.3685 -1.1536  1.2757
16238TIP3   OH270204   0.432   6.332   1.964  0.2965 -0.4463 -0.3546
16238TIP3    H170205   0.469   6.319   1.877 -0.0942 -0.5396 -0.5095
16238TIP3    H270206   0.348   6.376   1.949 -0.6824 -2.1640 -0.1776
16239TIP3   OH270207   5.229   3.938   0.224  0.4054 -0.6493 -0.7028
16239TIP3    H170208   5.254   4.017   0.175  1.0093 -1.8502 -2.4127
16239TIP3    H270209   5.136   3.926   0.204  0.0690  0.1102  0.3101
16240TIP3   OH270210   5.573   6.586   6.053  0.3514 -0.4008  0.2633
16240TIP3    H170211   5.539   6.583   5.964 -0.5157  0.1992  0.5562
16240TIP3    H270212   5.588   6.494   6.076 -0.7294 -0.6567 -0.0151
16241TIP3   OH270213   1.126   3.811  11.191  0.7081  0.3884  0.1714
16241TIP3    H170214   1.101   3.748  11.259  2.1223  1.4731  1.7806
16241TIP3    H270215   1.043   3.851  11.165  0.0385 -0.6342  0.6567
16242TIP3   OH270216   5.186   2.302   3.453 -0.4175  0.6511 -0.2440
16242TIP3    H170217   5.198   2.371   3.387 -3.0623  0.3539 -1.1306
16242TIP3    H270218   5.101   2.321   3.493 -0.8419 -1.6405  0.0556
16243TIP3   OH270219   0.882   3.922  13.950 -0.0018  0.6104  0.4762
16243TIP3    H170220   0.820   3.949  13.882 -1.7720 -0.2806  1.6667
16243TIP3    H270221   0.852   3.967  14.029  1.7017  1.2187  0.8023
16244TIP3   OH270222   4.943   3.331   1.123  0.4320  0.2642 -0.2832
16244TIP3    H170223   4.892   3.404   1.157  0.5579 -0.0536  0.6249
16244TIP3    H270224   4.883   3.256   1.130  0.6428  0.0975 -0.2626
16245TIP3   OH270225   0.488   4.412   4.363 -0.0696  0.6491  0.0828
16245TIP3    H170226   0.580   4.423   4.388  0.2719  0.8608 -1.2278
16245TIP3    H270227   0.480   4.319   4.341 -0.1137  0.6783 -0.0253
16246TIP3   OH270228   2.050   1.334  15.527 -0.2464  0.1829  0.5399
16246TIP3    H170229   2.135   1.348  15.485 -0.8929 -0.5199 -1.0867
16246TIP3    H270230   1.990   1.392  15.479 -1.3440 -1.9213 -0.7551
16247TIP3   OH270231   2.495   5.533  11.841 -0.7150  0.4628  0.5318
16247TIP3    H170232   2.511   5.611  11.788  0.3368  0.2348  0.5083
16247TIP3    H270233   2.581   5.494  11.854 -1.2175 -0.6505  0.6215
16248TIP3   OH270234   0.976   1.295   3.827  0.0281 -0.1154 -0.0346
16248TIP3    H170235   0.890   1.295   3.784 -0.7211  1.6310  1.3318
16248TIP3    H270236   1.030   1.351   3.773 -0.2566  0.2765  0.0802
16249TIP3   OH270237   4.083   5.746   0.604 -0.5069  0.4709  0.0499
16249TIP3    H170238   3.992   5.725   0.581 -0.7803  0.1208  1.3787
16249TIP3    H270239   4.098   5.700   0.686  1.1554 -0.1480 -0.5519
16250TIP3   OH270240   1.526   2.126   3.987  0.2606 -0.8554 -0.3970
16250TIP3    H170241   1.544   2.036   3.962  0.2895 -0.7208 -0.8647
16250TIP3    H270242   1.496   2.120   4.078  0.1587 -1.3422 -0.4600
16251TIP3   OH270243   4.922   2.042  15.051 -0.1139 -0.6080 -0.1486
16251TIP3    H170244   4.893   1.977  14.986 -0.2933 -0.7879  0.1101
16251TIP3    H270245   4.918   2.126  15.004 -0.9738 -0.6399 -0.1454
16252TIP3   OH270246   0.845   6.633   2.004 -0.3602 -0.4277 -0.3336
16252TIP3    H170247   0.928   6.679   2.017 -1.6251  1.7505  0.3374
16252TIP3    H270248   0.779   6.701   2.000 -2.2902 -2.1577  0.2095
16253TIP3   OH270249   0.434   0.754  15.890  0.7815  0.2841  0.3207
16253TIP3    H170250   0.347   0.735  15.855  0.4591  0.1848  1.1570
16253TIP3    H270251   0.435   0.712  15.976  1.0453  1.6797  1.0237
16254TIP3   OH270252   1.578   1.739  16.145 -0.1453 -0.2134  0.3293
16254TIP3    H170253   1.566   1.698  16.230 -1.3363 -0.3800  0.1024
16254TIP3    H270254   1.670   1.767  16.144  0.4266 -1.9667  0.8817
16255TIP3   OH270255   3.577   0.144  15.097  0.2564  0.5129 -0.0432
16255TIP3    H170256   3.494   0.188  15.079  0.8833  1.6109 -0.3817
16255TIP3    H270257   3.615   0.129  15.010  0.0523 -0.7358  0.0672
16256TIP3   OH270258   0.506   3.880  10.884  0.1321  0.4554 -0.1275
16256TIP3    H170259   0.590   3.919  10.861 -0.4148  1.8721  0.1441
16256TIP3    H270260   0.451   3.896  10.807  0.3905 -1.4690 -0.7681
16257TIP3   OH270261   3.191   1.435   4.548  0.1775 -0.6962  0.1841
16257TIP3    H170262   3.137   1.426   4.627 -0.4762  1.1105 -0.0094
16257TIP3    H270263   3.281   1.429   4.580  0.0195  2.2089  1.5040
16258TIP3   OH270264   2.202   1.917  10.967 -0.0466  0.0775  0.4889
16258TIP3    H170265   2.234   1.834  10.929  1.9722 -0.5780  3.3240
16258TIP3    H270266   2.111   1.898  10.990 -0.4297 -0.4333 -1.2595
16259TIP3   OH270267   3.291   1.069   2.234  0.8677  0.3872  0.1763
16259TIP3    H170268   3.277   1.099   2.144  0.7536 -2.4805 -0.8380
16259TIP3    H270269   3.322   0.979   2.225  2.7437  0.6403  2.9701
16260TIP3   OH270270   3.726   2.002  12.151 -0.0011 -0.3070  0.0275
16260TIP3    H170271   3.727   2.046  12.066 -0.3896 -1.2750 -0.4940
16260TIP3    H270272   3.641   1.958  12.155 -0.2131  0.1545  1.1547
16261TIP3   OH270273   0.765   5.225  13.843  0.3195  0.1061 -0.7474
16261TIP3    H170274   0.683   5.272  13.856 -0.0684 -0.2704 -1.6982
16261TIP3    H270275   0.833   5.291  13.853 -0.1131  0.4944 -0.3021
16262TIP3   OH270276   1.355   1.104   3.400 -0.5954 -0.5551  0.2048
16262TIP3    H170277   1.431   1.052   3.426  0.4379  0.6506 -0.2465
16262TIP3    H270278   1.322   1.140   3.483  1.1051  1.1931  0.2057
16263TIP3   OH270279   5.870   6.060   5.476  0.6220  0.5657  0.2092
16263TIP3    H170280   5.947   6.084   5.425  1.5570  1.4288  1.9180
16263TIP3    H270281   5.868   5.965   5.474  1.2008  0.5610 -0.5821
16264TIP3   OH270282   5.866   3.142   0.156  0.3623 -0.8134  0.4585
16264TIP3    H170283   5.891   3.185   0.238 -0.2001 -0.4413  0.4419
16264TIP3    H270284   5.930   3.072   0.145  0.2375 -1.0886  1.3954
16265TIP3   OH270285   6.807   4.407  14.351 -0.2178  0.6943 -0.1190
16265TIP3    H170286   6.886   4.408  14.405 -0.6711  1.9418  0.5638
16265TIP3    H270287   6.774   4.317  14.359  0.7873  0.3361  0.0875
16266TIP3   OH270288   4.832   4.604   0.747 -0.2995 -0.7338  0.1401
16266TIP3    H170289   4.817   4.515   0.713 -0.9990 -0.8668  0.7859
16266TIP3    H270290   4.888   4.590   0.824 -1.2618 -0.7150  0.8525
16267TIP3   OH270291   5.211   2.107   2.026 -0.0421 -0.5080 -0.4036
16267TIP3    H170292   5.289   2.093   2.080 -0.7204 -1.8179  0.2985
16267TIP3    H270293   5.225   2.051   1.950 -0.4983 -1.1459 -0.0319
16268TIP3   OH270294   6.311   0.555  12.059 -0.2046 -0.1776  0.1443
16268TIP3    H170295   6.252   0.545  12.134  0.0263 -0.7160  0.2579
16268TIP3    H270296   6.397   0.571  12.098  0.1945 -1.9082  0.0426
16269TIP3   OH270297   6.138   1.990  13.988 -0.5110 -0.3285 -0.8934
16269TIP3    H170298   6.152   2.016  13.897 -2.5889  1.2222 -0.8616
16269TIP3    H270299   6.116   1.897  13.984 -0.6414 -0.2623 -1.9789
16270TIP3   OH270300   4.728   5.129   4.060  0.1900 -0.4445  0.4532
16270TIP3    H170301   4.634   5.111   4.049  0.4606 -0.4238 -2.9542
16270TIP3    H270302   4.733   5.224   4.072 -0.1571  0.0877 -2.7877
16271TIP3   OH270303   6.712   4.903   1.977 -0.3687  0.3632 -0.1266
16271TIP3    H170304   6.625   4.863   1.965  0.2197 -1.3203  0.9424
16271TIP3    H270305   6.719   4.916   2.071  0.6448  0.2498 -0.1834
16272TIP3   OH270306   0.820   0.574  11.090 -0.3990 -0.1509  0.2194
16272TIP3    H170307   0.838   0.595  10.998  0.6152  0.9206  0.6467
16272TIP3    H270308   0.726   0.554  11.091 -0.3712 -0.4804 -1.0976
16273TIP3   OH270309   1.080   5.787  11.066  0.3986  0.1437 -0.1977
16273TIP3    H170310   1.062   5.713  11.124  1.4313 -0.2637 -0.3752
16273TIP3    H270311   1.161   5.825  11.100 -0.2424  1.3566  0.0366
16274TIP3   OH270312   4.462   6.225  11.521  0.0401 -0.8494 -0.4919
16274TIP3    H170313   4.507   6.212  11.604  2.1709  1.0647 -1.2601
16274TIP3    H270314   4.531   6.242  11.457 -1.6560  0.2354 -2.1700
16275TIP3   OH270315   6.113   2.317  15.077  0.2179 -0.1450 -0.1199
16275TIP3    H170316   6.182   2.383  15.075  1.8027 -1.6875  0.6218
16275TIP3    H270317   6.067   2.328  14.994 -1.4243  3.6754  1.0512
16276TIP3   OH270318   2.736   4.732  12.421 -0.5019 -0.8814 -0.1259
16276TIP3    H170319   2.799   4.762  12.487  0.0413  0.5928 -1.2586
16276TIP3    H270320   2.711   4.645  12.450  0.5604 -0.7142  1.4254
16277TIP3   OH270321   4.657   6.507   3.461  0.0039  0.1193  0.3982
16277TIP3    H170322   4.571   6.519   3.502  0.2179 -1.2511  1.3155
16277TIP3    H270323   4.708   6.584   3.488 -0.0917 -0.4028  2.1635
16278TIP3   OH270324   3.864   0.313   3.575  0.2869  0.1913 -0.2278
16278TIP3    H170325   3.948   0.285   3.538  0.4867 -0.0719  0.4096
16278TIP3    H270326   3.806   0.321   3.499  0.6228 -0.5661 -0.5762
16279TIP3   OH270327   2.456   6.382  15.855  0.7956  0.0226 -0.1695
16279TIP3    H170328   2.507   6.456  15.821  0.6767  0.0755 -0.2355
16279TIP3    H270329   2.410   6.348  15.779 -1.0426  1.3919  0.2403
16280TIP3   OH270330   1.326   5.666   0.633  0.0320  0.1186 -0.6481
16280TIP3    H170331   1.265   5.618   0.687 -0.1600 -0.8448 -1.6875
16280TIP3    H270332   1.411   5.652   0.674 -0.3787  1.3826  0.7435
16281TIP3   OH270333   5.798   2.021   0.381 -0.3299 -0.2999  0.6502
16281TIP3    H170334   5.795   2.044   0.289 -2.4124 -0.9699  0.4933
16281TIP3    H270335   5.776   1.928   0.383 -2.7042  0.2103  1.9282
16282TIP3   OH270336   5.356   4.328   4.103  0.0632 -0.2942  0.6366
16282TIP3    H170337   5.317   4.266   4.165 -0.9176 -0.0337  0.2959
16282TIP3    H270338   5.439   4.289   4.079 -0.5448 -1.4950  0.4142
16283TIP3   OH270339   1.702   5.752   5.821 -0.2108  0.6498 -0.4303
16283TIP3    H170340   1.636   5.766   5.754  1.2533  3.4325 -1.4529
16283TIP3    H270341   1.703   5.657   5.835 -1.5244  0.1208 -3.3167
16284TIP3   OH270342   0.936   2.279   1.475 -0.4731  0.2874  0.6794
16284TIP3    H170343   0.858   2.325   1.447 -0.7169 -0.4257  0.1592
16284TIP3    H270344   0.911   2.236   1.557 -0.2386  1.0763  1.1768
16285TIP3   OH270345   2.400   3.718   3.335 -0.1775  0.2404 -0.1216
16285TIP3    H170346   2.481   3.728   3.385  0.7672  2.2730 -1.8671
16285TIP3    H270347   2.341   3.782   3.374 -0.6249 -0.5519  0.5207
16286TIP3   OH270348   1.800   2.839  14.218  0.0609 -0.2953 -0.2402
16286TIP3    H170349   1.782   2.933  14.207  2.2161  0.3280  0.9495
16286TIP3    H270350   1.807   2.806  14.128 -0.1880  0.7827 -0.6797
16287TIP3   OH270351   4.632   3.010  13.086  0.1215  0.3329 -0.2605
16287TIP3    H170352   4.722   2.981  13.102 -0.5656 -0.7323  2.2683
16287TIP3    H270353   4.633   3.103  13.106  0.6426  0.2953 -0.0815
16288TIP3   OH270354   4.458   4.486  13.746 -0.0611  0.6002 -0.2680
16288TIP3    H170355   4.384   4.426  13.757  1.6921 -1.3165  3.3071
16288TIP3    H270356   4.529   4.430  13.715  1.6165  0.5500  3.1184
16289TIP3   OH270357   3.532   1.939  14.605 -0.2188  0.5474  0.4356
16289TIP3    H170358   3.617   1.899  14.586  1.6688  3.0421  2.8361
16289TIP3    H270359   3.529   2.017  14.550 -0.3447  1.1393  1.2578
16290TIP3   OH270360   3.041   4.743   2.629 -0.0142  0.2164  0.7066
16290TIP3    H170361   2.969   4.745   2.692 -0.1627 -0.0371  0.5496
16290TIP3    H270362   3.113   4.699   2.674  0.1976  0.8810  1.0223
16291TIP3   OH270363   6.090   0.232  16.288  0.1982  0.1161  0.2958
16291TIP3    H170364   6.101   0.232  16.383  1.7913 -0.5332  0.1378
16291TIP3    H270365   6.161   0.288  16.255 -0.7309  0.8751 -0.4912
16292TIP3   OH270366   5.332   5.155  14.191  0.3574  0.5322 -0.5936
16292TIP3    H170367   5.284   5.097  14.250  0.3085  1.6695  0.5255
16292TIP3    H270368   5.421   5.121  14.192  0.7495  1.4073  1.4332
16293TIP3   OH270369   1.904   3.508  13.332 -1.1273  0.1494 -0.4755
16293TIP3    H170370   1.985   3.459  13.348 -0.4302  0.7090 -2.0781
16293TIP3    H270371   1.927   3.599  13.349 -1.7438  0.2053  0.1158
16294TIP3   OH270372   1.996   4.988  12.813 -0.3214  0.0188  0.2291
16294TIP3    H170373   1.931   4.966  12.880  0.6303  0.0909  1.2058
16294TIP3    H270374   2.065   5.034  12.861 -1.0471  2.9691 -1.2818
16295TIP3   OH270375   2.090   0.374   4.335  0.6486  0.1023  0.3106
16295TIP3    H170376   2.168   0.319   4.328  0.7827  0.2110  0.9188
16295TIP3    H270377   2.078   0.410   4.247 -1.4618 -3.5723 -1.1258
16296TIP3   OH270378   6.340   2.457   4.050 -0.7132 -0.5643 -0.1496
16296TIP3    H170379   6.391   2.531   4.019 -1.3382  0.5192  1.2649
16296TIP3    H270380   6.402   2.404   4.101  0.4441 -2.6342 -3.4332
16297TIP3   OH270381   3.333   0.009  10.922  0.4197 -0.6749  0.0592
16297TIP3    H170382   3.417   0.052  10.910  0.9639 -2.2645 -2.9472
16297TIP3    H270383   3.352  -0.084  10.911 -1.3896 -1.3376  1.8454
16298TIP3   OH270384   4.888   2.568  12.214  0.1653  0.2752  0.1028
16298TIP3    H170385   4.829   2.596  12.284  0.7553  0.0766  0.6929
16298TIP3    H270386   4.959   2.631  12.215  0.7425 -0.3650  0.4405
16299TIP3   OH270387   0.426   0.141  16.948  0.4195  0.2184  0.6448
16299TIP3    H170388   0.369   0.115  16.877  0.6600  0.5654  0.3229
16299TIP3    H270389   0.402   0.083  17.021  0.3616 -0.3227  0.2024
16300TIP3   OH270390   3.919   4.100  12.484  0.1954 -0.0009  0.0994
16300TIP3    H170391   3.938   4.193  12.498  1.4025 -0.5323  2.7916
16300TIP3    H270392   3.824   4.094  12.492  0.2061  0.8669  1.1518
16301TIP3   OH270393   4.147   1.100   1.815 -0.4208  0.4691 -0.3019
16301TIP3    H170394   4.144   1.042   1.891  1.5570 -1.2386 -1.4281
16301TIP3    H270395   4.178   1.183   1.849  0.1359 -0.1774  0.8195
16302TIP3   OH270396   1.826   0.864  11.366  0.3650 -0.0670 -0.4855
16302TIP3    H170397   1.767   0.939  11.375  0.7786  0.1572  0.6466
16302TIP3    H270398   1.912   0.900  11.386  0.6872 -0.6746 -0.7728
16303TIP3   OH270399   5.004   0.456   2.962 -0.1185  0.1752  0.0694
16303TIP3    H170400   5.009   0.527   3.026 -0.0099  1.1492 -0.9853
16303TIP3    H270401   4.911   0.441   2.950 -0.2547  2.1964 -1.8649
16304TIP3   OH270402   3.754   2.682  16.311  0.3857 -0.8759 -0.1390
16304TIP3    H170403   3.806   2.700  16.390  2.1108 -2.2873 -0.8999
16304TIP3    H270404   3.664   2.674  16.344  1.1754 -2.4139  1.8864
16305TIP3   OH270405   5.833   0.233  15.319 -0.3706  0.6168  0.2782
16305TIP3    H170406   5.806   0.151  15.278 -2.6005  1.7323 -0.6642
16305TIP3    H270407   5.775   0.241  15.396 -0.8495  1.7271 -0.1778
16306TIP3   OH270408   6.817   0.338  14.282 -0.4243 -0.1358 -0.4274
16306TIP3    H170409   6.747   0.368  14.339  0.4734  0.5392  0.3425
16306TIP3    H270410   6.772   0.300  14.206 -1.6369  2.5139 -1.1444
16307TIP3   OH270411   1.167   3.133  12.428  0.1797  0.4690 -0.1173
16307TIP3    H170412   1.113   3.132  12.507 -1.3519  0.4508 -1.0991
16307TIP3    H270413   1.256   3.116  12.458 -0.1405  1.8190  1.7520
16308TIP3   OH270414   4.104   5.442  14.538 -0.7124 -0.1933 -0.3721
16308TIP3    H170415   4.178   5.382  14.526 -0.9179 -0.4031 -0.6155
16308TIP3    H270416   4.061   5.411  14.617 -1.2846 -0.8779 -0.9294
16309TIP3   OH270417   3.752   0.942  16.800 -0.9085  0.7072 -0.0238
16309TIP3    H170418   3.839   0.944  16.840 -0.4517 -2.0537 -0.6555
16309TIP3    H270419   3.693   0.919  16.872 -0.9529  1.4100  0.1691
16310TIP3   OH270420   1.059   2.137  10.998  0.2237  0.2684 -0.4659
16310TIP3    H170421   0.977   2.172  10.965 -0.3318 -2.3268 -2.1596
16310TIP3    H270422   1.113   2.214  11.017 -2.4367  2.0332  0.4586
16311TIP3   OH270423   1.223   6.112   4.183 -0.1186  0.3711  0.1234
16311TIP3    H170424   1.224   6.041   4.118 -2.6199 -0.0102  0.4109
16311TIP3    H270425   1.138   6.154   4.171  0.3221  1.7623  1.6275
16312TIP3   OH270426   6.425   6.135   5.302  0.0709  0.0884  0.2728
16312TIP3    H170427   6.501   6.193   5.293 -1.6041  2.4233  0.3608
16312TIP3    H270428   6.390   6.155   5.388 -0.2490 -1.5078  0.5321
16313TIP3   OH270429   4.632   4.279   1.032 -0.1230  0.1210 -0.0714
16313TIP3    H170430   4.554   4.330   1.054  0.3924  1.2965 -0.8404
16313TIP3    H270431   4.641   4.289   0.937  1.8066  1.3165  0.1899
16314TIP3   OH270432   1.589   2.101   1.252  0.0940  0.0579  0.6834
16314TIP3    H170433   1.578   2.177   1.310 -0.8329  0.4914 -0.0304
16314TIP3    H270434   1.651   2.132   1.186 -0.0702  0.1026  0.5500
16315TIP3   OH270435   1.472   1.490   5.092 -0.3426  0.2203  0.5230
16315TIP3    H170436   1.495   1.397   5.093 -0.0648  0.2614 -0.7412
16315TIP3    H270437   1.435   1.504   5.005 -0.6899  1.2269  0.8239
16316TIP3   OH270438   4.456   5.024   3.650  0.2177  0.1483 -0.5350
16316TIP3    H170439   4.387   5.023   3.584 -1.0449  1.3754  0.7148
16316TIP3    H270440   4.460   4.935   3.682  0.1438 -0.2288 -1.5249
16317TIP3   OH270441   3.702   2.209  15.400 -0.0301  0.1898  0.1272
16317TIP3    H170442   3.719   2.286  15.346  2.1983 -1.0499 -1.1034
16317TIP3    H270443   3.677   2.244  15.485 -0.8666  2.2225 -0.9018
16318TIP3   OH270444   5.750   2.659   0.127  0.2901  0.1503  0.2923
16318TIP3    H170445   5.696   2.717   0.180 -0.5242 -0.3869  0.0598
16318TIP3    H270446   5.835   2.659   0.172 -0.1721  0.2643  1.1932
16319TIP3   OH270447   2.715   0.775  14.313 -0.1874 -0.3382  0.2399
16319TIP3    H170448   2.718   0.835  14.239 -0.1065  0.0221  0.5325
16319TIP3    H270449   2.640   0.804  14.365 -0.6820 -1.0411 -0.0827
16320TIP3   OH270450   1.598   3.701   0.803  0.0197 -0.2054 -0.3677
16320TIP3    H170451   1.603   3.743   0.718 -2.4762 -1.3203 -1.1714
16320TIP3    H270452   1.546   3.622   0.788  0.1486 -0.8396  2.0489
16321TIP3   OH270453   6.736   4.931  13.536 -0.1084 -0.6688 -0.5629
16321TIP3    H170454   6.739   4.900  13.627 -2.4018  1.3641  0.3156
16321TIP3    H270455   6.788   5.011  13.537 -1.8935  0.5494 -0.4266
16322TIP3   OH270456   5.063   4.731  13.758  0.1857 -0.0936  0.0079
16322TIP3    H170457   5.071   4.814  13.806 -1.2189  0.0867 -0.0291
16322TIP3    H270458   5.112   4.747  13.677 -0.7313  1.0157 -0.3639
16323TIP3   OH270459   4.813   0.488   6.234 -0.0348  0.2483 -0.0373
16323TIP3    H170460   4.852   0.469   6.148  0.9314  1.4273  0.1162
16323TIP3    H270461   4.882   0.534   6.281 -1.2112  1.3020  0.6998
16324TIP3   OH270462   1.077   3.981   1.749 -0.6433  0.4092  0.4282
16324TIP3    H170463   1.023   4.032   1.689  0.3087  0.7896 -0.1200
16324TIP3    H270464   1.162   3.973   1.705 -0.9441 -2.2330  0.1567
16325TIP3   OH270465   0.718   0.032  13.519 -0.6009  0.1034 -0.6938
16325TIP3    H170466   0.808   0.009  13.495  0.3643  0.4430  2.2043
16325TIP3    H270467   0.668   0.019  13.439  2.4596  2.6755 -3.2932
16326TIP3   OH270468   3.695   1.536  13.424  0.5694 -0.4335 -0.1854
16326TIP3    H170469   3.716   1.612  13.478  1.1240 -0.2104 -0.7008
16326TIP3    H270470   3.678   1.466  13.486 -1.4688  0.4727  0.3405
16327TIP3   OH270471   5.588   1.463  15.910  0.2162  0.0953 -0.8608
16327TIP3    H170472   5.608   1.530  15.976 -1.4546  1.3856 -1.5889
16327TIP3    H270473   5.667   1.458  15.856  0.5443  1.1516 -0.5130
16328TIP3   OH270474   2.994   3.846  11.804 -0.1140 -0.8037 -0.1045
16328TIP3    H170475   2.903   3.828  11.777 -0.2129  0.3079 -0.5399
16328TIP3    H270476   2.991   3.843  11.899 -0.7618 -0.1055 -0.0918
16329TIP3   OH270477   4.524   4.544   0.770  0.1516 -0.1747  0.0387
16329TIP3    H170478   4.609   4.502   0.785  0.9107  1.2670  0.0589
16329TIP3    H270479   4.526   4.569   0.678  0.1570  0.6926  0.2643
16330TIP3   OH270480   3.624   2.326  10.933 -0.0482  0.6754 -0.2034
16330TIP3    H170481   3.704   2.332  10.985  0.0179  1.5357 -0.3944
16330TIP3    H270482   3.644   2.261  10.866 -0.4815 -1.2589  1.4381
16331TIP3   OH270483   4.416   1.266  15.204  0.0788 -0.0450  0.6300
16331TIP3    H170484   4.508   1.273  15.179  0.6645  1.3504  2.9362
16331TIP3    H270485   4.382   1.194  15.150  2.3897 -0.3358 -0.5549
16332TIP3   OH270486   3.812   5.365  16.339 -0.3749 -0.0460 -0.5957
16332TIP3    H170487   3.785   5.336  16.426 -1.2664  1.4658 -0.3488
16332TIP3    H270488   3.838   5.456  16.350  1.7434 -0.4788 -1.4813
16333TIP3   OH270489   3.720   5.159   2.332 -0.0195 -0.1019  1.0271
16333TIP3    H170490   3.642   5.110   2.305 -0.6528  0.3493  1.9609
16333TIP3    H270491   3.769   5.174   2.251 -1.4810  0.5960  0.2257
16334TIP3   OH270492   0.145   0.530  12.980  0.4044 -0.2447  0.0294
16334TIP3    H170493   0.176   0.549  13.068 -1.1988 -0.4434  0.6701
16334TIP3    H270494   0.221   0.494  12.934  1.3086  0.0655  1.2599
16335TIP3   OH270495   5.667   3.510  13.224  0.2873  0.0834 -0.2749
16335TIP3    H170496   5.645   3.527  13.315  1.4806 -1.5882  0.3690
16335TIP3    H270497   5.607   3.566  13.174 -0.4362  0.9763  1.5044
16336TIP3   OH270498   5.188   0.225   1.975 -0.0708  0.2381 -0.4299
16336TIP3    H170499   5.173   0.304   2.027 -2.1021 -0.0112 -0.5283
16336TIP3    H270500   5.276   0.197   1.998 -0.5706  0.6180  2.2246
16337TIP3   OH270501   6.624   1.885   1.251 -0.0243 -0.3904 -0.8065
16337TIP3    H170502   6.571   1.806   1.265  1.1029 -1.0329 -0.0288
16337TIP3    H270503   6.612   1.937   1.330  0.3778 -0.4582 -0.7003
16338TIP3   OH270504   2.614   2.331   3.824  0.4175 -0.0286 -0.0049
16338TIP3    H170505   2.664   2.412   3.829  0.7974 -0.2344 -0.4604
16338TIP3    H270506   2.561   2.330   3.905  1.4416 -0.0200  0.6781
16339TIP3   OH270507   1.524   4.509  17.027  0.0099  0.4800  0.2656
16339TIP3    H170508   1.612   4.520  16.993 -0.2227  2.4145  0.2116
16339TIP3    H270509   1.527   4.544  17.116 -0.5811  0.0532  0.4676
16340TIP3   OH270510   3.901   3.116  15.135 -0.5423  0.4479 -0.2315
16340TIP3    H170511   3.936   3.200  15.165 -0.1639  0.5578 -0.9400
16340TIP3    H270512   3.851   3.138  15.056 -0.3944  0.0012 -0.4515
16341TIP3   OH270513   5.598   4.154  16.479  0.0899  0.2712 -0.5230
16341TIP3    H170514   5.520   4.122  16.524 -0.2165 -0.2145 -1.3788
16341TIP3    H270515   5.618   4.237  16.522 -1.1363  0.5992 -0.5496
16342TIP3   OH270516   3.860   3.427   1.487  0.3309 -0.0078  0.1137
16342TIP3    H170517   3.774   3.399   1.454 -0.5385  1.7854  0.7305
16342TIP3    H270518   3.908   3.345   1.499 -0.8912 -1.0019 -1.2729
16343TIP3   OH270519   6.430   6.575   1.841 -0.1776  0.5137  0.2756
16343TIP3    H170520   6.352   6.574   1.896 -0.5279  0.4616 -0.2196
16343TIP3    H270521   6.491   6.516   1.885 -0.2346  0.9120  0.9180
16344TIP3   OH270522   1.422   4.225  16.097  0.1154 -0.1779  0.2036
16344TIP3    H170523   1.395   4.134  16.107  0.7834 -0.3434  0.5722
16344TIP3    H270524   1.342   4.272  16.075 -0.3124 -0.7797  0.4642
16345TIP3   OH270525   5.844   4.596  12.122  0.3284  0.0569  0.1351
16345TIP3    H170526   5.774   4.659  12.105 -0.1279 -0.8029 -1.4544
16345TIP3    H270527   5.922   4.649  12.137 -0.4485  1.0150  0.9207
16346TIP3   OH270528   5.010   3.480   5.802 -0.3698 -0.1066  0.1458
16346TIP3    H170529   5.052   3.457   5.720 -0.5041 -0.2180  0.1077
16346TIP3    H270530   5.028   3.574   5.813 -1.4451  0.2130 -0.6646
16347TIP3   OH270531   0.257   0.857   2.970  0.7488 -0.0024 -0.1125
16347TIP3    H170532   0.223   0.802   3.040 -0.0580 -2.7385 -2.5003
16347TIP3    H270533   0.351   0.864   2.989  0.6852 -1.3257  0.8176
16348TIP3   OH270534   5.685   1.011  16.932 -0.1626  0.3992  0.8604
16348TIP3    H170535   5.645   1.004  16.845 -1.5434  0.8554  1.4202
16348TIP3    H270536   5.765   0.959  16.927 -0.7164 -0.3572 -0.4031
16349TIP3   OH270537   2.741   5.659   1.941  0.1273 -0.2009  0.0742
16349TIP3    H170538   2.758   5.753   1.950  0.6329 -0.4362  2.0933
16349TIP3    H270539   2.671   5.653   1.875  1.0211  1.4713 -1.1050
16350TIP3   OH270540   3.872   5.574   3.207  0.0411 -0.0842  0.6573
16350TIP3    H170541   3.881   5.636   3.135 -2.9343 -0.0561  0.2074
16350TIP3    H270542   3.840   5.627   3.280  0.5055 -0.5727  1.2243
16351TIP3   OH270543   2.752   0.133   0.446 -0.2131 -0.6763  0.1728
16351TIP3    H170544   2.678   0.105   0.393 -0.1792 -0.4303 -0.0012
16351TIP3    H270545   2.812   0.175   0.385 -0.3450 -0.0488  0.4622
16352TIP3   OH270546   3.763   3.178   5.577 -0.0667  0.1052  0.3436
16352TIP3    H170547   3.670   3.188   5.596  0.2253  1.0657  1.3481
16352TIP3    H270548   3.787   3.257   5.529  0.1212 -0.3915 -0.3927
16353TIP3   OH270549   4.281   2.442   6.848  0.1496  0.4043 -0.1350
16353TIP3    H170550   4.366   2.456   6.807  0.1687 -0.1356 -0.2870
16353TIP3    H270551   4.273   2.514   6.911  1.2970 -0.2544  0.8147
16354TIP3   OH270552   1.121   3.032  11.758 -0.3489  0.1626  0.4120
16354TIP3    H170553   1.096   2.989  11.677  0.6928 -0.2589  0.2874
16354TIP3    H270554   1.125   2.961  11.822  0.9964  0.0922  0.2963
16355TIP3   OH270555   0.789   1.542   5.658 -0.4081 -0.0547 -0.5019
16355TIP3    H170556   0.845   1.616   5.683  0.1348  0.1061 -2.1213
16355TIP3    H270557   0.796   1.481   5.731  1.2290  0.3274 -0.3118
16356TIP3   OH270558   1.786   3.023   5.306 -0.0704  0.1357 -0.6480
16356TIP3    H170559   1.767   3.072   5.386  0.2638 -2.4707  1.1632
16356TIP3    H270560   1.837   2.947   5.335  1.8754  0.1126 -3.6365
16357TIP3   OH270561   4.518   3.006   2.730  0.3301  0.3220 -0.5314
16357TIP3    H170562   4.596   3.014   2.786 -0.4323 -0.1601  0.6469
16357TIP3    H270563   4.503   3.094   2.697 -0.3198  1.0820  1.6209
16358TIP3   OH270564   1.004   2.505   4.586 -0.0233 -0.2711 -0.3118
16358TIP3    H170565   1.022   2.599   4.577  0.6630 -0.5359 -2.0128
16358TIP3    H270566   0.951   2.484   4.509  2.0152 -1.7664 -1.3864
16359TIP3   OH270567   4.955   1.711  14.469 -0.0464  0.4171 -0.1634
16359TIP3    H170568   4.958   1.685  14.377  0.5181 -0.2264  0.0328
16359TIP3    H270569   5.047   1.722  14.493 -0.1941  0.5480  0.3413
16360TIP3   OH270570   4.143   2.084   4.248  0.7349  0.2549  0.2223
16360TIP3    H170571   4.102   2.158   4.204  0.3815  0.1612  0.3861
16360TIP3    H270572   4.197   2.043   4.180  2.0447  1.4552  0.4865
16361TIP3   OH270573   3.549   0.036   1.542 -0.0261 -0.0395 -0.3183
16361TIP3    H170574   3.560  -0.026   1.471 -1.7291  0.7139 -1.3109
16361TIP3    H270575   3.635   0.042   1.583  0.5619 -1.8071 -1.1906
16362TIP3   OH270576   3.202   0.600  10.651  0.0758 -0.6051  0.1961
16362TIP3    H170577   3.290   0.616  10.615  0.3153  0.2219  1.0929
16362TIP3    H270578   3.167   0.528  10.599  0.3404  0.6226 -1.7787
16363TIP3   OH270579   1.548   2.205  10.883 -0.2886 -0.0067 -0.0768
16363TIP3    H170580   1.535   2.111  10.874  2.8869 -0.7052  1.1615
16363TIP3    H270581   1.571   2.235  10.795 -2.1334 -0.1343 -0.6576
16364TIP3   OH270582   3.151   4.253   1.323 -0.5685  0.1572 -0.2458
16364TIP3    H170583   3.091   4.205   1.266 -0.5740 -1.2900  0.8967
16364TIP3    H270584   3.096   4.287   1.393 -0.5129  1.6298 -0.8815
16365TIP3   OH270585   5.539   1.027   1.941  0.0912  0.1531 -0.2908
16365TIP3    H170586   5.574   0.979   2.016 -2.0224  0.4992  0.9887
16365TIP3    H270587   5.500   1.105   1.980  0.1165  1.0048 -1.9276
16366TIP3   OH270588   4.793   3.283   3.251 -0.7950 -0.1370 -0.3806
16366TIP3    H170589   4.866   3.270   3.190  0.4319  1.0454  0.7609
16366TIP3    H270590   4.780   3.196   3.291  0.5270 -0.1990 -0.0440
16367TIP3   OH270591   1.737   6.418  12.349 -0.5355  0.0262  0.2418
16367TIP3    H170592   1.779   6.461  12.424  1.3204 -1.2680  0.0055
16367TIP3    H270593   1.741   6.482  12.279  1.4384 -0.1658  0.1299
16368TIP3   OH270594   0.155   5.373  14.012 -0.2881 -0.2535  0.0033
16368TIP3    H170595   0.154   5.346  14.104  0.1302 -1.4558 -0.3156
16368TIP3    H270596   0.215   5.311  13.971 -0.2575  0.4478 -1.0317
16369TIP3   OH270597   0.416   2.377   3.459 -0.1510  0.1045  0.4085
16369TIP3    H170598   0.330   2.415   3.443  0.6308  1.2633 -1.3332
16369TIP3    H270599   0.477   2.451   3.452  1.2562 -1.1406 -1.3359
16370TIP3   OH270600   0.408   6.346   2.222 -0.0506  0.2503  0.6364
16370TIP3    H170601   0.484   6.399   2.248 -0.4351  2.1114 -1.7167
16370TIP3    H270602   0.423   6.326   2.130 -2.8616  1.5648 -0.2120
16371TIP3   OH270603   0.184   0.694   4.907  0.0587 -0.5793  0.7446
16371TIP3    H170604   0.112   0.641   4.942 -0.3310 -0.2146  0.5069
16371TIP3    H270605   0.155   0.721   4.820  0.6437 -0.7342  0.4973
16372TIP3   OH270606   3.834   5.328  11.310  0.6194  0.0624  0.6742
16372TIP3    H170607   3.740   5.327  11.289  0.0647  0.2162  2.9522
16372TIP3    H270608   3.844   5.262  11.379  2.2246 -0.0031  0.4192
16373TIP3   OH270609   1.135   1.366   2.723  0.2597 -0.0470  0.2872
16373TIP3    H170610   1.087   1.344   2.643  2.1488  1.7754 -1.4718
16373TIP3    H270611   1.098   1.450   2.751 -1.2318 -1.2300  2.1445
16374TIP3   OH270612   0.315   5.939  15.775 -0.3704 -0.6885 -0.1139
16374TIP3    H170613   0.357   5.954  15.860 -1.7338  0.8584  0.3378
16374TIP3    H270614   0.271   5.855  15.786 -0.4546 -0.5540  0.6944
16375TIP3   OH270615   5.166   2.214  17.073  0.1262  1.0051 -0.4740
16375TIP3    H170616   5.163   2.262  16.990 -0.7486  0.1392 -0.9656
16375TIP3    H270617   5.196   2.127  17.049  2.6393  1.5202  0.5451
16376TIP3   OH270618   1.632   4.095  13.836  0.7618 -0.0403  0.3262
16376TIP3    H170619   1.629   4.008  13.876  0.0402 -0.2912 -0.2540
16376TIP3    H270620   1.543   4.128  13.843  0.0288 -0.9487 -2.8516
16377TIP3   OH270621   2.207   6.619   0.638 -0.0047  0.6352 -0.2046
16377TIP3    H170622   2.232   6.542   0.688  0.4084  1.8540  1.5745
16377TIP3    H270623   2.288   6.651   0.600 -0.2336  0.0035 -1.2361
16378TIP3   OH270624   6.747   3.680   4.890  0.0826 -0.0590 -0.5305
16378TIP3    H170625   6.736   3.773   4.911 -0.6740 -0.2125 -0.2357
16378TIP3    H270626   6.838   3.673   4.859  0.1596  0.7655 -0.5028
16379TIP3   OH270627   1.568   6.330  16.417 -0.3188 -0.0164 -0.4321
16379TIP3    H170628   1.584   6.261  16.481 -2.3553 -0.7636 -0.6708
16379TIP3    H270629   1.484   6.367  16.441 -0.0676  1.2231 -1.3645
16380TIP3   OH270630   2.124   1.309   1.377 -0.1675  0.9293  0.4644
16380TIP3    H170631   2.142   1.240   1.440 -0.3231  0.6176  0.1735
16380TIP3    H270632   2.210   1.331   1.341 -0.1609  0.6166  0.2828
16381TIP3   OH270633   4.619   3.943  13.461 -0.1602  0.5499 -0.2824
16381TIP3    H170634   4.627   3.909  13.372  0.7892 -0.7090  0.2565
16381TIP3    H270635   4.705   3.977  13.482  0.4614 -1.6320  1.0776
16382TIP3   OH270636   3.770   6.572  11.471 -0.1008 -0.0850 -0.3023
16382TIP3    H170637   3.820   6.559  11.389 -0.8958 -0.8356 -0.6918
16382TIP3    H270638   3.679   6.575  11.443 -0.3212  0.5947  0.4734
16383TIP3   OH270639   5.436   4.252  13.481 -0.4443  0.0642 -0.6324
16383TIP3    H170640   5.453   4.210  13.566 -0.9910  1.0225 -0.0222
16383TIP3    H270641   5.504   4.319  13.474  0.3121 -0.7744 -1.5124
16384TIP3   OH270642   4.027   5.501  16.009  0.1555 -0.2790  0.2558
16384TIP3    H170643   4.096   5.547  16.056 -0.1744 -1.1082  1.6074
16384TIP3    H270644   4.020   5.416  16.053 -0.9548 -0.6382 -0.5643
16385TIP3   OH270645   4.826   2.574   2.127 -0.1536  0.0216 -0.1997
16385TIP3    H170646   4.810   2.515   2.200  2.6970  0.1783  0.7036
16385TIP3    H270647   4.918   2.558   2.104  0.8425  4.0884  0.1779
16386TIP3   OH270648   1.773   1.382   4.903  0.7542 -0.1309 -0.4229
16386TIP3    H170649   1.805   1.296   4.933 -0.3009 -0.7300 -0.9496
16386TIP3    H270650   1.698   1.400   4.959  1.0750  0.5452 -0.2010
16387TIP3   OH270651   3.037   6.158   1.481 -0.0556 -0.0791  0.1719
16387TIP3    H170652   2.981   6.083   1.498  0.3338 -0.7786 -1.4575
16387TIP3    H270653   2.984   6.216   1.426  0.2107  0.0790  0.0783
16388TIP3   OH270654   6.159   0.590  14.966 -0.2220  0.0018  0.7265
16388TIP3    H170655   6.219   0.520  14.942 -0.7510  0.1593 -1.2093
16388TIP3    H270656   6.193   0.624  15.049  0.7337 -1.7215  1.0914
16389TIP3   OH270657   5.123   6.587   3.959  0.2224 -0.4035  0.0637
16389TIP3    H170658   5.143   6.673   3.995 -1.7884 -0.4893  1.6052
16389TIP3    H270659   5.053   6.603   3.895  2.1574 -0.5531 -2.2465
16390TIP3   OH270660   1.081   2.015  11.680 -0.2027  0.6457  0.2957
16390TIP3    H170661   1.097   1.925  11.709 -0.0115  0.2919 -0.8408
16390TIP3    H270662   1.054   2.061  11.759  2.0932  0.1982  1.4185
16391TIP3   OH270663   4.826   1.572   2.683  0.2516 -0.1448 -0.2702
16391TIP3    H170664   4.775   1.578   2.764  0.7829 -0.0449  0.0589
16391TIP3    H270665   4.897   1.512   2.703  0.1778 -0.4117 -0.7826
16392TIP3   OH270666   0.785   5.569  11.227 -0.1901 -0.1273 -0.4252
16392TIP3    H170667   0.808   5.598  11.315 -0.9640  0.1422 -0.3008
16392TIP3    H270668   0.713   5.507  11.240 -1.8240  1.5677 -0.9726
16393TIP3   OH270669   5.125   2.208  13.005 -0.1015  0.1859 -0.2254
16393TIP3    H170670   5.215   2.178  13.001 -0.9766 -3.0403  1.1158
16393TIP3    H270671   5.078   2.151  12.943 -1.1433  2.4512 -1.6525
16394TIP3   OH270672   2.706   0.251  11.915  0.4989 -0.0863  0.4490
16394TIP3    H170673   2.720   0.340  11.946  1.1589  0.1229 -0.4199
16394TIP3    H270674   2.766   0.241  11.841 -0.6775 -0.7321 -0.4588
16395TIP3   OH270675   1.064   4.610   2.263  0.1509  0.2897  0.0685
16395TIP3    H170676   0.989   4.641   2.212 -0.4166 -1.9020 -0.5448
16395TIP3    H270677   1.137   4.608   2.201 -0.2878 -1.3698 -0.4437
16396TIP3   OH270678   0.826   6.664   2.304  0.3036 -0.1059 -0.0307
16396TIP3    H170679   0.833   6.662   2.208  0.3739 -0.3040 -0.0224
16396TIP3    H270680   0.896   6.722   2.332  0.4810 -0.2953 -0.0818
16397TIP3   OH270681   1.994   2.458   4.530  0.4027 -0.1822  0.0569
16397TIP3    H170682   1.958   2.536   4.487  0.3178 -0.3311 -0.1410
16397TIP3    H270683   1.917   2.412   4.563  0.4960  0.2105  0.8521
16398TIP3   OH270684   1.439   2.463  10.944  0.0881  0.4871 -0.0597
16398TIP3    H170685   1.420   2.463  10.850  0.6364 -0.1953 -0.1786
16398TIP3    H270686   1.483   2.379  10.960  0.2811  0.7296  0.7497
16399TIP3   OH270687   6.459   5.914   2.531 -0.0133 -0.0203  0.2424
16399TIP3    H170688   6.538   5.905   2.477  2.4345  0.4098  3.4230
16399TIP3    H270689   6.447   5.827   2.570 -0.0397  0.3354  1.0610
16400TIP3   OH270690   3.890   3.002  11.772 -0.3553  0.2622 -0.0377
16400TIP3    H170691   3.952   3.006  11.700 -1.8992 -1.5449 -1.6015
16400TIP3    H270692   3.883   3.092  11.804  2.6620  0.5925 -0.0556
16401TIP3   OH270693   2.109   1.062   1.025 -0.4776  0.1933  0.5934
16401TIP3    H170694   2.156   1.145   1.016  1.1100 -0.6885  0.3880
16401TIP3    H270695   2.064   1.069   1.109 -1.2178  1.6414  0.1238
16402TIP3   OH270696   6.501   5.282  10.656 -0.0457 -0.2235  0.4424
16402TIP3    H170697   6.545   5.355  10.611 -0.3530  0.0202  0.5385
16402TIP3    H270698   6.458   5.233  10.586 -1.5072  0.8146  0.5669
16403TIP3   OH270699   0.329   2.634   1.790 -0.4458  0.2096  0.0063
16403TIP3    H170700   0.419   2.607   1.808 -0.0522  0.5189 -1.4289
16403TIP3    H270701   0.327   2.727   1.813 -0.7619 -0.0712  1.2228
16404TIP3   OH270702   2.403   0.213  13.166 -0.2598  0.6136  0.5639
16404TIP3    H170703   2.472   0.219  13.101 -0.1164  2.0906  0.8048
16404TIP3    H270704   2.391   0.304  13.196 -2.5921  0.4840  0.2205
16405TIP3   OH270705   6.345   0.924  11.952  0.3716 -0.8237 -0.5953
16405TIP3    H170706   6.349   0.884  12.039 -1.8487 -1.3897 -0.7059
16405TIP3    H270707   6.392   1.007  11.962 -0.6746 -0.4195  1.4045
16406TIP3   OH270708   2.190   4.902   0.768  0.3004  0.1827  0.0608
16406TIP3    H170709   2.112   4.956   0.755 -0.5666 -0.5570  1.8484
16406TIP3    H270710   2.167   4.817   0.731  0.8320  0.3756 -0.7375
16407TIP3   OH270711   4.660   1.318  12.838 -0.2509 -0.0563  0.1212
16407TIP3    H170712   4.691   1.249  12.779 -3.0370 -1.6485  0.3528
16407TIP3    H270713   4.648   1.273  12.922  0.3675  1.3834  1.0148
16408TIP3   OH270714   2.763   4.146  16.785 -0.2270 -0.2710 -0.1652
16408TIP3    H170715   2.835   4.107  16.834  1.3222  1.7491 -0.6717
16408TIP3    H270716   2.685   4.127  16.838  0.7304 -2.0677  0.6748
16409TIP3   OH270717   3.165   2.627   1.345 -0.2077 -0.0630 -0.3789
16409TIP3    H170718   3.145   2.711   1.386 -0.9476 -0.5399  0.2770
16409TIP3    H270719   3.080   2.595   1.313  0.5205  1.0559 -3.9084
16410TIP3   OH270720   5.184   1.565  16.954 -0.0084  0.1824  0.0462
16410TIP3    H170721   5.256   1.501  16.954 -0.1247  0.0083 -1.6190
16410TIP3    H270722   5.178   1.594  17.045  2.0004  0.0032  0.2931
16411TIP3   OH270723   6.801   3.921  15.528  0.5384  0.0142 -0.1648
16411TIP3    H170724   6.784   3.915  15.434  2.6354 -0.3271 -0.5647
16411TIP3    H270725   6.789   4.013  15.549 -0.1088  0.0636 -0.7306
16412TIP3   OH270726   4.496   3.866  11.260 -0.0488  0.8345  0.1476
16412TIP3    H170727   4.505   3.955  11.294  0.4248  0.3460  1.3378
16412TIP3    H270728   4.483   3.812  11.337  1.3188 -0.3493 -0.4099
16413TIP3   OH270729   3.123   1.200   5.120 -0.0227 -0.3095 -0.1840
16413TIP3    H170730   3.078   1.217   5.038  2.2734  0.7473 -1.3179
16413TIP3    H270731   3.146   1.287   5.153 -0.8732 -0.7119  1.6109
16414TIP3   OH270732   3.559   4.804  16.093  0.7552  0.2260  0.0208
16414TIP3    H170733   3.589   4.887  16.130  0.9100  0.1661  0.0287
16414TIP3    H270734   3.566   4.816  15.998 -0.2111  0.5979 -0.0198
16415TIP3   OH270735   4.149   3.451   2.769 -0.8767  0.0946  0.3699
16415TIP3    H170736   4.141   3.467   2.863 -1.8152  0.8043  0.1869
16415TIP3    H270737   4.204   3.523   2.737 -0.9319  0.1064  0.3021
16416TIP3   OH270738   1.574   5.424   3.345  0.1448  0.1250 -0.2713
16416TIP3    H170739   1.495   5.427   3.399 -1.4347 -1.7398 -2.2787
16416TIP3    H270740   1.541   5.421   3.255  2.4935 -1.3731 -1.1663
16417TIP3   OH270741   6.622   4.737  15.364  0.5526  0.2196 -0.3817
16417TIP3    H170742   6.659   4.660  15.321  1.1537  0.5623 -0.4808
16417TIP3    H270743   6.547   4.760  15.309  0.8079  0.1433 -0.7675
16418TIP3   OH270744   3.128   1.813  14.481 -0.6488 -0.0766 -0.8247
16418TIP3    H170745   3.162   1.749  14.419 -1.9083 -1.4431 -0.1674
16418TIP3    H270746   3.040   1.834  14.448 -0.8299  0.1521 -0.2157
16419TIP3   OH270747   4.468   4.943   2.597  0.0865  0.2492  0.1470
16419TIP3    H170748   4.379   4.965   2.625  0.1381 -0.8798  1.2429
16419TIP3    H270749   4.483   5.000   2.522 -1.2548  1.0508  0.4461
16420TIP3   OH270750   3.661   1.822   4.596 -0.2899 -0.5884  0.4311
16420TIP3    H170751   3.574   1.799   4.629 -0.2768 -1.2123  0.0584
16420TIP3    H270752   3.660   1.794   4.504  0.0610  0.0634  0.2250
16421TIP3   OH270753   3.647   1.715  10.640 -0.6375 -0.5270  0.0638
16421TIP3    H170754   3.689   1.776  10.700  1.5631 -1.1622 -0.7173
16421TIP3    H270755   3.583   1.767  10.591 -1.3596  0.3155  1.8366
16422TIP3   OH270756   3.263   5.264   5.379 -0.2130  0.0232  0.4327
16422TIP3    H170757   3.291   5.208   5.451  1.4630  1.6786  1.1600
16422TIP3    H270758   3.229   5.204   5.314  0.7947 -1.7751  1.4806
16423TIP3   OH270759   6.387   0.321  14.622 -1.0956  0.1004  0.1688
16423TIP3    H170760   6.305   0.291  14.661 -0.3786 -2.5113 -0.1428
16423TIP3    H270761   6.443   0.343  14.696 -0.3469 -3.1512  0.6795
16424TIP3   OH270762   6.827   0.179   1.800  0.5623  0.3458 -0.0669
16424TIP3    H170763   6.840   0.128   1.720  0.5608 -0.2141  0.2895
16424TIP3    H270764   6.804   0.114   1.867  0.6808  0.7987  0.4164
16425TIP3   OH270765   5.100   1.371  15.890 -0.0755  0.1739 -0.4964
16425TIP3    H170766   5.102   1.408  15.802 -0.3981  0.9751 -0.1737
16425TIP3    H270767   5.186   1.390  15.927 -0.8777  2.4463  0.3885
16426TIP3   OH270768   1.751   6.712   4.954  0.7968 -0.2499  0.2389
16426TIP3    H170769   1.748   6.798   4.996  0.3083 -0.1707  0.0506
16426TIP3    H270770   1.791   6.729   4.869 -1.5262  0.2588 -0.8366
16427TIP3   OH270771   5.401   5.778  16.495  0.1976 -0.2343 -0.0328
16427TIP3    H170772   5.381   5.871  16.491  0.8535 -0.0621  0.5423
16427TIP3    H270773   5.431   5.756  16.406  0.8973  0.3010  0.0707
16428TIP3   OH270774   0.784   5.208   5.858  0.0317 -0.3598 -0.2596
16428TIP3    H170775   0.833   5.189   5.779 -1.3023  1.2007 -1.5546
16428TIP3    H270776   0.722   5.135   5.866 -2.4979  1.2545 -3.0065
16429TIP3   OH270777   2.956   4.227  13.778  0.1163 -0.2535  0.4941
16429TIP3    H170778   3.017   4.192  13.843  0.5840  1.4009  1.0025
16429TIP3    H270779   2.870   4.199  13.808  0.4653 -0.9093  0.8973
16430TIP3   OH270780   0.378   0.215  13.489 -0.1474  0.3781  0.4973
16430TIP3    H170781   0.351   0.248  13.403  0.6393  1.1344  0.5244
16430TIP3    H270782   0.470   0.189  13.477  0.7268  2.6702  1.6619
16431TIP3   OH270783   2.294   0.044   0.890  0.0410  0.1753 -0.7495
16431TIP3    H170784   2.243  -0.032   0.862  1.7752 -0.3253 -2.7601
16431TIP3    H270785   2.307   0.095   0.811  1.7602  0.8121 -0.0915
16432TIP3   OH270786   0.512   3.042  15.197 -0.2304 -0.1426 -0.0004
16432TIP3    H170787   0.551   3.041  15.284 -2.7843 -0.9593  1.2537
16432TIP3    H270788   0.488   2.951  15.180 -0.3476  0.1087 -1.2690
16433TIP3   OH270789   4.985   5.117   3.721 -0.5529 -0.5590  0.0255
16433TIP3    H170790   4.990   5.206   3.686  0.3521 -0.2521  0.8667
16433TIP3    H270791   4.900   5.113   3.766 -0.3877  0.0472  0.3993
16434TIP3   OH270792   1.856   0.999   2.491 -0.4591 -0.6280  0.4250
16434TIP3    H170793   1.803   0.924   2.517 -0.4807 -0.7726 -0.0279
16434TIP3    H270794   1.910   0.966   2.420  0.9527 -0.7633  1.5041
16435TIP3   OH270795   0.653   2.240   1.354 -0.0243 -0.1166  0.3122
16435TIP3    H170796   0.602   2.171   1.312 -0.3090  1.0935 -1.4200
16435TIP3    H270797   0.588   2.292   1.402  0.0459 -0.4024  0.7276
16436TIP3   OH270798   4.948   4.426  12.671 -0.6581 -0.0058 -0.3244
16436TIP3    H170799   4.934   4.494  12.737  0.6881 -1.6601  1.8538
16436TIP3    H270800   4.861   4.388  12.657 -1.3864  1.9147 -1.4126
16437TIP3   OH270801   1.857   2.611  11.656 -0.6721  0.1054 -0.2772
16437TIP3    H170802   1.859   2.659  11.574 -0.8844 -0.3233 -0.5398
16437TIP3    H270803   1.852   2.519  11.630  0.1962 -0.0920  0.2113
16438TIP3   OH270804   1.937   5.952   5.221  0.2031 -0.5628  0.5350
16438TIP3    H170805   1.920   5.963   5.315  1.1122  1.3436  0.5198
16438TIP3    H270806   1.880   5.879   5.195 -1.7602  0.3049  2.1001
16439TIP3   OH270807   2.499   0.788   6.464  0.0033  0.2077  0.1652
16439TIP3    H170808   2.464   0.716   6.517 -0.5703  1.6495  1.8081
16439TIP3    H270809   2.482   0.867   6.515 -1.8596  1.8938 -2.7472
16440TIP3   OH270810   4.624   3.112  15.525 -0.2362  0.1582  0.1255
16440TIP3    H170811   4.617   3.025  15.565  0.6601  0.3643  0.7728
16440TIP3    H270812   4.673   3.164  15.589 -0.9057  1.1962 -0.1742
16441TIP3   OH270813   1.461   6.289  12.559  0.4924 -0.2055 -0.5302
16441TIP3    H170814   1.460   6.216  12.498 -0.8196 -0.5192 -0.1665
16441TIP3    H270815   1.379   6.335  12.543  0.8429  0.6005 -0.0623
16442TIP3   OH270816   1.980   1.422   1.599 -0.2849 -0.1434 -0.5300
16442TIP3    H170817   2.022   1.374   1.528  1.4109  0.6938 -0.1477
16442TIP3    H270818   2.017   1.510   1.594  1.5282 -0.5511  2.5758
16443TIP3   OH270819   5.347   3.033  15.962 -0.0860 -0.3481 -0.5489
16443TIP3    H170820   5.408   2.990  15.902 -0.3354 -0.7634 -0.5042
16443TIP3    H270821   5.288   3.083  15.906 -0.7974 -1.3425 -0.7035
16444TIP3   OH270822   5.448   6.414  11.963 -0.1932 -0.2930 -0.3815
16444TIP3    H170823   5.431   6.339  12.020  1.3171  0.5505  1.2911
16444TIP3    H270824   5.455   6.376  11.875 -1.4227 -1.8111  0.1342
16445TIP3   OH270825   4.253   4.645  12.870 -0.1130  0.4085 -0.7224
16445TIP3    H170826   4.185   4.662  12.935  0.0270  0.4672 -0.5911
16445TIP3    H270827   4.324   4.705  12.893  0.7697 -0.9858  0.3091
16446TIP3   OH270828   3.281   5.742   6.089 -0.2599  0.0492 -0.1575
16446TIP3    H170829   3.299   5.759   6.181  0.5597 -0.3203 -0.2476
16446TIP3    H270830   3.244   5.653   6.087  1.4365 -0.6821 -0.3651
16447TIP3   OH270831   5.932   6.094  15.113 -0.2332  0.6524 -0.2091
16447TIP3    H170832   5.985   6.059  15.041 -0.3378 -0.8686  0.4157
16447TIP3    H270833   5.942   6.188  15.106  2.1397  0.4496 -0.4450
16448TIP3   OH270834   1.789   0.312   2.315  0.5105 -0.2166 -0.2704
16448TIP3    H170835   1.794   0.389   2.370 -0.9450  0.3271 -0.8325
16448TIP3    H270836   1.844   0.332   2.239  0.5901  0.0361 -0.1437
16449TIP3   OH270837   0.432   6.455  15.978 -0.1170 -0.0147 -0.2606
16449TIP3    H170838   0.520   6.493  15.978 -0.2096  0.2381  1.4396
16449TIP3    H270839   0.374   6.528  15.956  0.1479 -0.4521 -2.7253
16450TIP3   OH270840   2.486   6.072   4.652  0.3810  0.6082  0.0367
16450TIP3    H170841   2.530   6.006   4.706  2.1665  0.6940 -1.2102
16450TIP3    H270842   2.394   6.046   4.653 -0.2841  2.0808  5.1455
16451TIP3   OH270843   2.890   1.698  14.136  0.5932 -0.3792  0.0181
16451TIP3    H170844   2.923   1.714  14.048  0.3705 -0.6292 -0.1117
16451TIP3    H270845   2.934   1.764  14.191 -0.2794  0.6742 -0.4940
16452TIP3   OH270846   3.834   2.280  13.963 -0.3845 -0.3232 -0.4156
16452TIP3    H170847   3.760   2.292  13.903 -0.3369 -2.0492 -0.8689
16452TIP3    H270848   3.906   2.252  13.907  0.8111  1.7513 -0.0469
16453TIP3   OH270849   4.881   6.805   3.815 -0.6593  0.4917 -0.4203
16453TIP3    H170850   4.798   6.849   3.832  0.0520  1.6261  0.2817
16453TIP3    H270851   4.939   6.874   3.784 -0.0443 -0.3352 -1.1605
16454TIP3   OH270852   2.620   4.272  13.382 -0.2591  0.0845 -0.0141
16454TIP3    H170853   2.599   4.356  13.341  0.3435  0.4595  0.4369
16454TIP3    H270854   2.667   4.295  13.462  2.3476 -0.7151 -1.2056
16455TIP3   OH270855   6.659   4.785   6.571  0.6707  0.4108 -0.2680
16455TIP3    H170856   6.618   4.761   6.488 -0.3238  2.0449 -0.3006
16455TIP3    H270857   6.651   4.706   6.625 -0.4874 -0.0480 -1.0604
16456TIP3   OH270858   1.658   5.861   5.242 -0.5937 -0.1154 -0.1679
16456TIP3    H170859   1.694   5.822   5.162 -0.1999  1.6664 -0.9037
16456TIP3    H270860   1.566   5.835   5.242  0.0203 -2.6616  0.4424
16457TIP3   OH270861   6.119   5.507   0.575 -0.0229 -0.1016  0.3656
16457TIP3    H170862   6.074   5.440   0.627  1.1908 -1.8832 -0.7241
16457TIP3    H270863   6.199   5.525   0.624  0.5239 -0.8629 -0.2013
16458TIP3   OH270864   1.376   2.870  13.033 -0.0027 -0.3792 -0.3287
16458TIP3    H170865   1.334   2.872  12.947  1.4435 -1.1138 -1.1016
16458TIP3    H270866   1.460   2.915  13.020 -0.6952  1.5354  1.2958
16459TIP3   OH270867   1.733   5.014   1.057 -0.0579 -0.5080  0.0996
16459TIP3    H170868   1.641   5.019   1.079  0.1114  1.2161  0.5590
16459TIP3    H270869   1.774   4.972   1.133 -0.1763  0.7770  0.9027
16460TIP3   OH270870   5.775   6.189   0.073  0.2576  0.1516 -0.5285
16460TIP3    H170871   5.755   6.181  -0.020 -0.8635 -1.1601 -0.1984
16460TIP3    H270872   5.706   6.245   0.108 -0.4383 -0.9127 -0.1583
16461TIP3   OH270873   3.887   2.294  14.376  0.0877 -0.0846 -0.1879
16461TIP3    H170874   3.927   2.236  14.441 -0.4849  0.5846  0.7958
16461TIP3    H270875   3.916   2.382  14.403 -2.8099  0.5537  1.1957
16462TIP3   OH270876   6.835   6.621  15.274 -0.0639  0.1303 -0.6694
16462TIP3    H170877   6.835   6.534  15.234 -2.4944 -0.6063  0.7222
16462TIP3    H270878   6.791   6.677  15.209  1.0974  0.2578 -1.3717
16463TIP3   OH270879   5.819   3.769   2.020  0.0501  0.0126  0.0147
16463TIP3    H170880   5.834   3.701   1.954  0.1436 -1.7129  1.7384
16463TIP3    H270881   5.879   3.839   1.995  1.5900 -1.4467 -0.6154
16464TIP3   OH270882   3.786   6.833  10.086 -0.4347 -0.7081  0.4119
16464TIP3    H170883   3.867   6.825  10.136  1.1209 -0.0941 -1.8826
16464TIP3    H270884   3.785   6.924  10.056 -0.8263 -1.3020 -1.4608
16465TIP3   OH270885   1.926   2.338   3.428 -0.2783 -0.1025  0.6431
16465TIP3    H170886   2.010   2.346   3.472 -0.1965 -1.8819  0.8775
16465TIP3    H270887   1.906   2.245   3.431 -1.1620 -0.0426 -1.4664
16466TIP3   OH270888   5.217   3.717  16.643  0.4706  0.3825  0.3020
16466TIP3    H170889   5.200   3.776  16.569 -0.8225 -1.0097 -0.5553
16466TIP3    H270890   5.182   3.764  16.719 -4.8534 -0.9202 -0.9077
16467TIP3   OH270891   5.402   5.638  13.726 -0.1624  0.7549 -0.1950
16467TIP3    H170892   5.468   5.629  13.795 -0.3980  1.4158  0.1271
16467TIP3    H270893   5.374   5.729  13.731 -1.8779  0.2379  0.4021
16468TIP3   OH270894   2.115   5.138  16.686 -0.4202  0.4187 -0.1221
16468TIP3    H170895   2.073   5.173  16.607 -0.0480  0.3624 -0.3475
16468TIP3    H270896   2.047   5.087  16.729 -0.7668  0.8404 -0.1557
16469TIP3   OH270897   5.401   3.266   5.110 -0.2456  0.0958 -0.2774
16469TIP3    H170898   5.451   3.335   5.155 -0.7540  0.0576  0.3561
16469TIP3    H270899   5.348   3.312   5.045 -2.9516  0.7466  2.1897
16470TIP3   OH270900   6.724   4.707   3.044 -0.0333 -0.1528  0.1428
16470TIP3    H170901   6.708   4.624   3.088 -1.2656  0.0928  0.2126
16470TIP3    H270902   6.730   4.685   2.951  1.3962 -0.5211  0.3024
16471TIP3   OH270903   3.490   3.241   1.008 -0.8764 -0.4716  0.0820
16471TIP3    H170904   3.484   3.206   0.919  1.0469 -0.6408 -0.0303
16471TIP3    H270905   3.424   3.310   1.011 -0.3765  0.1558 -1.7997
16472TIP3   OH270906   3.800   3.887   2.370  0.7047 -0.2379  0.2722
16472TIP3    H170907   3.719   3.854   2.332  1.0173  0.0780 -0.7001
16472TIP3    H270908   3.816   3.832   2.446 -0.0092 -0.8030  0.0177
16473TIP3   OH270909   2.480   2.721  12.750  0.2748  0.4121 -0.6844
16473TIP3    H170910   2.508   2.811  12.768 -0.2182  0.5527 -0.6274
16473TIP3    H270911   2.553   2.683  12.701  1.0852  0.4173  0.4739
16474TIP3   OH270912   3.618   4.400   4.084 -0.3256  0.2468 -0.2193
16474TIP3    H170913   3.630   4.307   4.102 -2.7093 -0.4069 -1.6109
16474TIP3    H270914   3.678   4.419   4.013 -0.0200 -0.2889 -0.1085
16475TIP3   OH270915   3.710   0.895  12.747  0.1685  0.3766  0.0632
16475TIP3    H170916   3.799   0.926  12.735 -0.2897  1.7739  0.0907
16475TIP3    H270917   3.670   0.957  12.808 -1.4583  1.1141 -1.6236
16476TIP3   OH270918   5.888   0.093  14.766 -0.1449  0.3930 -0.4787
16476TIP3    H170919   5.889  -0.001  14.784  2.6726 -0.3105 -3.4380
16476TIP3    H270920   5.923   0.132  14.846 -0.0927 -1.1727  0.3172
16477TIP3   OH270921   2.771   3.824  14.087 -0.3661  0.1100 -0.3134
16477TIP3    H170922   2.797   3.911  14.118 -0.1707 -0.2253  0.5026
16477TIP3    H270923   2.739   3.838  13.998  0.4813  0.8885 -0.5126
16478TIP3   OH270924   2.791   3.314  13.702  0.2361 -0.0879 -0.3400
16478TIP3    H170925   2.849   3.261  13.648  0.0782 -0.3786 -0.2302
16478TIP3    H270926   2.784   3.265  13.784 -1.0487 -0.6411 -0.7463
16479TIP3   OH270927   6.794   3.973  13.811 -0.5940  0.2282 -0.1459
16479TIP3    H170928   6.800   3.941  13.721  0.8841  0.5005 -0.1651
16479TIP3    H270929   6.700   3.979  13.827 -0.8927 -0.2819 -1.5005
16480TIP3   OH270930   6.295   2.809   5.667 -0.2987 -0.6199  0.2473
16480TIP3    H170931   6.351   2.879   5.701 -0.0587 -0.4174 -0.5448
16480TIP3    H270932   6.211   2.851   5.651  0.0543 -0.3264 -0.9135
16481TIP3   OH270933   6.630   1.525   5.280  0.1054  0.4834  0.2678
16481TIP3    H170934   6.603   1.471   5.354  2.0576 -0.1512  0.5772
16481TIP3    H270935   6.660   1.463   5.214 -0.9134  1.0725 -0.7744
16482TIP3   OH270936   3.174   0.362   3.291 -0.4001 -0.4280 -0.4232
16482TIP3    H170937   3.122   0.318   3.359  1.5606 -0.3577  1.2198
16482TIP3    H270938   3.264   0.356   3.323  0.4525  0.6602 -2.4842
16483TIP3   OH270939   2.963   1.339  16.394 -0.6929 -0.1056 -0.1390
16483TIP3    H170940   3.002   1.265  16.348 -0.9664 -0.5705  0.3623
16483TIP3    H270941   3.011   1.415  16.362 -0.1907 -0.5353 -0.4264
16484TIP3   OH270942   2.664   6.749   4.255 -0.0964  0.4998 -0.5109
16484TIP3    H170943   2.752   6.760   4.292 -0.8560  2.0387  0.9480
16484TIP3    H270944   2.616   6.700   4.322 -0.0415 -1.5744 -1.8873
16485TIP3   OH270945   6.481   2.129   3.056 -0.3857 -0.1709  0.3494
16485TIP3    H170946   6.515   2.045   3.088 -1.9123 -1.6472 -1.5983
16485TIP3    H270947   6.522   2.195   3.112 -0.6295 -2.3135  3.3078
16486TIP3   OH270948   5.036   6.479  16.709  0.4555 -0.6422  0.8099
16486TIP3    H170949   5.087   6.530  16.646  0.5272 -1.6164  0.0657
16486TIP3    H270950   4.968   6.436  16.656 -2.0089  1.5804  1.8983
16487TIP3   OH270951   3.948   2.767  13.570  0.0394 -0.3043  0.3093
16487TIP3    H170952   3.891   2.835  13.605  1.8396  0.0676  2.7850
16487TIP3    H270953   3.889   2.695  13.546 -1.7234  1.3622 -0.5702
16488TIP3   OH270954   0.749   0.497  15.475  0.8598  0.6647  0.5434
16488TIP3    H170955   0.799   0.440  15.534 -0.9427 -0.5432  1.0164
16488TIP3    H270956   0.723   0.440  15.403 -1.6137  0.6080  1.3919
16489TIP3   OH270957   0.483   6.753  15.526  0.2697  0.0106 -0.4189
16489TIP3    H170958   0.432   6.735  15.605  0.5549 -0.2600 -0.2992
16489TIP3    H270959   0.495   6.668  15.485  3.9652 -0.6257  1.5463
16490TIP3   OH270960   2.214   5.965   1.377  0.4113 -0.3641 -0.1718
16490TIP3    H170961   2.196   5.892   1.437  1.1333 -1.1606 -0.8884
16490TIP3    H270962   2.140   5.965   1.317  0.3125 -0.3898 -0.0502
16491TIP3   OH270963   0.365   0.041  12.587 -0.4454 -0.1415 -0.2263
16491TIP3    H170964   0.349   0.014  12.677  0.0225  0.0650 -0.0810
16491TIP3    H270965   0.411   0.125  12.594  0.3885 -0.5506 -0.6325
16492TIP3   OH270966   1.134   2.123  15.199  0.0359 -0.4647  0.2478
16492TIP3    H170967   1.107   2.104  15.289 -1.7435 -1.6872 -0.4910
16492TIP3    H270968   1.097   2.209  15.181 -0.6078 -0.7209  0.3168
16493TIP3   OH270969   6.021   3.597  17.017  0.2172 -0.6344  0.1422
16493TIP3    H170970   5.962   3.672  17.027 -0.2227 -0.7500 -1.3169
16493TIP3    H270971   5.965   3.527  16.983  1.2737 -0.5807 -1.8425
16494TIP3   OH270972   0.886   3.445  15.985 -0.5469 -0.3516 -0.1821
16494TIP3    H170973   0.846   3.426  16.070 -1.5942 -3.5176 -1.2652
16494TIP3    H270974   0.855   3.533  15.963 -1.9694 -0.3203  1.7434
16495TIP3   OH270975   2.818   4.241  15.918 -0.0737 -0.2470 -0.2201
16495TIP3    H170976   2.728   4.208  15.920 -0.7281  1.4855  0.8865
16495TIP3    H270977   2.852   4.220  16.005 -0.9053  2.8186  0.9935
16496TIP3   OH270978   2.861   2.239  11.551  0.0565 -0.2202  0.7020
16496TIP3    H170979   2.888   2.163  11.500  0.7140  1.0829 -0.9726
16496TIP3    H270980   2.778   2.266  11.512  0.2840  0.4591  0.6805
16497TIP3   OH270981   3.945   2.845   3.044  0.1035  0.5546  0.0347
16497TIP3    H170982   4.012   2.778   3.041  0.7840  1.1385  1.2322
16497TIP3    H270983   3.991   2.926   3.023  0.1471  1.1743  2.2079
16498TIP3   OH270984   5.914   6.750   4.449 -0.6082  0.0624 -0.4320
16498TIP3    H170985   5.858   6.824   4.475  0.5809  0.7216  0.3886
16498TIP3    H270986   5.962   6.728   4.529 -0.3773 -1.1004 -0.8731
16499TIP3   OH270987   0.844   6.407   3.549  0.2056  0.4784  0.2018
16499TIP3    H170988   0.887   6.472   3.494 -1.1319  0.7952 -0.5164
16499TIP3    H270989   0.756   6.441   3.563 -1.3164 -2.1182 -2.0049
16500TIP3   OH270990   6.532   6.168  13.490  0.3634 -0.4207 -0.3458
16500TIP3    H170991   6.591   6.240  13.510  0.3455 -0.4317 -0.2517
16500TIP3    H270992   6.447   6.197  13.523  0.5486 -0.8899  0.5848
16501TIP3   OH270993   5.054   5.859   2.473 -0.1188  0.3400 -0.9509
16501TIP3    H170994   4.968   5.833   2.506 -0.1347  2.1161  0.5395
16501TIP3    H270995   5.116   5.800   2.517 -0.4527  0.0108 -0.9186
16502TIP3   OH270996   5.938   0.474   3.705  0.0769  0.2519  0.3959
16502TIP3    H170997   5.974   0.561   3.722 -2.6811  1.2067  1.9260
16502TIP3    H270998   5.901   0.480   3.617  1.5970 -0.0720 -0.3098
16503TIP3   OH270999   5.953   5.384  15.422  0.2720  0.6413  0.2559
16503TIP3    H171000   5.941   5.477  15.438 -0.8707  0.5868 -0.2477
16503TIP3    H271001   5.888   5.361  15.356 -0.9571 -0.9671  1.9226
16504TIP3   OH271002   5.612   0.642  12.044  0.1072  0.0967 -0.1691
16504TIP3    H171003   5.686   0.636  11.984  0.5069 -0.5321  0.3805
16504TIP3    H271004   5.631   0.579  12.113 -1.2558 -0.5558 -0.3540
16505TIP3   OH271005   2.556   2.994   4.329 -0.1029  0.4281  0.1431
16505TIP3    H171006   2.512   2.993   4.414  1.1599  1.4470  0.8408
16505TIP3    H271007   2.618   3.067   4.335 -1.1548  1.6110 -2.2551
16506TIP3   OH271008   1.747   6.416   0.362 -0.5745 -0.3145  0.4619
16506TIP3    H171009   1.807   6.455   0.298  0.1021 -0.3940  1.0450
16506TIP3    H271010   1.755   6.322   0.348  0.2385 -0.3746  1.2425
16507TIP3   OH271011   0.456   3.309  10.353 -0.2016 -0.3027 -0.0548
16507TIP3    H171012   0.509   3.368  10.299 -0.9567  0.7749  0.3297
16507TIP3    H271013   0.460   3.348  10.441  0.0284 -1.3488  0.4120
16508TIP3   OH271014   0.833   4.790  15.634 -0.0988  0.1710 -0.3157
16508TIP3    H171015   0.748   4.749  15.618 -1.8068  1.7299  3.5378
16508TIP3    H271016   0.885   4.721  15.675  0.4065 -0.6368 -2.2096
16509TIP3   OH271017   5.237   1.979  13.663  0.7668  0.1321  0.0685
16509TIP3    H171018   5.288   2.060  13.662  0.0425  0.5972  0.5550
16509TIP3    H271019   5.257   1.937  13.578  1.8063  0.3895  0.1702
16510TIP3   OH271020   4.793   3.926   2.362  0.6561  0.2249  0.0639
16510TIP3    H171021   4.770   3.837   2.339 -0.9408  0.7707 -0.5714
16510TIP3    H271022   4.867   3.917   2.423 -0.4688 -1.5946  1.2536
16511TIP3   OH271023   1.515   6.282  11.384 -0.4421 -0.1803 -0.1266
16511TIP3    H171024   1.462   6.359  11.403  1.2815  0.7749  1.0309
16511TIP3    H271025   1.473   6.211  11.433 -1.6182  0.1545 -0.6106
16512TIP3   OH271026   6.767   3.232   3.947 -0.4146 -0.1352 -0.1413
16512TIP3    H171027   6.761   3.305   3.885 -0.5107  0.0608  0.0952
16512TIP3    H271028   6.680   3.192   3.945 -0.5643  0.1583  0.2075
16513TIP3   OH271029   2.443   4.807  14.521 -0.4656 -0.0129  0.1629
16513TIP3    H171030   2.483   4.798  14.434  0.2989 -1.2205  0.6115
16513TIP3    H271031   2.495   4.749  14.577 -2.1141 -0.7077  1.0381
16514TIP3   OH271032   2.487   5.442  16.597 -0.7522 -0.0798 -0.5667
16514TIP3    H171033   2.569   5.400  16.574 -0.0839  0.1974  1.1666
16514TIP3    H271034   2.429   5.371  16.623  0.1613 -0.0584  1.7216
16515TIP3   OH271035   5.688   0.220  15.564  0.2607  0.0145 -0.2527
16515TIP3    H171036   5.679   0.168  15.644  1.6577  0.6012  0.3080
16515TIP3    H271037   5.637   0.299  15.580  0.4916  0.1050  0.0328
16516TIP3   OH271038   4.467   1.930  11.974  0.3210  0.2345  0.3809
16516TIP3    H171039   4.456   2.024  11.985  0.3961  0.1952  0.8376
16516TIP3    H271040   4.523   1.920  11.898  1.6408  0.6212  1.2711
16517TIP3   OH271041   1.853   2.200  14.810 -0.3631 -0.2182  0.1803
16517TIP3    H171042   1.881   2.192  14.901  1.5950  1.2614 -0.2426
16517TIP3    H271043   1.872   2.115  14.771 -0.7447 -0.6956  1.0249
16518TIP3   OH271044   3.805   4.597   0.441  0.0024  0.2821  0.0316
16518TIP3    H171045   3.754   4.570   0.517  1.0213 -0.9752  0.2879
16518TIP3    H271046   3.768   4.546   0.368 -1.3002  1.8408 -0.4591
16519TIP3   OH271047   2.362   3.678   0.520  0.1189  0.4785 -0.1574
16519TIP3    H171048   2.274   3.641   0.526  0.2959  0.3021  2.3435
16519TIP3    H271049   2.415   3.607   0.484 -0.4305 -0.0328  0.0170
16520TIP3   OH271050   1.924   6.201   1.247 -0.6018 -0.3082 -0.4919
16520TIP3    H171051   1.856   6.198   1.315 -1.3355 -0.4296 -1.2271
16520TIP3    H271052   1.993   6.255   1.286 -1.7080  1.0046 -0.2586
16521TIP3   OH271053   0.939   4.630   2.940  0.6532 -0.0880  0.5544
16521TIP3    H171054   0.872   4.564   2.958  1.2079 -0.1863  2.5155
16521TIP3    H271055   1.020   4.593   2.976  1.5234  0.5528 -0.6666
16522TIP3   OH271056   2.829   1.376  15.883 -0.1289 -0.2341  0.0450
16522TIP3    H171057   2.808   1.469  15.890 -0.0530 -0.1149 -1.0872
16522TIP3    H271058   2.775   1.333  15.949  0.2798  0.6715  0.9849
16523TIP3   OH271059   1.615   3.903   1.349  0.1272  0.3557  0.2948
16523TIP3    H171060   1.662   3.906   1.432  0.3606  0.7897  0.1492
16523TIP3    H271061   1.658   3.969   1.294  0.8845 -0.8988 -0.6554
16524TIP3   OH271062   0.551   3.398  10.586  0.2805  0.6858 -0.4433
16524TIP3    H171063   0.525   3.371  10.674  1.2666  0.9233 -0.0693
16524TIP3    H271064   0.573   3.491  10.594 -0.4162  0.9211 -1.1255
16525TIP3   OH271065   0.748   2.810   0.672  0.2795 -0.0113  0.0180
16525TIP3    H171066   0.823   2.862   0.646 -1.5826  3.0140  0.1500
16525TIP3    H271067   0.690   2.810   0.596  0.6340 -3.0491 -0.4065
16526TIP3   OH271068   1.427   3.960   4.041 -0.0450  0.3516 -0.4062
16526TIP3    H171069   1.406   3.978   3.950 -3.2093  0.1091  0.1579
16526TIP3    H271070   1.403   3.868   4.054 -1.2991  0.8302  1.0197
16527TIP3   OH271071   3.556   0.134  12.279 -0.1254  0.4358  0.8622
16527TIP3    H171072   3.594   0.153  12.365  1.3051  2.5247 -0.1586
16527TIP3    H271073   3.485   0.198  12.269 -1.9012 -1.3425  1.3957
16528TIP3   OH271074   2.093   5.506  11.402 -0.0567  0.0020 -0.3786
16528TIP3    H171075   2.165   5.532  11.345  0.2365  0.1539  0.0581
16528TIP3    H271076   2.014   5.526  11.351  0.2058 -0.8577 -1.1666
16529TIP3   OH271077   2.850   4.766  12.786  0.3739 -0.3310 -0.3359
16529TIP3    H171078   2.891   4.830  12.844 -0.3096  0.5670 -0.8264
16529TIP3    H271079   2.771   4.739  12.832 -0.4210  0.7390 -1.0318
16530TIP3   OH271080   4.117   0.200   2.934 -0.0371 -0.3014 -0.2759
16530TIP3    H171081   4.040   0.206   2.991 -0.0679 -1.9284 -0.1239
16530TIP3    H271082   4.119   0.284   2.888 -1.5207  0.0135  0.1966
16531TIP3   OH271083   1.136   3.910   0.588  0.5757  0.4956 -0.3709
16531TIP3    H171084   1.080   3.981   0.557 -0.2037  0.1225  0.1531
16531TIP3    H271085   1.219   3.952   0.608  0.1887  1.2258 -0.2671
16532TIP3   OH271086   1.982   3.725  14.525  0.1843 -0.0347  0.2275
16532TIP3    H171087   2.075   3.743  14.518  0.0923  0.1026 -0.8158
16532TIP3    H271088   1.962   3.738  14.617  1.1874 -0.0309  0.4538
16533TIP3   OH271089   6.673   6.740  15.061 -0.4065  0.3076 -0.0236
16533TIP3    H171090   6.675   6.835  15.070  0.4162  0.2704  0.2023
16533TIP3    H271091   6.585   6.716  15.089 -0.6869  1.0140 -0.2573
16534TIP3   OH271092   1.753   4.703  10.702 -0.0508  0.4312  0.1701
16534TIP3    H171093   1.672   4.703  10.651 -0.0371 -0.2997  0.1439
16534TIP3    H271094   1.756   4.791  10.741 -0.5522  0.6672 -0.3008
16535TIP3   OH271095   0.607   5.264  16.322  0.6964 -0.2128  0.6697
16535TIP3    H171096   0.682   5.322  16.309 -0.5172  1.2048 -0.3505
16535TIP3    H271097   0.550   5.311  16.383 -0.2926 -0.3077 -0.1480
16536TIP3   OH271098   1.457   0.408   1.367  0.1615  0.3715  0.6493
16536TIP3    H171099   1.536   0.459   1.351  0.2369  0.0425 -0.0373
16536TIP3    H271100   1.413   0.403   1.282  0.7730 -1.7405  0.3966
16537TIP3   OH271101   5.196   1.914  17.034  0.6734 -0.4689  0.6372
16537TIP3    H171102   5.225   1.896  16.945  1.1722 -1.3197  0.9646
16537TIP3    H271103   5.270   1.891  17.089 -0.2150 -1.5918  1.4011
16538TIP3   OH271104   5.617   0.373   2.712  0.2065 -0.9107  0.4692
16538TIP3    H171105   5.530   0.354   2.746 -0.5427  0.6470 -0.4858
16538TIP3    H271106   5.633   0.465   2.735  0.9956 -0.7616 -0.5949
16539TIP3   OH271107   2.602   0.024   1.760 -0.3969  0.0961 -0.2331
16539TIP3    H171108   2.601   0.108   1.713  2.0188  1.4061  1.8382
16539TIP3    H271109   2.677   0.030   1.819 -0.2867 -3.4545  0.2223
16540TIP3   OH271110   4.044   6.416   1.879 -0.1935 -0.3434  0.3322
16540TIP3    H171111   4.081   6.427   1.792  1.3194 -1.4607  0.8078
16540TIP3    H271112   4.119   6.413   1.938 -1.1539 -0.2475  1.6177
16541TIP3   OH271113   0.638   6.063  16.324 -1.2437  0.3586 -0.1883
16541TIP3    H171114   0.584   6.096  16.252 -1.1965  1.2067  0.1546
16541TIP3    H271115   0.727   6.065  16.291 -1.2860  0.1251 -0.3250
16542TIP3   OH271116   5.117   3.404  13.759 -0.8998  0.0220  0.7293
16542TIP3    H171117   5.155   3.488  13.786  0.6429 -0.2542 -0.4959
16542TIP3    H271118   5.029   3.427  13.729 -0.5739  1.1750  0.5966
16543TIP3   OH271119   6.208   6.762   1.483  0.3941  0.0888  0.0294
16543TIP3    H171120   6.239   6.765   1.574  0.9130 -0.2719 -0.1274
16543TIP3    H271121   6.130   6.707   1.486  1.1153 -0.9655  0.0769
16544TIP3   OH271122   3.265   0.498  15.659 -0.4334 -0.3820 -0.5138
16544TIP3    H171123   3.258   0.435  15.730 -0.4342 -2.2297 -2.0512
16544TIP3    H271124   3.336   0.556  15.684 -0.2775 -1.1400  0.8541
16545TIP3   OH271125   2.153   5.914  15.209  0.5984 -0.1007  0.4187
16545TIP3    H171126   2.220   5.968  15.168 -1.2271 -1.9049 -6.0586
16545TIP3    H271127   2.072   5.965  15.202 -0.2583 -1.5794 -0.9815
16546TIP3   OH271128   4.481   5.164   1.196 -0.5280 -0.0636 -0.3885
16546TIP3    H171129   4.428   5.220   1.253 -0.6918 -0.5331 -0.0675
16546TIP3    H271130   4.421   5.094   1.169 -0.5444  0.3402 -1.4155
16547TIP3   OH271131   1.371   3.854   0.366 -0.2397 -0.8714  0.6092
16547TIP3    H171132   1.287   3.810   0.351 -2.1256  1.4342  3.3795
16547TIP3    H271133   1.358   3.943   0.333  1.7352 -0.9026 -0.3696
16548TIP3   OH271134   1.078   4.176   5.975 -0.0211 -0.3776  0.0731
16548TIP3    H171135   1.092   4.254   6.028  0.2212 -1.6867  2.0598
16548TIP3    H271136   1.165   4.136   5.968  0.2527  0.5105 -2.6680
16549TIP3   OH271137   0.485   0.035   6.716  0.0495 -0.1381 -0.5866
16549TIP3    H171138   0.556   0.080   6.670  1.7057 -0.4652  1.5144
16549TIP3    H271139   0.431   0.105   6.753 -1.3968  0.1362 -2.9922
16550TIP3   OH271140   0.546   5.814  14.708  0.4981 -0.1227  0.2382
16550TIP3    H171141   0.541   5.909  14.720  3.0336 -0.0740  1.5636
16550TIP3    H271142   0.567   5.804  14.615 -0.2841  0.5504 -0.0329
16551TIP3   OH271143   0.628   2.855  14.219  0.0885 -0.1644 -0.4975
16551TIP3    H171144   0.683   2.913  14.270  1.6857 -2.3217  0.3699
16551TIP3    H271145   0.686   2.784  14.191 -1.7735 -1.4291 -1.4028
16552TIP3   OH271146   4.498   4.967  12.362  1.0228  0.0581 -0.1281
16552TIP3    H171147   4.410   5.002  12.369  0.2185 -1.9607  0.8813
16552TIP3    H271148   4.533   5.004  12.282 -0.9949  0.4046 -0.9087
16553TIP3   OH271149   6.587   2.253  14.950 -0.4175 -0.5208 -0.7046
16553TIP3    H171150   6.611   2.225  14.862 -0.6123  0.3020 -1.0341
16553TIP3    H271151   6.526   2.187  14.981  0.9779 -1.7669 -0.4885
16554TIP3   OH271152   3.177   4.136   0.647  0.4075  0.8702  0.6927
16554TIP3    H171153   3.173   4.053   0.695 -0.3285  0.4178 -0.1182
16554TIP3    H271154   3.210   4.112   0.561  2.3266  1.7660  1.1263
16555TIP3   OH271155   1.692   6.547   5.288 -0.6512  0.0888 -0.1614
16555TIP3    H171156   1.601   6.531   5.312 -0.7678  0.0197 -0.6449
16555TIP3    H271157   1.689   6.566   5.195  0.0389 -1.6564 -0.5783
16556TIP3   OH271158   5.653   0.972   5.167 -0.3708  0.4150 -0.3138
16556TIP3    H171159   5.670   0.964   5.261  0.4127  0.7090 -0.4254
16556TIP3    H271160   5.729   1.018   5.132  0.0472 -1.0065 -1.3488
16557TIP3   OH271161   0.320   5.097   5.147 -0.1356 -0.4085 -0.1486
16557TIP3    H171162   0.259   5.167   5.170 -0.0099 -0.3986  0.1481
16557TIP3    H271163   0.264   5.021   5.129 -0.1582 -0.8964  1.8188
16558TIP3   OH271164   4.827   0.100   0.148  0.3817 -0.1566 -0.5589
16558TIP3    H171165   4.905   0.147   0.119  0.3569 -0.3723 -0.9759
16558TIP3    H271166   4.815   0.128   0.239  1.7307 -1.1555 -0.0382
16559TIP3   OH271167   0.178   4.033  13.915 -0.5042  0.1121 -0.7390
16559TIP3    H171168   0.099   4.031  13.861 -2.4663  1.7040  1.8034
16559TIP3    H271169   0.175   3.951  13.964 -0.4922  0.1051 -0.7499
16560TIP3   OH271170   3.682   2.003  14.890  0.1313  1.0878  0.4456
16560TIP3    H171171   3.614   2.021  14.955  0.0500  0.8017  0.4406
16560TIP3    H271172   3.762   2.037  14.929  0.0845  0.9041  0.7017
16561TIP3   OH271173   4.163   6.110   1.588  0.0374  0.1281 -0.1228
16561TIP3    H171174   4.123   6.196   1.577  1.0618  0.8138  1.1565
16561TIP3    H271175   4.227   6.103   1.517  2.2791  1.8861  1.5631
16562TIP3   OH271176   4.673   6.017   5.101 -1.0596 -0.5156  0.0634
16562TIP3    H171177   4.723   5.936   5.113 -0.3057  0.2515  3.0273
16562TIP3    H271178   4.618   6.023   5.180 -1.0486  1.8715 -0.0410
16563TIP3   OH271179   2.643   0.834   1.689 -0.2639  0.2586  0.5697
16563TIP3    H171180   2.569   0.781   1.659  0.0109  0.0158  0.3160
16563TIP3    H271181   2.659   0.804   1.779 -0.1616 -0.0335  0.4548
16564TIP3   OH271182   0.456   4.080  15.453  0.1732  0.1553  0.0431
16564TIP3    H171183   0.363   4.100  15.453  0.5568  2.2343  0.9290
16564TIP3    H271184   0.473   4.043  15.540  1.0304  5.1611  2.3632
16565TIP3   OH271185   1.998   4.504   2.635  0.0496  0.1927 -0.3772
16565TIP3    H171186   2.020   4.432   2.694  0.1714 -0.8154 -1.6112
16565TIP3    H271187   2.040   4.581   2.675  0.7517 -0.5920  0.4515
16566TIP3   OH271188   6.683   2.041  12.506 -0.2031  0.6515  0.4052
16566TIP3    H171189   6.621   1.970  12.490 -0.5372  1.1271 -0.5135
16566TIP3    H271190   6.738   2.010  12.578 -0.7814 -0.2463  0.4723
16567TIP3   OH271191   4.301   3.454   2.330 -0.5794 -0.2532 -0.2852
16567TIP3    H171192   4.262   3.405   2.403  0.2300 -0.9511 -0.3018
16567TIP3    H271193   4.227   3.472   2.271 -0.8299 -1.9874 -0.5641
16568TIP3   OH271194   3.180   1.244   2.930 -0.2947  0.2938 -0.5215
16568TIP3    H171195   3.272   1.263   2.945 -0.0460 -1.0540 -0.2304
16568TIP3    H271196   3.175   1.217   2.838 -0.4828  0.8408 -0.6734
16569TIP3   OH271197   6.414   5.597  12.017 -0.5912 -0.1938 -0.1099
16569TIP3    H171198   6.473   5.553  12.079 -1.7702 -0.6000  0.7605
16569TIP3    H271199   6.428   5.690  12.032  1.6057 -0.1958 -1.6495
16570TIP3   OH271200   3.834   6.561   4.656  0.1050  0.1105  0.3446
16570TIP3    H171201   3.807   6.646   4.691  1.6152  0.4437  0.7709
16570TIP3    H271202   3.828   6.501   4.731  0.6690  0.2216  0.4839
16571TIP3   OH271203   3.866   0.214  10.897 -0.5805  0.0359 -0.0010
16571TIP3    H171204   3.774   0.236  10.913 -0.7900 -2.3212  2.7158
16571TIP3    H271205   3.915   0.273  10.954 -0.1521  2.2950 -2.4834
16572TIP3   OH271206   5.633   2.389  14.852 -0.3064 -0.0625 -0.6380
16572TIP3    H171207   5.687   2.434  14.788  0.2919 -0.2406 -0.2675
16572TIP3    H271208   5.665   2.421  14.937  1.1878 -2.3061 -0.2917
16573TIP3   OH271209   5.871   3.626  11.707 -0.1833  0.0060 -0.0518
16573TIP3    H171210   5.923   3.702  11.734 -0.9317  1.8172 -3.2878
16573TIP3    H271211   5.936   3.558  11.688  0.5566  0.1130  1.8318
16574TIP3   OH271212   5.746   0.709   0.636  0.9348  0.0023 -0.5367
16574TIP3    H171213   5.797   0.712   0.555 -1.6802 -1.3939 -2.3864
16574TIP3    H271214   5.679   0.776   0.624  0.9483  0.2810  0.8404
16575TIP3   OH271215   1.494   6.074   5.011 -0.5785  0.0699  0.5228
16575TIP3    H171216   1.512   6.042   4.922  0.0556 -2.0230  1.3499
16575TIP3    H271217   1.428   6.142   4.998  0.3361  0.6527 -1.6475
16576TIP3   OH271218   3.635   5.545  13.345 -0.5157 -0.1287 -0.3243
16576TIP3    H171219   3.625   5.482  13.417  3.1341 -1.1608 -0.5548
16576TIP3    H271220   3.547   5.551  13.307 -1.5073 -3.3554  1.0901
16577TIP3   OH271221   6.350   4.680  15.403 -0.5085 -0.0079 -0.1928
16577TIP3    H171222   6.396   4.605  15.441 -0.5537 -0.2903 -0.6792
16577TIP3    H271223   6.402   4.756  15.427 -0.1385 -0.2601 -0.1933
16578TIP3   OH271224   6.279   4.907   4.723 -0.5871  0.3373  0.1702
16578TIP3    H171225   6.240   4.874   4.804 -0.6879  2.5175  1.0788
16578TIP3    H271226   6.224   4.872   4.653 -1.3056 -0.4849  1.1224
16579TIP3   OH271227   2.717   0.055   3.217  0.7001 -0.4916  0.2434
16579TIP3    H171228   2.642   0.114   3.220 -1.1648 -2.6628 -0.6648
16579TIP3    H271229   2.716   0.019   3.129  0.3354 -3.5444  1.3799
16580TIP3   OH271230   4.847   0.841   6.327 -0.4243 -0.1885  0.0923
16580TIP3    H171231   4.834   0.821   6.420 -1.3444 -1.2072 -0.2299
16580TIP3    H271232   4.896   0.923   6.327  2.9681 -2.0113  1.5301
16581TIP3   OH271233   0.091   2.604  15.827 -0.6789  0.5964  0.0553
16581TIP3    H171234   0.049   2.535  15.879 -1.6629  1.5745  0.6066
16581TIP3    H271235   0.184   2.582  15.829 -0.7680  0.2310  1.6973
16582TIP3   OH271236   3.152   4.101  11.915  0.3424  0.3196  0.1664
16582TIP3    H171237   3.226   4.039  11.909 -0.1186 -0.0981 -1.7408
16582TIP3    H271238   3.087   4.055  11.969  0.0317 -0.8658 -1.1687
16583TIP3   OH271239   1.768   0.542  16.790  0.0120 -0.0252  0.3241
16583TIP3    H171240   1.772   0.488  16.869  1.8070  0.2379  0.4525
16583TIP3    H271241   1.808   0.487  16.722  1.1683  0.8177  0.2879
16584TIP3   OH271242   0.572   3.385  12.375 -0.0476 -0.2717 -0.4931
16584TIP3    H171243   0.532   3.440  12.308  0.6901  0.3572 -0.4361
16584TIP3    H271244   0.640   3.335  12.329  1.2148  0.9733 -0.0488
16585TIP3   OH271245   6.451   0.458  11.745  0.3910 -0.4498  0.2909
16585TIP3    H171246   6.455   0.535  11.689  0.4474 -1.5755 -1.3106
16585TIP3    H271247   6.511   0.395  11.705 -0.9040 -1.9263  0.5719
16586TIP3   OH271248   2.107   4.981   2.472  0.0780  0.0621  0.0764
16586TIP3    H171249   2.034   4.965   2.413  0.4504 -0.6708 -0.2007
16586TIP3    H271250   2.155   4.898   2.474  0.3808  0.2488  0.9763
16587TIP3   OH271251   1.661   2.693   5.306 -0.2080 -0.2964 -0.2462
16587TIP3    H171252   1.702   2.634   5.243 -1.5997 -0.7199 -0.7799
16587TIP3    H271253   1.596   2.741   5.256  0.1954  0.9706  0.4111
16588TIP3   OH271254   1.345   4.780   0.342 -0.1143 -0.1634 -0.4231
16588TIP3    H171255   1.385   4.859   0.376 -1.5137  1.0862 -1.5497
16588TIP3    H271256   1.353   4.788   0.247 -1.6172 -0.6049 -0.6145
16589TIP3   OH271257   2.877   0.188   6.469 -0.1249  0.0458  0.1994
16589TIP3    H171258   2.794   0.144   6.486 -0.9225  0.9319 -1.1806
16589TIP3    H271259   2.940   0.117   6.455 -0.7231 -0.6304  0.8839
16590TIP3   OH271260   2.243   6.490  15.173 -0.5562 -0.3773 -0.6620
16590TIP3    H171261   2.316   6.532  15.127  0.1266 -1.8142 -0.9401
16590TIP3    H271262   2.166   6.511  15.119 -0.1234 -0.1190 -1.1901
16591TIP3   OH271263   2.204   1.150  16.417 -0.0547 -0.2062 -0.1457
16591TIP3    H171264   2.134   1.137  16.482 -1.2233 -0.6999 -1.4493
16591TIP3    H271265   2.267   1.207  16.461 -1.0827 -0.0649  1.2219
16592TIP3   OH271266   5.666   3.615  11.046  0.7351 -0.4218  0.5471
16592TIP3    H171267   5.625   3.618  10.960 -2.6384  1.6487  2.0295
16592TIP3    H271268   5.703   3.527  11.052 -2.0729 -1.9267 -1.7198
16593TIP3   OH271269   1.819   2.114   1.907 -0.5245 -0.9981  0.0599
16593TIP3    H171270   1.826   2.020   1.897  1.4074 -1.0320  1.3959
16593TIP3    H271271   1.883   2.150   1.847 -0.0745 -0.6181  0.7515
16594TIP3   OH271272   5.558   6.336  10.857  0.3933 -0.4818  0.1153
16594TIP3    H171273   5.527   6.411  10.806 -0.3171 -1.0901 -0.3733
16594TIP3    H271274   5.627   6.297  10.805 -0.1773 -0.9681 -0.2974
16595TIP3   OH271275   6.170   4.288  15.644 -0.0914 -0.0342  0.3271
16595TIP3    H171276   6.125   4.284  15.728  0.9022 -2.0156  0.8253
16595TIP3    H271277   6.125   4.357  15.596 -2.4506 -0.6723  1.4641
16596TIP3   OH271278   1.892   6.614  13.802 -0.1266 -0.2618  0.0904
16596TIP3    H171279   1.872   6.529  13.763 -0.4275  0.5175 -1.5146
16596TIP3    H271280   1.967   6.646  13.753  2.1737 -1.0119  2.8783
16597TIP3   OH271281   6.260   0.181   1.872 -1.5373  0.7220  0.0344
16597TIP3    H171282   6.187   0.233   1.839 -1.3304  0.1986 -1.3149
16597TIP3    H271283   6.331   0.197   1.809 -1.5431 -1.3583 -0.5955
16598TIP3   OH271284   0.382   5.083  16.214  0.9095 -0.2669 -0.2551
16598TIP3    H171285   0.311   5.142  16.189 -1.3915 -2.0241  1.5531
16598TIP3    H271286   0.423   5.126  16.289  0.5206 -0.0501 -0.1601
16599TIP3   OH271287   3.809   3.836   6.261 -0.3924 -0.7906  0.5617
16599TIP3    H171288   3.801   3.923   6.302 -0.3682 -0.0861 -0.8796
16599TIP3    H271289   3.883   3.796   6.307 -0.0761  0.1500  0.9140
16600TIP3   OH271290   1.468   1.182  14.704  0.4980 -0.3251 -0.1828
16600TIP3    H171291   1.519   1.262  14.688 -0.1108 -0.0470 -0.7724
16600TIP3    H271292   1.384   1.214  14.737  1.2032 -0.8279  2.3407
16601TIP3   OH271293   0.397   3.572   5.295 -0.5500  0.4669  0.0147
16601TIP3    H171294   0.317   3.604   5.337 -0.5981 -1.1789  1.2884
16601TIP3    H271295   0.380   3.479   5.280  1.3660 -0.0949  1.0052
16602TIP3   OH271296   4.611   4.212   0.220  0.4169  0.2905 -0.0596
16602TIP3    H171297   4.561   4.268   0.161 -2.2644 -0.0932  1.6786
16602TIP3    H271298   4.623   4.130   0.172  0.3702  0.7710 -0.9128
16603TIP3   OH271299   0.343   4.205   2.131  0.3280 -0.2558 -0.0295
16603TIP3    H171300   0.345   4.112   2.153  0.0699 -0.1467  0.4784
16603TIP3    H271301   0.420   4.241   2.175  0.5943 -0.2801 -0.4730
16604TIP3   OH271302   3.886   5.069   0.922 -0.5263  0.6279 -0.2992
16604TIP3    H171303   3.917   5.003   0.860 -2.1532  1.6846 -2.3216
16604TIP3    H271304   3.832   5.020   0.984  1.5800 -0.5357  0.7596
16605TIP3   OH271305   2.732   3.971  13.512 -0.3500 -0.2036 -0.0811
16605TIP3    H171306   2.771   4.055  13.491 -2.4734  0.9252  0.2189
16605TIP3    H271307   2.676   3.951  13.436  0.3397 -1.4944 -0.2721
16606TIP3   OH271308   5.287   1.331  16.795 -0.4408  0.4917 -0.2550
16606TIP3    H171309   5.304   1.243  16.762 -0.7800  0.7594 -1.1748
16606TIP3    H271310   5.217   1.365  16.738  0.4900  1.7761 -0.6740
16607TIP3   OH271311   0.290   6.491  15.253 -0.4107  0.2907 -0.4732
16607TIP3    H171312   0.293   6.515  15.160  0.9425  0.0444 -0.5147
16607TIP3    H271313   0.372   6.443  15.268  0.7574  2.6974  1.5107
16608TIP3   OH271314   2.038   1.117  13.362 -0.7448  0.2045  0.4840
16608TIP3    H171315   2.028   1.049  13.428  1.0542 -0.3764  0.2106
16608TIP3    H271316   1.952   1.159  13.358 -1.4504 -1.0210  1.7679
16609TIP3   OH271317   1.990   6.435  11.965 -0.7441 -0.3292 -0.1920
16609TIP3    H171318   1.895   6.424  11.976 -0.9387 -1.3903 -2.3534
16609TIP3    H271319   2.009   6.520  12.004 -2.4439 -0.4432  0.9908
16610TIP3   OH271320   2.925   1.245  13.942 -0.3924 -0.1136 -0.0996
16610TIP3    H171321   3.009   1.264  13.899  0.3384 -1.3639  0.7128
16610TIP3    H271322   2.941   1.261  14.035 -1.1609 -0.0080  0.0200
16611TIP3   OH271323   4.312   5.530  12.525 -0.3218 -0.2087 -0.5786
16611TIP3    H171324   4.289   5.557  12.614 -1.5050  0.7014 -1.1303
16611TIP3    H271325   4.378   5.461  12.537  1.2443  1.4585  0.9476
16612TIP3   OH271326   5.350   5.111   1.728  0.3589 -0.1086 -0.1889
16612TIP3    H171327   5.423   5.171   1.728  0.5156 -0.2686 -1.7617
16612TIP3    H271328   5.277   5.161   1.766  1.2134  0.0747  1.3005
16613TIP3   OH271329   5.615   0.680  13.352  0.2348  0.2335  0.3336
16613TIP3    H171330   5.573   0.766  13.354  0.2743  0.2739 -0.3160
16613TIP3    H271331   5.709   0.699  13.349  0.3324  0.1429  1.8614
16614TIP3   OH271332   2.817   3.529   4.507  0.4946 -0.1816 -0.1185
16614TIP3    H171333   2.747   3.579   4.549 -0.4433 -3.1900  2.2402
16614TIP3    H271334   2.893   3.542   4.565  0.9092  0.2517 -0.7420
16615TIP3   OH271335   1.212   5.330   5.169 -0.3029 -0.2111  0.2099
16615TIP3    H171336   1.180   5.244   5.144 -0.3869 -0.4990  1.2460
16615TIP3    H271337   1.307   5.319   5.179 -0.1077  0.1781 -1.0199
16616TIP3   OH271338   2.467   2.385   5.138 -0.5426  0.0730  0.0528
16616TIP3    H171339   2.485   2.440   5.214 -0.5042  1.8680 -1.2059
16616TIP3    H271340   2.549   2.384   5.089 -1.5376  1.9777 -1.7988
16617TIP3   OH271341   1.957   6.290   5.632 -0.1494 -0.1117 -0.3673
16617TIP3    H171342   1.891   6.229   5.665  1.9392 -3.0596 -1.2750
16617TIP3    H271343   1.930   6.308   5.542 -1.2134  1.0432  0.1556
16618TIP3   OH271344   5.237   1.696   4.462  0.5609 -0.3415 -0.1222
16618TIP3    H171345   5.301   1.653   4.520  0.7074  0.6330  0.4552
16618TIP3    H271346   5.175   1.737   4.521  0.5738  0.4688 -0.6574
16619TIP3   OH271347   4.310   4.145   5.735 -0.3257 -0.5394  0.5555
16619TIP3    H171348   4.229   4.159   5.686 -0.4326 -0.1461  0.8359
16619TIP3    H271349   4.379   4.151   5.668 -0.4313  0.5436  0.5186
16620TIP3   OH271350   2.133   2.194   4.485  0.0575  0.4482 -0.3466
16620TIP3    H171351   2.067   2.263   4.495 -2.1896 -1.3474 -1.8310
16620TIP3    H271352   2.084   2.118   4.455  2.4035 -1.9034  1.3471
16621TIP3   OH271353   0.615   6.741   2.714  0.4579 -0.4292  0.0779
16621TIP3    H171354   0.667   6.757   2.792 -0.2728 -1.5189  0.8081
16621TIP3    H271355   0.584   6.651   2.723  0.6134 -0.6821 -1.6209
16622TIP3   OH271356   3.889   3.709   2.817 -0.3911 -0.1579 -0.5107
16622TIP3    H171357   3.947   3.768   2.769  0.1670 -1.6879 -1.8058
16622TIP3    H271358   3.862   3.759   2.894 -0.5179  2.0424 -1.8902
16623TIP3   OH271359   4.968   6.059  17.067  0.5810 -0.3988 -0.0942
16623TIP3    H171360   4.888   6.037  17.019 -0.2370 -0.1137  1.0820
16623TIP3    H271361   4.980   5.985  17.127 -0.2258  0.6870  1.4578
16624TIP3   OH271362   3.690   5.149  15.419  0.0894 -0.3527 -0.2686
16624TIP3    H171363   3.732   5.115  15.498  1.4163 -1.5647 -1.4383
16624TIP3    H271364   3.762   5.183  15.366 -1.0268  3.1289  0.1910
16625TIP3   OH271365   5.237   4.448   1.192 -0.3265 -0.3808 -0.0637
16625TIP3    H171366   5.170   4.485   1.250  0.7605  0.0973  0.9077
16625TIP3    H271367   5.286   4.524   1.161  1.0601 -0.8762  0.8579
16626TIP3   OH271368   4.700   5.425   4.059  0.3970  0.6819 -0.1089
16626TIP3    H171369   4.759   5.497   4.036 -0.1467  0.3898 -2.6588
16626TIP3    H271370   4.612   5.460   4.043 -0.1554  0.6724  2.4063
16627TIP3   OH271371   5.438   5.093   3.199  0.4926 -0.1863 -0.3211
16627TIP3    H171372   5.504   5.082   3.131  0.3135 -1.5761 -0.2937
16627TIP3    H271373   5.378   5.020   3.187 -0.4870  0.4868  0.2921
16628TIP3   OH271374   1.898   5.604  14.210  0.1787 -0.1709 -0.0367
16628TIP3    H171375   1.806   5.598  14.187  0.0873 -0.1667  0.3262
16628TIP3    H271376   1.910   5.696  14.235  0.4449  0.0033 -0.7737
16629TIP3   OH271377   0.191   0.403  13.810  0.0059  0.4688  0.2273
16629TIP3    H171378   0.112   0.381  13.760  0.4373 -0.6902  0.0295
16629TIP3    H271379   0.210   0.494  13.786 -2.2555  1.3823  1.6328
16630TIP3   OH271380   0.806   2.008   5.291  0.7074  0.4233 -0.7366
16630TIP3    H171381   0.887   1.987   5.245  1.8575  2.0785  0.4253
16630TIP3    H271382   0.832   2.022   5.382 -0.9483  0.6116 -0.2507
16631TIP3   OH271383   1.518   2.055   5.661  0.0158 -0.5049 -0.5717
16631TIP3    H171384   1.495   2.146   5.678 -1.0013 -0.8031 -0.2594
16631TIP3    H271385   1.608   2.058   5.628 -0.5492  0.7475 -2.0866
16632TIP3   OH271386   1.920   2.762  11.423  0.6612 -0.3256  0.6408
16632TIP3    H171387   2.008   2.762  11.385  0.2171  0.2281 -0.4277
16632TIP3    H271388   1.864   2.727  11.354 -0.1788  0.8014  0.7143
16633TIP3   OH271389   4.850   0.790   3.346  0.2478 -0.1501 -0.3343
16633TIP3    H171390   4.791   0.864   3.339 -0.3752 -0.4062  1.6570
16633TIP3    H271391   4.918   0.820   3.406  0.3360 -0.9827 -0.0136
16634TIP3   OH271392   1.473   5.458  14.023 -0.0924  0.2134 -0.2848
16634TIP3    H171393   1.500   5.366  14.023  1.5800  0.6771 -0.2014
16634TIP3    H271394   1.471   5.482  13.931  1.1543  0.5384 -0.2434
16635TIP3   OH271395   6.698   2.872   0.434  1.0410  0.5063  0.3881
16635TIP3    H171396   6.680   2.964   0.415 -1.3120 -0.2238 -1.5194
16635TIP3    H271397   6.617   2.839   0.473  1.7411 -0.8046  0.7954
16636TIP3   OH271398   3.652   0.132   4.152 -0.0041  0.1226 -0.1331
16636TIP3    H171399   3.629   0.128   4.245 -1.3997 -0.4319 -0.4663
16636TIP3    H271400   3.739   0.171   4.150 -0.3703  1.1124  1.3441
16637TIP3   OH271401   3.043   0.612   0.024  0.6394 -0.1372 -0.1744
16637TIP3    H171402   3.080   0.629   0.111  0.5762  2.4817 -0.5825
16637TIP3    H271403   2.962   0.662   0.022  1.2540  0.8833 -2.1444
16638TIP3   OH271404   2.674   6.495  15.989 -0.3058  0.6601 -0.5910
16638TIP3    H171405   2.615   6.423  15.964 -0.3188  0.3649  0.2415
16638TIP3    H271406   2.728   6.510  15.911  0.2616 -0.8227 -0.5214
16639TIP3   OH271407   0.282   6.452  14.067 -0.4081  0.2954  0.4292
16639TIP3    H171408   0.278   6.368  14.021 -0.7328 -0.4018  1.6896
16639TIP3    H271409   0.198   6.459  14.112 -0.4481  1.3842  0.2207
16640TIP3   OH271410   6.058   3.002   6.632  0.0871 -0.4565  0.4066
16640TIP3    H171411   5.965   3.009   6.613 -0.0395 -1.4097  0.6144
16640TIP3    H271412   6.062   2.987   6.727  0.4352 -0.6060  0.3694
16641TIP3   OH271413   0.590   6.531   3.566 -1.3612  0.0086 -0.0942
16641TIP3    H171414   0.505   6.557   3.599 -0.2398  2.1419  1.3313
16641TIP3    H271415   0.624   6.609   3.521 -0.0570 -0.7077 -0.4182
16642TIP3   OH271416   4.545   2.576  14.781 -0.1707  0.3944  0.6113
16642TIP3    H171417   4.609   2.625  14.833  0.8959  0.4817 -0.7428
16642TIP3    H271418   4.523   2.500  14.836  0.8359  0.5393  1.2490
16643TIP3   OH271419   4.937   2.873   2.209  0.4601 -0.7755  0.7446
16643TIP3    H171420   4.965   2.895   2.120 -1.1570 -0.4875  0.2538
16643TIP3    H271421   4.935   2.778   2.211 -1.5254 -0.8194 -0.2908
16644TIP3   OH271422   1.183   4.123  13.516  0.4505 -0.6829 -0.5927
16644TIP3    H171423   1.239   4.046  13.503  2.5490  0.8823 -1.4064
16644TIP3    H271424   1.172   4.159  13.428  0.5609  0.6301 -0.0953
16645TIP3   OH271425   1.718   2.622   0.335 -0.1931 -0.1911 -0.6873
16645TIP3    H171426   1.714   2.598   0.243 -4.0285  0.2061 -0.7806
16645TIP3    H271427   1.764   2.706   0.336 -1.0144  0.3253 -2.4189
16646TIP3   OH271428   6.184   1.789  12.041 -0.6120 -0.0522  0.0423
16646TIP3    H171429   6.244   1.747  12.103 -1.6827  0.5068  1.5320
16646TIP3    H271430   6.193   1.883  12.059 -2.2514  0.0211  0.6538
16647TIP3   OH271431   3.290   4.057   0.397 -0.2931 -1.4933  0.2039
16647TIP3    H171432   3.341   4.096   0.325 -1.3506  0.7695  0.5944
16647TIP3    H271433   3.351   4.000   0.441  2.1170  1.3438  0.8566
16648TIP3   OH271434   3.050   2.833   1.510 -0.1823 -0.4606  0.1987
16648TIP3    H171435   3.064   2.855   1.602  1.3591 -1.6251  0.2750
16648TIP3    H271436   3.076   2.912   1.463 -0.6457  0.0191  0.7250
16649TIP3   OH271437   4.079   3.821  14.291 -0.2182 -0.0582  0.1964
16649TIP3    H171438   4.148   3.773  14.245  1.8066  1.8123  1.0980
16649TIP3    H271439   4.025   3.858  14.221  0.6656 -0.2142 -0.5947
16650TIP3   OH271440   5.269   3.410  14.938 -0.6116 -0.0111  0.3371
16650TIP3    H171441   5.240   3.411  15.029 -0.6456  0.3673  0.3266
16650TIP3    H271442   5.216   3.343  14.895  1.4203 -2.3494  1.2393
16651TIP3   OH271443   3.234   3.027   1.986 -0.0118  0.3493  0.3326
16651TIP3    H171444   3.321   3.055   2.017 -0.2581  0.5457  0.8556
16651TIP3    H271445   3.187   3.109   1.971 -0.2379  0.2368  0.4344
16652TIP3   OH271446   0.837   2.379   1.167 -0.2569 -0.3096  0.2996
16652TIP3    H171447   0.839   2.342   1.079 -1.6258  0.3575 -0.0343
16652TIP3    H271448   0.781   2.320   1.217 -2.5221  1.2539 -0.2568
16653TIP3   OH271449   4.820   6.510  11.837  0.4260 -0.1027  0.1460
16653TIP3    H171450   4.754   6.454  11.879  1.5972 -1.5837  0.0906
16653TIP3    H271451   4.860   6.558  11.909  1.4360 -1.5713  0.6263
16654TIP3   OH271452   2.898   1.115  10.687 -0.6918 -0.4470 -0.4814
16654TIP3    H171453   2.966   1.051  10.667 -0.3845  0.4610 -2.5743
16654TIP3    H271454   2.816   1.071  10.664 -0.7893 -1.2046  1.1646
16655TIP3   OH271455   1.038   5.645   4.520 -0.2235  0.3368  0.3042
16655TIP3    H171456   1.033   5.561   4.474 -0.1637  1.4056 -1.7467
16655TIP3    H271457   1.129   5.673   4.509  0.2929 -0.1937  2.6782
16656TIP3   OH271458   1.743   5.193  11.158  0.3303 -0.0657  0.3219
16656TIP3    H171459   1.651   5.170  11.145  0.6284 -0.1462 -2.0986
16656TIP3    H271460   1.787   5.163  11.079  2.0332  2.1501  0.3301
16657TIP3   OH271461   6.559   4.551  12.888 -0.0389  0.0746 -0.0870
16657TIP3    H171462   6.647   4.525  12.914  0.2843 -0.5791 -1.6831
16657TIP3    H271463   6.547   4.638  12.925  0.7376 -0.3917  1.3076
16658TIP3   OH271464   2.324   6.457   0.823 -0.0534  0.3054 -0.1617
16658TIP3    H171465   2.409   6.492   0.849  0.8849 -2.1678  0.3286
16658TIP3    H271466   2.328   6.364   0.845 -2.9328  0.1114 -0.0303
16659TIP3   OH271467   2.448   1.994   4.604  0.4728 -0.4411 -0.2967
16659TIP3    H171468   2.385   1.978   4.674  1.4626 -1.0105  0.4939
16659TIP3    H271469   2.411   1.950   4.528 -1.0619  0.9333 -0.4129
16660TIP3   OH271470   4.313   3.602  16.277  0.0081  0.5020  0.0117
16660TIP3    H171471   4.220   3.597  16.254  0.4189 -1.1073 -1.4740
16660TIP3    H271472   4.319   3.556  16.361 -0.9496  3.3553  1.8138
16661TIP3   OH271473   1.692   5.260   0.815  0.3015 -0.8286  0.4528
16661TIP3    H171474   1.770   5.311   0.835  0.8621 -0.7298 -1.7234
16661TIP3    H271475   1.702   5.237   0.722 -1.9774 -1.2871  0.2684
16662TIP3   OH271476   5.989   3.629   4.272  0.2614  0.3322 -0.5043
16662TIP3    H171477   6.071   3.606   4.316  1.6599  2.6894 -1.6225
16662TIP3    H271478   5.953   3.701   4.324 -0.5843 -0.0135 -0.5913
16663TIP3   OH271479   3.253   6.117   6.617  0.1455  0.3546 -0.1606
16663TIP3    H171480   3.312   6.087   6.686  0.7155  1.1988 -0.2624
16663TIP3    H271481   3.211   6.037   6.585 -2.0012  0.1155  2.7834
16664TIP3   OH271482   4.492   3.692  12.172 -0.4848 -0.5015 -0.1742
16664TIP3    H171483   4.566   3.736  12.216 -0.7714  0.0655 -0.2501
16664TIP3    H271484   4.525   3.605  12.151  1.9255  1.1487 -4.5578
16665TIP3   OH271485   3.120   2.836   0.097 -0.2233  0.1951 -0.2160
16665TIP3    H171486   3.032   2.873   0.095 -0.9182 -1.1040  2.4830
16665TIP3    H271487   3.107   2.742   0.088  0.7560 -0.1152  1.3030
16666TIP3   OH271488   0.862   5.900  12.894 -0.5314 -0.0503  0.1503
16666TIP3    H171489   0.825   5.987  12.911 -1.1945 -0.5572  1.4267
16666TIP3    H271490   0.890   5.904  12.803 -1.1121  1.3036 -0.0006
16667TIP3   OH271491   3.029   5.993   5.468 -0.1893 -0.0960 -0.2759
16667TIP3    H171492   2.950   5.943   5.487 -1.4742  1.8986 -0.0570
16667TIP3    H271493   3.000   6.063   5.410  1.5280  0.4251 -0.5758
16668TIP3   OH271494   1.005   6.384  12.903 -0.0613 -0.1934 -0.7159
16668TIP3    H171495   0.998   6.447  12.974  0.5530  1.7379 -2.2669
16668TIP3    H271496   1.099   6.379  12.885 -0.1508 -1.1858 -0.9540
16669TIP3   OH271497   4.620   5.765   3.636  0.0407 -0.7524  0.2200
16669TIP3    H171498   4.583   5.707   3.702  0.6349  0.4322  1.6597
16669TIP3    H271499   4.705   5.727   3.616 -0.1604 -1.1420  0.0996
16670TIP3   OH271500   5.461   1.356  15.695  0.1076  0.5986  0.6452
16670TIP3    H171501   5.457   1.437  15.644  1.1379  1.4590  1.8574
16670TIP3    H271502   5.503   1.381  15.777  0.3972 -1.1615  1.0850
16671TIP3   OH271503   0.190   1.655  14.616  0.0959 -0.1147  0.2445
16671TIP3    H171504   0.185   1.596  14.691  0.3643 -1.5039 -0.7962
16671TIP3    H271505   0.156   1.739  14.650 -2.1332 -1.3331  1.2716
16672TIP3   OH271506   6.292   0.921   2.737  0.0098 -0.1018 -0.2547
16672TIP3    H171507   6.264   0.836   2.772  1.1871  0.0411  1.0639
16672TIP3    H271508   6.358   0.899   2.671  2.4946 -0.1798  2.1073
16673TIP3   OH271509   2.003   2.484  14.178  0.5475 -0.6726 -0.5344
16673TIP3    H171510   1.910   2.502  14.168  0.4210 -0.6457  0.6044
16673TIP3    H271511   2.014   2.395  14.146  0.3041 -0.3465 -1.5535
16674TIP3   OH271512   2.900   1.420   6.239  0.1169  0.3816 -0.2698
16674TIP3    H171513   2.987   1.444   6.273 -1.8295  4.4931  2.5909
16674TIP3    H271514   2.869   1.353   6.300 -0.4480  2.4094  1.8300
16675TIP3   OH271515   1.819   3.376  14.905  0.0616  0.0901  0.1840
16675TIP3    H171516   1.765   3.352  14.980  1.7939  0.7578  1.7362
16675TIP3    H271517   1.884   3.306  14.900 -2.7088 -2.6262 -3.8068
16676TIP3   OH271518   0.077   3.202   1.057 -0.5034 -0.3893 -0.3620
16676TIP3    H171519   0.036   3.116   1.062  0.0168 -0.5697  1.1395
16676TIP3    H271520   0.165   3.189   1.091  0.0885  0.4561 -1.4902
16677TIP3   OH271521   1.447   4.436   3.799  0.3356 -0.4029 -0.0163
16677TIP3    H171522   1.487   4.421   3.885  1.2087  1.4101 -0.0462
16677TIP3    H271523   1.425   4.529   3.799  2.9375  0.3593 -2.7363
16678TIP3   OH271524   2.748   1.162  14.334  0.3056  0.6060  0.7002
16678TIP3    H171525   2.696   1.196  14.407  0.7427  0.5465  1.0457
16678TIP3    H271526   2.804   1.236  14.309  0.9048  0.3017  1.1244
16679TIP3   OH271527   0.211   1.324  16.818  0.4181  0.2685 -0.0987
16679TIP3    H171528   0.195   1.266  16.892  1.8154  2.2522  1.9019
16679TIP3    H271529   0.300   1.302  16.789  0.9470  1.3575  0.6606
16680TIP3   OH271530   4.387   3.308   0.922  0.2253 -0.2255  0.4858
16680TIP3    H171531   4.302   3.264   0.924 -0.5678  1.2428  0.8815
16680TIP3    H271532   4.373   3.387   0.869  2.3791 -1.8349 -2.8332
16681TIP3   OH271533   3.467   5.781   0.094 -0.7861 -0.4737  0.2263
16681TIP3    H171534   3.499   5.763   0.006 -1.9761 -1.3717 -0.0476
16681TIP3    H271535   3.383   5.826   0.081 -1.7492 -1.9835  0.8406
16682TIP3   OH271536   6.721   1.221  16.375 -0.0863  0.0075  0.5953
16682TIP3    H171537   6.768   1.301  16.399 -0.3623  0.3102  0.1598
16682TIP3    H271538   6.757   1.153  16.432  0.8478  0.2380  0.2926
16683TIP3   OH271539   6.427   1.737  13.651  0.1517  0.0571 -0.1874
16683TIP3    H171540   6.467   1.793  13.717  2.3371 -0.3235 -1.0859
16683TIP3    H271541   6.386   1.798  13.590 -2.9020  0.3807  1.9827
16684TIP3   OH271542   1.283   5.066  14.173 -0.4978 -0.2245  0.0797
16684TIP3    H171543   1.257   5.145  14.127 -1.5160 -0.3423  0.4165
16684TIP3    H271544   1.283   4.998  14.106 -1.1666 -0.2389  0.0934
16685TIP3   OH271545   4.417   1.016  11.458  0.8041 -0.3081  0.2336
16685TIP3    H171546   4.384   0.941  11.407 -0.8082  0.6427 -0.1661
16685TIP3    H271547   4.430   0.981  11.546  0.1254 -1.0758  0.0429
16686TIP3   OH271548   6.810   6.427  10.716 -0.4126 -0.3129  0.3159
16686TIP3    H171549   6.714   6.420  10.715 -0.3339 -1.8654  0.6689
16686TIP3    H271550   6.827   6.514  10.752 -1.6913  0.2766 -0.4570
16687TIP3   OH271551   2.239   0.889   1.772 -0.0843 -0.3871 -0.0766
16687TIP3    H171552   2.145   0.888   1.755  0.0747  1.2855 -1.3818
16687TIP3    H271553   2.246   0.902   1.866 -1.1858  0.3529 -0.0729
16688TIP3   OH271554   4.690   6.182  14.587  0.2903 -0.1200  0.0855
16688TIP3    H171555   4.717   6.095  14.559  0.2018  0.0985 -0.6876
16688TIP3    H271556   4.595   6.182  14.576  0.3428  0.2378 -0.3964
16689TIP3   OH271557   4.356   1.554   1.141 -0.3735 -0.1851  0.4134
16689TIP3    H171558   4.288   1.572   1.075 -0.8541 -0.5875  0.7891
16689TIP3    H271559   4.431   1.523   1.090 -0.6441 -0.2183  0.0286
16690TIP3   OH271560   2.754   0.239   5.533 -0.1053  0.7756  0.0245
16690TIP3    H171561   2.685   0.173   5.539 -1.1802  1.8049 -0.5321
16690TIP3    H271562   2.714   0.318   5.569  0.4401  1.6328 -1.1784
16691TIP3   OH271563   3.058   6.533   1.913 -0.4976 -0.4110  0.1576
16691TIP3    H171564   3.111   6.611   1.894 -0.8142 -0.5211 -1.3578
16691TIP3    H271565   2.971   6.556   1.879 -1.1224 -0.6782  1.5367
16692TIP3   OH271566   3.945   4.797  14.777  0.6346  0.4093  0.3686
16692TIP3    H171567   3.866   4.778  14.828 -0.5448  0.0614 -1.4606
16692TIP3    H271568   4.008   4.829  14.841 -0.8614  0.3448  1.9646
16693TIP3   OH271569   5.487   4.055  13.725  0.1569 -0.5587  0.4981
16693TIP3    H171570   5.556   3.988  13.722  1.1778  0.3323  2.4920
16693TIP3    H271571   5.439   4.036  13.806 -0.6073  0.1300  0.2164
16694TIP3   OH271572   1.982   5.600  12.141 -0.4160 -0.1575 -0.0092
16694TIP3    H171573   2.063   5.630  12.101 -0.4325  0.2153  0.2301
16694TIP3    H271574   1.924   5.583  12.067 -0.3207  0.1635 -0.1612
16695TIP3   OH271575   4.358   3.842   3.147  0.0219  0.4943  0.0676
16695TIP3    H171576   4.366   3.929   3.107 -2.2375  0.7208 -0.0139
16695TIP3    H271577   4.378   3.857   3.240  4.9070  0.0334 -0.6420
16696TIP3   OH271578   0.019   1.596  13.112  0.9158  0.3858 -0.7384
16696TIP3    H171579  -0.076   1.605  13.116  0.9371  0.3428  0.6087
16696TIP3    H271580   0.050   1.677  13.072  0.4313  1.4845  1.0025
16697TIP3   OH271581   5.245   6.602  12.755 -0.1534  0.3523 -0.0915
16697TIP3    H171582   5.261   6.693  12.731 -0.7193  0.7396  0.9674
16697TIP3    H271583   5.195   6.606  12.836  0.1585 -0.9099  0.1922
16698TIP3   OH271584   4.312   6.781  11.349 -0.1518  0.0170 -0.1505
16698TIP3    H171585   4.381   6.749  11.290  0.3877 -1.7341  1.3432
16698TIP3    H271586   4.238   6.723  11.333  0.0939 -0.6628  1.0474
16699TIP3   OH271587   6.186   5.413  16.791  0.6242  0.6900  0.2000
16699TIP3    H171588   6.164   5.323  16.770  0.8466  0.2253  1.7960
16699TIP3    H271589   6.258   5.435  16.732  0.1360  0.0480 -0.6466
16700TIP3   OH271590   0.485   2.368   1.555 -0.1684  0.0217  0.4940
16700TIP3    H171591   0.546   2.394   1.624  1.6490  1.2485 -1.4686
16700TIP3    H271592   0.407   2.420   1.571  0.8743  1.6008  0.6582
16701TIP3   OH271593   0.188   3.229   1.339  0.2435 -0.2729 -0.3960
16701TIP3    H171594   0.217   3.317   1.364  1.5761 -0.7833 -0.0400
16701TIP3    H271595   0.153   3.192   1.419  3.1231 -1.3643  0.4699
16702TIP3   OH271596   6.767   6.511  16.972 -0.0590 -1.0648  0.2752
16702TIP3    H171597   6.807   6.445  16.916  1.1833  2.1408 -2.9978
16702TIP3    H271598   6.680   6.525  16.936  0.5724  0.7003 -0.6652
16703TIP3   OH271599   6.505   4.344  16.557  0.1194 -0.6733 -0.2713
16703TIP3    H171600   6.589   4.301  16.575  0.0942 -0.4073  0.5052
16703TIP3    H271601   6.529   4.431  16.525  0.1536 -0.9765 -1.0988
16704TIP3   OH271602   4.788   1.304   0.670  0.4834  0.6811 -1.1688
16704TIP3    H171603   4.803   1.241   0.599 -0.7377 -1.1879  0.1476
16704TIP3    H271604   4.724   1.366   0.635 -0.3013 -0.3729 -1.6234
16705TIP3   OH271605   6.260   2.056  15.174  0.5270 -0.3073  0.5479
16705TIP3    H171606   6.354   2.060  15.157  0.2364 -0.6123 -1.4067
16705TIP3    H271607   6.223   2.123  15.116 -0.5384 -0.8250  0.6189
16706TIP3   OH271608   6.830   6.581  11.012  0.0749  0.3358 -0.2149
16706TIP3    H171609   6.750   6.536  11.037 -0.3903  2.0209  1.5215
16706TIP3    H271610   6.810   6.622  10.928 -0.7458  0.4244  0.0245
16707TIP3   OH271611   0.251   2.272   0.447  0.0626  0.5233 -0.4121
16707TIP3    H171612   0.328   2.216   0.452  2.3829  3.4070 -1.0404
16707TIP3    H271613   0.221   2.264   0.356 -1.2735 -1.5330  0.1287
16708TIP3   OH271614   5.432   5.236  14.541  0.1815  0.4312  0.3161
16708TIP3    H171615   5.510   5.191  14.507  0.3878  0.7662  0.3413
16708TIP3    H271616   5.460   5.269  14.626  0.3782  1.5639 -0.1809
16709TIP3   OH271617   4.291   3.933   0.371  0.8521  0.2644  0.6513
16709TIP3    H171618   4.267   4.016   0.411 -0.8559  0.1198  0.0042
16709TIP3    H271619   4.376   3.949   0.331  0.5652  1.6811  0.5737
16710TIP3   OH271620   0.813   5.573  10.934  0.4237  0.3308 -0.7705
16710TIP3    H171621   0.788   5.557  11.025  0.8804  0.3522 -0.6389
16710TIP3    H271622   0.903   5.542  10.927  1.7461  3.6640 -0.2266
16711TIP3   OH271623   6.618   3.117   3.243 -0.7401  0.2029 -0.1772
16711TIP3    H171624   6.597   3.113   3.336  1.6242 -1.8027  0.3543
16711TIP3    H271625   6.573   3.042   3.205  2.5732 -2.3135  0.4453
16712TIP3   OH271626   0.004   3.813  14.742  0.1143  0.2070 -0.2008
16712TIP3    H171627  -0.033   3.837  14.657 -2.6265  0.0122  0.8357
16712TIP3    H271628   0.015   3.718  14.738 -0.9057  0.0771 -0.0250
16713TIP3   OH271629   6.397   6.488  16.648 -0.2868  0.7478 -0.3443
16713TIP3    H171630   6.405   6.462  16.556  1.2799  1.0159 -0.3028
16713TIP3    H271631   6.324   6.550  16.648 -1.8997 -1.0620 -0.9853
16714TIP3   OH271632   1.975   5.343  12.773 -0.5437  0.0480 -0.4283
16714TIP3    H171633   1.900   5.283  12.783 -1.2890  0.8238 -1.2180
16714TIP3    H271634   2.049   5.294  12.809 -1.6470 -0.2459  1.6071
16715TIP3   OH271635   6.652   3.044  16.926 -0.5876 -0.4642  0.1589
16715TIP3    H171636   6.687   2.971  16.977  0.0411 -0.2142  0.0894
16715TIP3    H271637   6.724   3.070  16.869 -0.6982  0.4257  0.4118
16716TIP3   OH271638   1.976   3.815   5.781 -0.0304 -0.0539 -0.4100
16716TIP3    H171639   1.947   3.872   5.851  0.5717 -0.1050 -0.1098
16716TIP3    H271640   1.897   3.796   5.731 -0.8501 -1.6068  1.3814
16717TIP3   OH271641   5.366   1.961  14.876  0.0570  0.2005  0.8668
16717TIP3    H171642   5.390   2.049  14.845 -1.0048 -0.2067 -1.3265
16717TIP3    H271643   5.439   1.905  14.850  0.3384  0.2709  1.4832
16718TIP3   OH271644   2.703   0.777  11.091  0.2383 -0.4008  0.2603
16718TIP3    H171645   2.754   0.850  11.055 -0.0160  0.6993  2.0013
16718TIP3    H271646   2.626   0.819  11.129  0.2031 -1.5562  1.5140
16719TIP3   OH271647   2.504   5.794   2.528 -0.1577  0.2153  0.5810
16719TIP3    H171648   2.420   5.747   2.521  0.9879 -1.8147 -0.4429
16719TIP3    H271649   2.550   5.772   2.447  1.7432  0.4987  1.5389
16720TIP3   OH271650   6.499   3.321  16.604  0.3547 -0.2645 -0.7040
16720TIP3    H171651   6.435   3.267  16.651  2.1617 -1.9506 -0.0440
16720TIP3    H271652   6.578   3.267  16.600  1.9404  1.9372 -0.9649
16721TIP3   OH271653   6.261   4.617   4.918 -0.6452 -0.1417 -0.1055
16721TIP3    H171654   6.204   4.692   4.934  0.5518  0.4908  1.3841
16721TIP3    H271655   6.255   4.564   4.997  1.8344  0.6534  0.7080
16722TIP3   OH271656   1.800   1.151   1.492  0.4173  0.5397 -0.6445
16722TIP3    H171657   1.759   1.232   1.462 -0.6053 -0.0600 -0.8900
16722TIP3    H271658   1.728   1.089   1.500  1.2480 -0.4819 -0.8983
16723TIP3   OH271659   1.259   5.683   2.081 -0.1905  0.4502  0.5641
16723TIP3    H171660   1.179   5.630   2.084 -0.8238  1.3390 -0.0347
16723TIP3    H271661   1.317   5.637   2.020 -0.5379  0.1866  0.4294
16724TIP3   OH271662   3.413   0.808  12.123  0.6145  0.5507  0.0026
16724TIP3    H171663   3.486   0.794  12.063 -1.2892 -0.6126 -2.2408
16724TIP3    H271664   3.417   0.733  12.183 -2.7395 -4.2470 -4.7410
16725TIP3   OH271665   3.925   1.248  16.543 -0.2183  0.4532 -0.3211
16725TIP3    H171666   3.970   1.332  16.533  0.2928  0.4206  1.2866
16725TIP3    H271667   3.883   1.254  16.629  2.4987 -2.0476  1.3928
16726TIP3   OH271668   3.245   2.632   0.329 -0.3392  0.3176 -0.3707
16726TIP3    H171669   3.170   2.603   0.278 -0.7897  2.4168 -1.0201
16726TIP3    H271670   3.209   2.694   0.393  0.7982  1.3153 -0.6461
16727TIP3   OH271671   2.854   2.941   0.112 -0.1252 -0.1547 -0.5898
16727TIP3    H171672   2.892   2.987   0.187 -0.4213  0.9102 -1.0704
16727TIP3    H271673   2.760   2.956   0.120 -0.1811 -0.2578 -1.0277
16728TIP3   OH271674   1.659   2.345   3.871 -0.8061  0.0597 -0.0687
16728TIP3    H171675   1.639   2.267   3.924 -1.5509  0.2881 -0.0111
16728TIP3    H271676   1.593   2.409   3.896  0.3907  1.0755  0.6111
16729TIP3   OH271677   0.110   1.673   3.757 -0.2068 -0.9917 -0.5141
16729TIP3    H171678   0.067   1.661   3.842 -0.9528  1.1584 -0.5161
16729TIP3    H271679   0.040   1.667   3.693 -0.1545  0.2346 -0.7145
16730TIP3   OH271680   5.908   2.060  12.330  0.2756 -0.2569  0.3180
16730TIP3    H171681   5.932   1.973  12.363 -0.3349 -0.5438  0.0066
16730TIP3    H271682   5.943   2.120  12.396  2.3391 -0.6111 -0.3719
16731TIP3   OH271683   0.365   0.806   5.896  0.2685 -0.3497  0.0587
16731TIP3    H171684   0.438   0.867   5.885 -0.9897  1.4995  1.3383
16731TIP3    H271685   0.362   0.788   5.990 -0.7436 -0.5844  0.0014
16732TIP3   OH271686   1.886   1.933  14.732  0.4082  0.1368  0.5131
16732TIP3    H171687   1.794   1.913  14.748 -0.2306  0.4965 -2.1416
16732TIP3    H271688   1.934   1.860  14.770 -1.2289 -1.7361 -0.8177
16733TIP3   OH271689   3.633   5.718  15.976  0.1459  0.6715  0.0922
16733TIP3    H171690   3.560   5.777  15.958 -0.5372 -0.1781 -0.0430
16733TIP3    H271691   3.598   5.631  15.956  0.0425 -0.1577  3.3516
16734TIP3   OH271692   0.918   6.250  14.250  0.0726  0.0959  0.3292
16734TIP3    H171693   0.918   6.289  14.338  0.0358  0.1319  0.3128
16734TIP3    H271694   0.906   6.324  14.191  1.5952  0.2729  0.2099
16735TIP3   OH271695   4.305   1.401   6.246 -0.0270 -0.4666  0.0540
16735TIP3    H171696   4.284   1.315   6.282 -1.0892 -0.7706 -1.2262
16735TIP3    H271697   4.244   1.413   6.174  1.2394  0.6271 -0.8939
16736TIP3   OH271698   1.983   5.024   6.178  0.4813  0.2814 -0.1584
16736TIP3    H171699   2.058   5.011   6.120  0.2446  1.1099 -0.6702
16736TIP3    H271700   1.999   4.966   6.252  1.1173 -0.3062 -0.7455
16737TIP3   OH271701   6.778   3.830   5.165  0.4034  0.1134  0.1331
16737TIP3    H171702   6.796   3.893   5.234  1.0319  0.7725 -0.6099
16737TIP3    H271703   6.721   3.878   5.104 -1.5343 -0.9936  0.9945
16738TIP3   OH271704   1.458   1.898   6.255  0.5885  0.8441  0.2330
16738TIP3    H171705   1.441   1.985   6.291  1.7054  0.8110  0.8789
16738TIP3    H271706   1.373   1.854   6.260  0.6621  0.8279  2.9778
16739TIP3   OH271707   1.601   2.205  15.471 -0.4033  0.3959 -0.3872
16739TIP3    H171708   1.660   2.157  15.529  0.2794 -0.0501 -1.4148
16739TIP3    H271709   1.655   2.276  15.435 -0.0859 -0.6866 -2.2140
16740TIP3   OH271710   1.082   3.984   3.901  0.0709 -0.0519 -0.2139
16740TIP3    H171711   1.100   3.890   3.905 -1.7965 -0.4094  0.9381
16740TIP3    H271712   1.112   4.018   3.985 -0.4281  0.1491 -0.1163
16741TIP3   OH271713   2.441   5.719   3.969  0.3788 -0.2225  0.4284
16741TIP3    H171714   2.404   5.782   3.907 -1.5305  0.2120  1.9067
16741TIP3    H271715   2.451   5.638   3.919 -2.3688 -0.2719 -0.1672
16742TIP3   OH271716   4.501   0.512   0.620  0.5940 -0.0995 -0.1029
16742TIP3    H171717   4.458   0.441   0.572  0.2716  0.0442 -0.0287
16742TIP3    H271718   4.475   0.500   0.711 -0.8598  1.0993 -0.3250
16743TIP3   OH271719   0.972   1.629   2.828 -0.3510  0.3446  0.0180
16743TIP3    H171720   1.056   1.663   2.857  0.1832  0.1984 -1.3082
16743TIP3    H271721   0.933   1.591   2.906  0.6310  0.7787  0.7358
16744TIP3   OH271722   5.244   1.145   3.201  0.0027  0.4134 -0.4397
16744TIP3    H171723   5.178   1.147   3.270  0.5213 -0.3016  0.0979
16744TIP3    H271724   5.321   1.186   3.241 -0.2851  1.8471 -1.2778
16745TIP3   OH271725   0.472   3.757  11.721  0.4392 -0.6604 -0.2300
16745TIP3    H171726   0.507   3.761  11.809  1.9748 -0.4135 -0.8179
16745TIP3    H271727   0.433   3.843  11.706  1.4762 -0.1823 -0.2812
16746TIP3   OH271728   1.727   0.030  16.571  0.1422 -0.1499 -0.7845
16746TIP3    H171729   1.803   0.004  16.624 -1.2492 -1.2312  0.7765
16746TIP3    H271730   1.720   0.125  16.584  0.4440 -0.2474  0.1530
16747TIP3   OH271731   3.666   3.171   4.150 -0.0444 -0.3253  0.0044
16747TIP3    H171732   3.668   3.258   4.111 -1.2521  0.4624  1.5978
16747TIP3    H271733   3.701   3.182   4.238 -1.9424 -1.0107  0.9205
16748TIP3   OH271734   0.098   5.673  11.302 -0.3432 -0.5623 -0.8703
16748TIP3    H171735   0.185   5.662  11.262  0.9297  0.4365  1.3732
16748TIP3    H271736   0.076   5.765  11.286  0.4456  0.0123  1.0303
16749TIP3   OH271737   5.032   3.100  13.248 -0.4004 -0.1354  0.2733
16749TIP3    H171738   4.954   3.084  13.300 -0.6967 -0.4992 -0.2790
16749TIP3    H271739   5.000   3.143  13.169 -0.0457 -0.3013  0.0358
16750TIP3   OH271740   1.030   5.750  10.794 -0.2719  0.2818  0.1189
16750TIP3    H171741   1.045   5.754  10.888  0.8443 -1.6913  0.0772
16750TIP3    H271742   1.086   5.818  10.758 -1.5666  1.8463  0.9050
16751TIP3   OH271743   3.931   4.932   1.684  0.4646  0.1070  0.1492
16751TIP3    H171744   3.892   4.998   1.741  0.8361 -1.1680  1.9565
16751TIP3    H271745   4.025   4.950   1.687  0.6931 -1.1630  1.5999
16752TIP3   OH271746   2.058   1.790  16.942  0.0107  0.5623  0.1756
16752TIP3    H171747   2.064   1.885  16.930 -0.3355  1.2457  4.1437
16752TIP3    H271748   2.060   1.778  17.037 -1.7459 -3.2978 -0.1140
16753TIP3   OH271749   3.411   5.741  15.735 -0.1825  0.3022 -0.2060
16753TIP3    H171750   3.324   5.719  15.702 -1.3219  0.8278  2.2134
16753TIP3    H271751   3.467   5.669  15.705 -2.2164 -1.9973  1.1047
16754TIP3   OH271752   2.925   0.496   1.252 -0.1029  0.8771  0.9796
16754TIP3    H171753   2.929   0.513   1.158 -0.9280  1.2637  1.0005
16754TIP3    H271754   2.975   0.416   1.264 -0.7718  0.2998  0.0699
16755TIP3   OH271755   2.364   1.372   4.069 -0.0532  0.1643 -0.8057
16755TIP3    H171756   2.378   1.420   4.150  2.3164  0.5458 -1.3785
16755TIP3    H271757   2.282   1.324   4.084  0.6220 -0.2957  2.0485
16756TIP3   OH271758   5.305   3.763   3.825  0.5073 -0.2285 -0.0478
16756TIP3    H171759   5.250   3.736   3.898  1.4498 -2.6596 -0.1381
16756TIP3    H271760   5.381   3.804   3.867 -0.4030  1.2991  0.1568
16757TIP3   OH271761   6.651   2.160  10.904  0.0972 -0.4831  0.1392
16757TIP3    H171762   6.686   2.073  10.882  1.3781  0.2098 -0.6938
16757TIP3    H271763   6.583   2.176  10.838 -2.7770 -2.3077  2.4233
16758TIP3   OH271764   1.320   6.166   2.588 -0.7776 -0.1407 -0.1532
16758TIP3    H171765   1.376   6.241   2.568 -2.1570  1.2617  0.9034
16758TIP3    H271766   1.238   6.185   2.543 -1.4862 -0.4907  0.9294
16759TIP3   OH271767   3.464   5.114  15.858  0.3327 -0.2500 -0.3110
16759TIP3    H171768   3.506   5.032  15.832  0.3325 -0.3448 -0.0240
16759TIP3    H271769   3.373   5.091  15.876  0.8704 -0.7244  2.1945
16760TIP3   OH271770   4.504   4.344  13.004  0.0640  0.3118 -0.0332
16760TIP3    H171771   4.525   4.257  13.038  0.6378  0.2015 -0.6521
16760TIP3    H271772   4.447   4.383  13.071 -2.1563 -1.4069 -0.8004
16761TIP3   OH271773   5.606   5.921   3.635  0.2422  0.2624  0.4188
16761TIP3    H171774   5.680   5.878   3.591  0.5151  0.7781  0.3740
16761TIP3    H271775   5.645   5.963   3.711  0.5111  2.9137 -1.0791
16762TIP3   OH271776   4.721   1.777  13.696  0.1476 -0.1380 -0.0207
16762TIP3    H171777   4.764   1.827  13.765  0.6058 -0.4814 -0.0562
16762TIP3    H271778   4.749   1.818  13.614  0.6739 -0.5613 -0.0587
16763TIP3   OH271779   3.175   0.489   4.366  0.8583 -0.6507  0.0699
16763TIP3    H171780   3.188   0.584   4.359  0.5171 -0.4600  1.5087
16763TIP3    H271781   3.119   0.479   4.444  1.1777 -2.0511  0.1404
16764TIP3   OH271782   1.656   3.769  16.008  0.0420  0.2929 -0.3156
16764TIP3    H171783   1.565   3.749  15.989 -0.2410 -0.5091  1.6233
16764TIP3    H271784   1.705   3.694  15.973 -0.1062  0.4106 -0.7787
16765TIP3   OH271785   6.179   5.491   4.119  0.1781 -0.0969 -0.0502
16765TIP3    H171786   6.170   5.535   4.034 -0.3699 -0.9216 -0.4309
16765TIP3    H271787   6.274   5.487   4.134  0.2495  0.8263 -0.2035
16766TIP3   OH271788   3.463   3.148   1.646 -0.0598  0.0600  0.6019
16766TIP3    H171789   3.433   3.132   1.557 -0.9320 -1.7221  1.1649
16766TIP3    H271790   3.552   3.111   1.648 -0.2350 -0.3733  0.5913
16767TIP3   OH271791   2.739   1.194  16.087  0.4859 -0.0875 -0.1478
16767TIP3    H171792   2.649   1.206  16.117  0.7752  1.1810  0.2658
16767TIP3    H271793   2.792   1.235  16.155  1.4104 -1.0845 -0.2337
16768TIP3   OH271794   4.752   1.595  11.460  0.1152  0.2748  0.5694
16768TIP3    H171795   4.678   1.653  11.477  0.5247  0.9572  0.0489
16768TIP3    H271796   4.719   1.508  11.481 -0.9833  0.5092 -0.1081
16769TIP3   OH271797   4.515   0.960  13.382  0.4161 -0.5028  0.1443
16769TIP3    H171798   4.493   0.897  13.313 -0.8582  0.2085 -0.1212
16769TIP3    H271799   4.583   0.916  13.434 -0.0967 -1.8847 -0.3162
16770TIP3   OH271800   4.406   0.557   5.066 -0.4176  0.0092  0.3666
16770TIP3    H171801   4.362   0.529   5.146 -2.5403 -1.3257 -1.1496
16770TIP3    H271802   4.450   0.478   5.034 -0.0424  0.3935 -0.0760
16771TIP3   OH271803   1.896   0.065  10.788 -0.3569 -0.1830  0.7533
16771TIP3    H171804   1.887  -0.030  10.773  0.2223  0.1885 -2.9363
16771TIP3    H271805   1.807   0.099  10.778 -0.4048 -0.2394  0.9943
16772TIP3   OH271806   5.213   4.564   2.749 -0.1110 -0.4071  0.4713
16772TIP3    H171807   5.162   4.570   2.830 -0.0722  1.3280  0.4000
16772TIP3    H271808   5.192   4.644   2.701  2.4911  0.2984  0.3590
16773TIP3   OH271809   6.398   6.265  14.306  0.1915  0.2835 -0.1727
16773TIP3    H171810   6.393   6.291  14.398 -0.0037 -0.3881  0.0115
16773TIP3    H271811   6.362   6.176  14.304 -1.6061  0.9900 -1.1942
16774TIP3   OH271812   6.281   1.042  11.514 -1.3154 -0.3743  0.3706
16774TIP3    H171813   6.250   1.004  11.432  0.1657  0.9919 -0.8721
16774TIP3    H271814   6.331   0.972  11.556 -0.0846 -0.3753 -1.0413
16775TIP3   OH271815   3.515   4.478  12.433  0.2919  0.1016 -0.2638
16775TIP3    H171816   3.511   4.482  12.337 -1.1367  0.0369 -0.2202
16775TIP3    H271817   3.481   4.392  12.455 -1.2961  0.8495  0.3740
16776TIP3   OH271818   3.444   0.203   6.173 -0.5597  0.2628  0.0031
16776TIP3    H171819   3.537   0.224   6.169 -0.4382 -0.1804  0.3720
16776TIP3    H271820   3.430   0.142   6.101 -0.6991  0.8020 -0.4344
16777TIP3   OH271821   3.165   0.355   0.389  0.1984  0.5158  0.1583
16777TIP3    H171822   3.231   0.340   0.457 -2.4252  0.0174  2.7751
16777TIP3    H271823   3.154   0.270   0.348  1.3899  0.6872 -0.5765
16778TIP3   OH271824   1.454   2.629  16.762 -0.0529  0.4723  0.4828
16778TIP3    H171825   1.410   2.554  16.802  2.1764 -0.8311  0.6951
16778TIP3    H271826   1.547   2.614  16.780  0.5906  2.5122 -0.8064
16779TIP3   OH271827   1.396   1.984   6.538 -0.4943  0.4393  0.0940
16779TIP3    H171828   1.418   1.992   6.631  2.5931  0.6224 -0.5321
16779TIP3    H271829   1.417   2.069   6.500 -1.8967  0.4281 -0.7955
16780TIP3   OH271830   4.280   6.749  16.510 -0.2928  0.0250 -0.1366
16780TIP3    H171831   4.348   6.791  16.457 -0.8250  1.5849  0.3408
16780TIP3    H271832   4.317   6.665  16.537  3.1661  2.3697  3.4673
16781TIP3   OH271833   2.086   4.428  16.439 -0.2970  0.1151 -0.0643
16781TIP3    H171834   2.013   4.411  16.381 -1.4094 -0.5006  1.4544
16781TIP3    H271835   2.133   4.344  16.445  0.4120  0.4389 -0.8253
16782TIP3   OH271836   6.804   0.101   1.074 -0.4565  0.3412  0.5374
16782TIP3    H171837   6.802   0.006   1.083  0.8595  0.3038  0.6525
16782TIP3    H271838   6.723   0.122   1.027 -1.3245 -0.7029  1.4892
16783TIP3   OH271839   3.982   4.014   4.233  0.6379 -0.0386 -0.5559
16783TIP3    H171840   3.941   3.929   4.217  2.2659 -0.6016 -2.0590
16783TIP3    H271841   3.990   4.020   4.328 -2.0593 -0.2618 -0.2453
16784TIP3   OH271842   0.638   3.343  12.755 -0.0237  0.2027  0.2314
16784TIP3    H171843   0.635   3.264  12.701  1.5636  0.3179 -0.0650
16784TIP3    H271844   0.635   3.311  12.845 -0.6177 -0.1158  0.1027
16785TIP3   OH271845   4.094   2.631  10.975 -0.4830 -0.0818 -0.7038
16785TIP3    H171846   4.080   2.542  11.007  1.5378 -0.1886  0.0539
16785TIP3    H271847   4.035   2.640  10.901 -1.9595 -1.4548  0.2497
16786TIP3   OH271848   5.610   3.043   4.621  0.3058 -0.1140  0.4203
16786TIP3    H171849   5.645   2.961   4.588 -1.0581  0.3153 -2.4070
16786TIP3    H271850   5.655   3.111   4.570 -2.2586  0.5779 -1.0612
16787TIP3   OH271851   0.964   5.636  16.503  0.2725 -0.6063 -0.0190
16787TIP3    H171852   0.969   5.725  16.539  0.1606 -0.2927 -0.7691
16787TIP3    H271853   1.047   5.596  16.526 -0.6520 -1.2350  2.6898
16788TIP3   OH271854   6.050   6.377   3.693  0.5514 -0.0521  0.2644
16788TIP3    H171855   6.061   6.317   3.767  0.7228 -0.6020 -0.2038
16788TIP3    H271856   6.075   6.326   3.616 -0.8805  0.0849 -0.3245
16789TIP3   OH271857   1.938   0.770  12.768 -0.0287  0.0079 -0.5071
16789TIP3    H171858   1.900   0.802  12.686  0.5012  0.8042 -0.4541
16789TIP3    H271859   1.863   0.737  12.818 -0.8689  2.5698  0.0669
16790TIP3   OH271860   2.462   0.519  14.310  0.1168 -0.7326 -0.2200
16790TIP3    H171861   2.553   0.490  14.301  0.7830  1.5513 -1.6191
16790TIP3    H271862   2.420   0.491  14.228 -0.1916 -0.9136 -0.0012
16791TIP3   OH271863   1.263   4.942  11.927  0.0327 -0.3911  0.5478
16791TIP3    H171864   1.226   5.004  11.863  2.8536 -0.0041 -0.8746
16791TIP3    H271865   1.259   4.857  11.883  0.1777 -0.4560  0.6591
16792TIP3   OH271866   5.440   2.743   1.679  0.7022  0.0886 -0.6106
16792TIP3    H171867   5.524   2.787   1.672  0.7734 -0.1606 -1.3853
16792TIP3    H271868   5.388   2.779   1.607 -0.3069  1.1936  0.6134
16793TIP3   OH271869   4.776   3.524   1.216 -0.9245 -0.4333  0.6132
16793TIP3    H171870   4.804   3.615   1.206  0.5379 -1.0826 -2.9070
16793TIP3    H271871   4.681   3.528   1.216 -0.8843  1.1105  1.0969
16794TIP3   OH271872   1.360   0.093   5.376  0.3635 -0.4169 -0.3274
16794TIP3    H171873   1.341   0.007   5.415  1.5272 -1.0694 -1.1449
16794TIP3    H271874   1.378   0.074   5.284 -0.9348  0.9205 -0.8931
16795TIP3   OH271875   2.697   3.455  14.361 -0.0544 -0.4080  0.1448
16795TIP3    H171876   2.716   3.490  14.275 -0.5586  1.6991  0.8305
16795TIP3    H271877   2.605   3.430  14.356  0.0096 -0.6075 -0.0326
16796TIP3   OH271878   6.073   1.181   2.865  0.1400 -0.1395  0.0937
16796TIP3    H171879   6.156   1.227   2.875 -0.0583 -0.0150  1.3662
16796TIP3    H271880   6.083   1.102   2.918 -0.2227 -0.5887 -0.4974
16797TIP3   OH271881   4.995   1.009  16.739 -0.3375  0.3379 -0.0802
16797TIP3    H171882   4.937   1.079  16.708  1.1221  1.7415  0.1827
16797TIP3    H271883   5.065   1.006  16.674 -0.0660 -0.4653  0.2412
16798TIP3   OH271884   3.998   1.580  12.115  0.3068 -0.1339  0.4802
16798TIP3    H171885   4.085   1.586  12.154  0.7119  1.5290 -0.5615
16798TIP3    H271886   3.987   1.664  12.069 -2.0795 -0.0663  1.0690
16799TIP3   OH271887   6.760   3.498  16.575  0.0393  0.0954  0.2726
16799TIP3    H171888   6.798   3.472  16.491  0.0787 -1.1656  0.6549
16799TIP3    H271889   6.833   3.535  16.624  0.5798 -1.3439  0.6100
16800TIP3   OH271890   1.222   4.940  10.755  0.0445 -0.2462 -0.1077
16800TIP3    H171891   1.309   4.906  10.773 -0.1697 -1.2702 -0.9064
16800TIP3    H271892   1.230   5.034  10.769  0.8857 -0.4943  1.2682
16801TIP3   OH271893   5.759   1.440  10.735 -0.3879  0.0268  0.1588
16801TIP3    H171894   5.779   1.522  10.779  1.0088 -0.1865 -0.0164
16801TIP3    H271895   5.791   1.453  10.645 -0.4373 -0.5847  0.0486
16802TIP3   OH271896   0.959   4.360   2.718 -0.3128  0.3530 -0.3453
16802TIP3    H171897   0.884   4.412   2.689 -0.9219 -0.5128 -0.3683
16802TIP3    H271898   1.035   4.412   2.693 -0.8055  0.0528 -2.7844
16803TIP3   OH271899   2.327   2.799   0.720 -0.3203 -0.6702 -0.0857
16803TIP3    H171900   2.354   2.891   0.713  0.4864 -0.9726 -1.4503
16803TIP3    H271901   2.235   2.799   0.693 -0.5150 -0.1710  0.5751
16804TIP3   OH271902   3.714   2.595  15.605 -0.0849 -0.1911  0.3387
16804TIP3    H171903   3.784   2.548  15.559 -1.0791  0.1542 -1.6186
16804TIP3    H271904   3.757   2.673  15.639  1.3858 -1.9276  2.8608
16805TIP3   OH271905   4.264   0.178  16.255  0.2416  0.1547 -0.4127
16805TIP3    H171906   4.187   0.202  16.203 -0.4082 -1.6764 -0.3933
16805TIP3    H271907   4.338   0.194  16.197 -0.4420 -1.4694 -1.8313
16806TIP3   OH271908   6.041   0.335  16.018 -0.4645  0.5352  0.3641
16806TIP3    H171909   6.025   0.283  16.097 -1.3698 -0.6535 -0.5599
16806TIP3    H271910   6.135   0.352  16.019  0.1052 -2.1153  0.1768
16807TIP3   OH271911   4.427   2.060   1.853 -0.2767  0.0105 -0.2859
16807TIP3    H171912   4.491   2.058   1.925 -1.9020  1.7907  1.3276
16807TIP3    H271913   4.424   1.970   1.822 -0.2807 -1.1346  2.6537
16808TIP3   OH271914   5.001   3.903  15.035  0.3110 -0.1525 -0.0546
16808TIP3    H171915   5.045   3.834  15.086 -0.4887  0.5057  1.5683
16808TIP3    H271916   5.061   3.977  15.039  1.0499 -0.6275 -1.5836
16809TIP3   OH271917   2.792   1.589   0.431 -0.5860 -0.1393 -0.2950
16809TIP3    H171918   2.751   1.655   0.486 -0.1841  1.3449 -1.7096
16809TIP3    H271919   2.860   1.550   0.487  0.3965  1.9311  0.0352
16810TIP3   OH271920   2.381   3.193   1.949 -0.3938 -0.2273 -0.1368
16810TIP3    H171921   2.287   3.179   1.939 -0.2454 -0.1681 -2.0456
16810TIP3    H271922   2.414   3.112   1.988 -1.3402  0.1387  1.4933
16811TIP3   OH271923   6.655   3.994  13.441  0.0202 -0.1880  0.5641
16811TIP3    H171924   6.700   4.036  13.368 -0.6270 -1.4007 -0.5685
16811TIP3    H271925   6.715   3.925  13.469  0.4079  0.4727  1.4193
16812TIP3   OH271926   4.914   6.075   2.173 -0.1563  0.3687 -0.4877
16812TIP3    H171927   4.863   6.149   2.205  0.3186  0.6444 -0.3563
16812TIP3    H271928   5.000   6.086   2.214  0.1918  0.2418 -1.1710
16813TIP3   OH271929   5.022   0.686  10.223  0.3743  0.4308  0.2609
16813TIP3    H171930   5.071   0.613  10.261  0.4618  0.9182  1.1261
16813TIP3    H271931   4.940   0.688  10.272  0.4433  1.0071  0.3661
16814TIP3   OH271932   6.699   0.158   2.232  0.4026  0.0361  0.6789
16814TIP3    H171933   6.687   0.175   2.138 -2.2016  2.3842  1.3067
16814TIP3    H271934   6.786   0.193   2.252  0.4306  0.7517 -0.6058
16815TIP3   OH271935   0.744   5.661   1.314 -0.8406 -0.3362  0.0544
16815TIP3    H171936   0.766   5.656   1.407  0.3894  0.2242 -0.1907
16815TIP3    H271937   0.752   5.571   1.283  0.2136 -0.2990  0.1848
16816TIP3   OH271938   1.919   5.048  16.883 -0.2742  0.4122 -0.3308
16816TIP3    H171939   1.946   5.064  16.974 -1.0952  0.2990 -0.0575
16816TIP3    H271940   1.962   4.966  16.859 -0.1770  0.3606  0.0110
16817TIP3   OH271941   4.713   3.575  14.287 -0.2374 -0.4917  0.2589
16817TIP3    H171942   4.618   3.564  14.299 -0.2460  0.0673  0.7437
16817TIP3    H271943   4.731   3.662  14.321 -0.2349  1.3209 -3.8207
16818TIP3   OH271944   0.497   6.183  16.982 -0.3314 -0.4444  0.2274
16818TIP3    H171945   0.412   6.215  16.952  0.7759  2.6604  0.0901
16818TIP3    H271946   0.516   6.235  17.060  1.2979 -1.3105  0.4372
16819TIP3   OH271947   0.524   6.387  12.518 -0.4219  0.3159  0.1199
16819TIP3    H171948   0.543   6.354  12.606 -1.0729  0.0560  0.1671
16819TIP3    H271949   0.522   6.482  12.527 -1.7433  0.2480  0.6528
16820TIP3   OH271950   5.496   3.548   5.588 -0.0276 -0.6103 -0.4493
16820TIP3    H171951   5.435   3.622   5.587  0.0084 -0.4810  1.5317
16820TIP3    H271952   5.443   3.475   5.620  0.2648 -1.1195 -1.1114
16821TIP3   OH271953   6.591   4.471  14.579  0.5193 -0.0645  0.1777
16821TIP3    H171954   6.549   4.508  14.656  0.2705 -0.7876  0.4031
16821TIP3    H271955   6.662   4.417  14.614  0.9935  0.3359 -0.1497
16822TIP3   OH271956   2.826   5.736   3.932 -0.4969  0.3139  0.2923
16822TIP3    H171957   2.835   5.643   3.915 -0.4966  0.4782 -0.6450
16822TIP3    H271958   2.797   5.741   4.023 -0.9570 -0.6142  0.2058
16823TIP3   OH271959   3.032   1.127   4.447  0.2501  0.1078  0.2112
16823TIP3    H171960   2.989   1.202   4.486 -1.8410 -1.8599  2.0051
16823TIP3    H271961   2.976   1.102   4.374 -0.0470 -0.6709  0.6868
16824TIP3   OH271962   1.639   0.623  11.358  0.1304  0.2775  0.1995
16824TIP3    H171963   1.651   0.568  11.436 -0.9507  2.9599  2.4255
16824TIP3    H271964   1.724   0.665  11.346 -0.0402  0.8161  0.7815
16825TIP3   OH271965   5.466   6.380  13.281 -0.4246  0.0272 -0.4200
16825TIP3    H171966   5.534   6.316  13.303  0.6711  1.9872  2.3657
16825TIP3    H271967   5.489   6.410  13.193  1.0025 -0.9727 -0.4228
16826TIP3   OH271968   0.726   1.779  16.238 -0.3281  0.1050 -0.5776
16826TIP3    H171969   0.649   1.740  16.197 -1.1780  0.8455  0.2641
16826TIP3    H271970   0.767   1.707  16.286 -2.6694  0.4261  2.1484
16827TIP3   OH271971   4.176   0.698  10.423 -0.5438 -0.1089 -0.3092
16827TIP3    H171972   4.103   0.737  10.374  1.9278  1.3659 -3.0709
16827TIP3    H271973   4.182   0.609  10.390 -1.3575 -0.4085  0.3076
16828TIP3   OH271974   1.490   5.073  10.672  0.1551  0.0501  0.6430
16828TIP3    H171975   1.519   5.012  10.740  0.2656  0.8832  1.3561
16828TIP3    H271976   1.520   5.034  10.591  2.5648  0.4262  1.2811
16829TIP3   OH271977   6.143   0.823  16.926 -0.2926  0.1764  0.1842
16829TIP3    H171978   6.184   0.786  17.004 -0.9305 -0.6916  0.1338
16829TIP3    H271979   6.195   0.788  16.853  2.0687  3.1824  0.2129
16830TIP3   OH271980   6.061   4.175  11.205 -0.3031 -0.1243  0.3496
16830TIP3    H171981   6.069   4.214  11.118 -1.8968  0.7420  0.5612
16830TIP3    H271982   6.151   4.162  11.234  0.2720  2.1639 -0.2737
16831TIP3   OH271983   6.166   5.089   3.143 -0.5772 -0.3340  0.3304
16831TIP3    H171984   6.245   5.131   3.110  0.7097 -2.8259 -0.0217
16831TIP3    H271985   6.114   5.070   3.065 -1.3890  0.9282  0.5280
16832TIP3   OH271986   3.402   1.251  15.802  0.0431 -0.3262  0.4413
16832TIP3    H171987   3.355   1.218  15.725 -1.8928 -0.8794  1.7903
16832TIP3    H271988   3.354   1.215  15.877  0.4514  2.0567  1.9575
16833TIP3   OH271989   5.750   4.286   0.157  0.1718 -0.2828  0.1007
16833TIP3    H171990   5.759   4.242   0.072 -0.6961  3.4437 -2.1303
16833TIP3    H271991   5.829   4.339   0.165 -1.1604  1.7981  0.0262
16834TIP3   OH271992   0.398   5.819   0.793  0.1522 -0.0034  0.6591
16834TIP3    H171993   0.327   5.811   0.856 -0.0803  0.5294  0.4708
16834TIP3    H271994   0.368   5.886   0.731  0.4511 -0.3922  0.0874
16835TIP3   OH271995   6.268   3.418  11.530  0.9443 -0.0389 -0.2047
16835TIP3    H171996   6.207   3.413  11.604  1.5942 -0.3981  0.3140
16835TIP3    H271997   6.239   3.495  11.481  0.1285 -0.1557  0.0834
16836TIP3   OH271998   5.912   6.575   5.086 -0.3761  0.2915  0.0123
16836TIP3    H171999   5.880   6.594   5.174  1.1218 -0.6397  0.7917
16836TIP3    H272000   6.006   6.593   5.089 -0.3383  0.4760 -1.4690
16837TIP3   OH272001   5.286   0.239   0.251  0.7889 -0.0539 -0.0176
16837TIP3    H172002   5.354   0.295   0.214  0.9843  0.1445  0.6389
16837TIP3    H272003   5.334   0.164   0.286  0.6206 -0.1667 -0.0303
16838TIP3   OH272004   4.271   2.199  12.765 -0.2364 -0.2640  0.3993
16838TIP3    H172005   4.228   2.260  12.825  1.9982  1.6317  0.1835
16838TIP3    H272006   4.303   2.129  12.821  0.1015  0.4789  1.1567
16839TIP3   OH272007   5.847   6.739  13.958 -0.1368  0.3768  0.0416
16839TIP3    H172008   5.762   6.730  13.914 -0.6123  1.3782  0.7196
16839TIP3    H272009   5.889   6.654  13.946 -0.8411  0.1639 -1.1135
16840TIP3   OH272010   0.151   3.784   4.233  0.4164  0.0446 -0.0740
16840TIP3    H172011   0.199   3.714   4.188 -0.0518 -0.7606  0.6499
16840TIP3    H272012   0.168   3.862   4.180  1.9261 -0.3610 -0.2556
16841TIP3   OH272013   2.390   2.681  16.865  0.2980 -0.1203 -0.2530
16841TIP3    H172014   2.418   2.590  16.856  1.4113  0.2790 -1.0541
16841TIP3    H272015   2.428   2.710  16.948  0.9065 -0.0723 -0.5380
16842TIP3   OH272016   0.810   6.688  12.511 -0.3132 -0.0862  0.0930
16842TIP3    H172017   0.887   6.646  12.550 -0.9496 -1.2820  0.1050
16842TIP3    H272018   0.747   6.692  12.582 -0.5848  0.0388 -0.1554
16843TIP3   OH272019   2.339   3.341   0.881 -0.1212  0.0470  0.6490
16843TIP3    H172020   2.329   3.428   0.920  1.1743  0.6818 -0.3393
16843TIP3    H272021   2.397   3.356   0.806 -1.2160 -1.3907 -0.5416
16844TIP3   OH272022   5.298   5.806   4.627  0.0711 -0.5523 -0.0162
16844TIP3    H172023   5.288   5.776   4.537 -1.1361  0.0713 -0.1174
16844TIP3    H272024   5.304   5.901   4.620 -1.3163 -0.3955  0.6273
16845TIP3   OH272025   3.783   6.502  15.179  0.2977  0.6871  0.5910
16845TIP3    H172026   3.864   6.453  15.193 -0.5901 -0.9760  0.0710
16845TIP3    H272027   3.767   6.546  15.263  0.2801 -1.2223  1.6322
16846TIP3   OH272028   4.558   4.590  15.155  0.2684 -0.1410  0.0015
16846TIP3    H172029   4.617   4.600  15.080 -1.0000  1.7192 -0.8252
16846TIP3    H272030   4.490   4.530  15.125 -0.9006  1.5244 -0.8454
16847TIP3   OH272031   4.710   6.115  13.221 -0.0545 -0.3861  0.3391
16847TIP3    H172032   4.751   6.191  13.262 -0.0767 -0.0850 -0.1751
16847TIP3    H272033   4.778   6.077  13.166  0.0382 -0.9084  0.8138
16848TIP3   OH272034   1.906   3.104  15.439 -0.3862  0.0030  0.1020
16848TIP3    H172035   1.836   3.167  15.425  0.4848  1.3629  1.4951
16848TIP3    H272036   1.906   3.088  15.533 -0.6941 -2.2626 -0.2242
16849TIP3   OH272037   2.242   2.219  16.036  0.3916  0.3560 -0.4162
16849TIP3    H172038   2.270   2.260  15.955 -1.3287 -0.8829 -1.7072
16849TIP3    H272039   2.187   2.145  16.009  0.6895 -0.8157  1.8429
16850TIP3   OH272040   3.104   4.921   6.071  0.2568  0.1456 -0.1460
16850TIP3    H172041   3.130   4.841   6.026 -0.8430 -0.7024  0.6781
16850TIP3    H272042   3.184   4.953   6.111  0.8395 -0.1738 -1.0279
16851TIP3   OH272043   3.051   2.767   5.307  0.1143  0.3536 -0.2472
16851TIP3    H172044   3.116   2.697   5.316 -0.9820 -0.6245  0.3030
16851TIP3    H272045   2.990   2.753   5.379 -1.4240  0.4646 -1.4720
16852TIP3   OH272046   0.389   4.269  16.025  0.3346  0.0054 -0.2937
16852TIP3    H172047   0.404   4.292  15.933 -0.5510  1.1321 -0.1723
16852TIP3    H272048   0.294   4.263  16.033  0.2812  1.6828  0.9327
16853TIP3   OH272049   5.045   1.384  15.371  0.2943  0.2098 -0.2161
16853TIP3    H172050   5.031   1.290  15.385  1.5552  0.1588  0.8492
16853TIP3    H272051   4.983   1.407  15.301 -2.8799 -0.5947  2.0666
16854TIP3   OH272052   1.701   1.965   6.172  0.3446 -0.0876  0.7136
16854TIP3    H172053   1.695   2.008   6.087  1.4695 -0.8202  0.2412
16854TIP3    H272054   1.614   1.928   6.186 -0.0183  0.5281  0.1581
16855TIP3   OH272055   4.905   2.659   6.627  0.1430 -0.1599  0.1837
16855TIP3    H172056   4.903   2.702   6.542  1.6059  1.0759  0.7182
16855TIP3    H272057   4.909   2.565   6.607  1.3190  0.1428 -1.1530
16856TIP3   OH272058   2.758   2.982  13.633  0.4308 -0.0056  0.0588
16856TIP3    H172059   2.824   2.928  13.677 -1.0635 -1.2950  0.7992
16856TIP3    H272060   2.809   3.037  13.573  2.1007 -1.6808 -0.1704
16857TIP3   OH272061   6.104   4.433  10.967 -0.0530  0.3590 -1.0297
16857TIP3    H172062   6.150   4.349  10.960  0.8085  0.5588  1.2698
16857TIP3    H272063   6.013   4.413  10.944  0.7052 -0.4758 -3.6693
16858TIP3   OH272064   4.827   4.161  16.413 -0.0748  0.1065  0.6750
16858TIP3    H172065   4.807   4.121  16.328 -0.4850  0.3789  0.6383
16858TIP3    H272066   4.799   4.253  16.403  1.0236  0.4571  0.6947
16859TIP3   OH272067   0.316   0.951  12.344  0.0492  0.0354 -0.0319
16859TIP3    H172068   0.287   0.899  12.419  0.4375  0.3746  0.3523
16859TIP3    H272069   0.254   1.024  12.340 -1.1907 -1.0107 -1.2431
16860TIP3   OH272070   3.311   2.844  11.399  0.1105 -0.6187 -0.4381
16860TIP3    H172071   3.249   2.822  11.329 -0.5889  0.9176 -0.3492
16860TIP3    H272072   3.335   2.935  11.382 -0.6208  0.0404  1.6746
16861TIP3   OH272073   5.650   1.685  13.159  0.5909  0.1440 -0.5373
16861TIP3    H172074   5.594   1.625  13.110  2.1679 -1.7986 -0.0874
16861TIP3    H272075   5.730   1.691  13.106  1.6798 -0.6821  0.9514
16862TIP3   OH272076   0.139   5.358  13.246  0.2041 -0.0028 -0.0111
16862TIP3    H172077   0.091   5.287  13.289 -1.1421  1.6832  1.4344
16862TIP3    H272078   0.088   5.378  13.168 -0.2512  0.3449  0.3711
16863TIP3   OH272079   5.530   6.657  15.599  0.3216 -0.2288 -0.3954
16863TIP3    H172080   5.502   6.736  15.553 -0.6038 -1.2457 -1.6804
16863TIP3    H272081   5.451   6.625  15.643  1.2855  0.9691  2.4377
16864TIP3   OH272082   1.304   1.155   0.148 -0.0056  1.0673  0.2487
16864TIP3    H172083   1.214   1.123   0.145 -0.1846  1.5738  0.0410
16864TIP3    H272084   1.310   1.215   0.073  0.4306  1.2258  0.4095
16865TIP3   OH272085   0.759   2.192  13.102  0.0102  0.4354 -0.2432
16865TIP3    H172086   0.709   2.115  13.132 -0.4834  1.5385  1.9503
16865TIP3    H272087   0.719   2.215  13.018 -2.4779  0.5827  0.8893
16866TIP3   OH272088   1.591   3.521  12.574 -0.9076  0.1280 -0.2098
16866TIP3    H172089   1.679   3.547  12.547 -0.2185 -0.5460  1.2585
16866TIP3    H272090   1.578   3.564  12.659 -1.1015 -1.5056  0.6314
16867TIP3   OH272091   1.876   0.847   1.660  0.3523  0.3104  0.5856
16867TIP3    H172092   1.851   0.826   1.570  1.5376  0.1856  0.2690
16867TIP3    H272093   1.836   0.932   1.677  2.5484  1.8019 -1.1400
16868TIP3   OH272094   4.179   6.293   3.754 -0.8530 -0.4845  0.2525
16868TIP3    H172095   4.248   6.324   3.812 -1.4077  1.0754  0.1347
16868TIP3    H272096   4.225   6.257   3.679 -0.1284  0.8688  0.0072
16869TIP3   OH272097   0.170   6.743   2.272  0.5236 -0.4552  0.1733
16869TIP3    H172098   0.179   6.791   2.190  0.4829  0.5186  0.7175
16869TIP3    H272099   0.167   6.651   2.246  1.1229 -0.1967 -0.8577
16870TIP3   OH272100   3.311   0.593   6.137 -0.0296 -0.3338  0.0902
16870TIP3    H172101   3.268   0.675   6.110 -2.1351 -1.3378  0.1566
16870TIP3    H272102   3.285   0.582   6.229  1.2820 -0.4731  0.4657
16871TIP3   OH272103   3.222   4.126  13.181 -0.4360 -0.7900 -0.0884
16871TIP3    H172104   3.175   4.157  13.258  1.3719  0.8659  0.4183
16871TIP3    H272105   3.304   4.090  13.216 -0.9100 -2.9576 -1.0068
16872TIP3   OH272106   6.382   0.372   3.270  0.1664 -0.2026 -0.8300
16872TIP3    H172107   6.366   0.289   3.227 -1.7350 -0.6280  0.5560
16872TIP3    H272108   6.302   0.423   3.255  0.9091  1.0021 -0.8411
16873TIP3   OH272109   0.135   1.356  13.981 -0.9166  0.1597 -0.1336
16873TIP3    H172110   0.097   1.341  13.894 -0.1128  0.3428 -0.5306
16873TIP3    H272111   0.226   1.378  13.963 -0.3650 -1.1969  0.8309
16874TIP3   OH272112   2.367   5.099  16.313  0.3798  0.6069 -0.1351
16874TIP3    H172113   2.319   5.145  16.381 -0.1117  0.3662 -0.3142
16874TIP3    H272114   2.300   5.054  16.262  0.8712 -0.8301  0.4174
16875TIP3   OH272115   2.729   3.680  11.740  0.3916  0.2169 -0.7400
16875TIP3    H172116   2.748   3.589  11.718  1.8331  0.3465 -0.1491
16875TIP3    H272117   2.660   3.675  11.806 -0.4071 -0.3722 -1.5864
16876TIP3   OH272118   1.112   0.508  14.583 -0.4434  0.3107 -0.4445
16876TIP3    H172119   1.049   0.535  14.650  1.0851  0.6745  0.8897
16876TIP3    H272120   1.174   0.452  14.630 -1.8059 -3.2734 -2.4775
16877TIP3   OH272121   1.147   2.032  15.471  0.0822 -0.3232 -0.1299
16877TIP3    H172122   1.091   2.017  15.547  0.5478 -1.1307  0.0670
16877TIP3    H272123   1.153   1.946  15.429 -1.8057  0.4749 -2.2547
16878TIP3   OH272124   0.179   0.841  14.185 -0.0489  0.8520  0.3706
16878TIP3    H172125   0.151   0.816  14.273  1.8561  1.3683  1.1631
16878TIP3    H272126   0.107   0.893  14.151 -0.6795  0.9242  1.7520
16879TIP3   OH272127   3.314   4.957  16.631  0.6168 -0.2021 -0.7909
16879TIP3    H172128   3.285   4.866  16.638  0.8838 -0.3371 -1.3568
16879TIP3    H272129   3.233   5.006  16.615  0.2050 -0.0729  1.3760
16880TIP3   OH272130   3.451   2.546   2.001 -0.4352 -0.2160 -0.2005
16880TIP3    H172131   3.456   2.472   2.061  1.0650  0.2234  0.2585
16880TIP3    H272132   3.385   2.604   2.039  0.2563 -0.1063  0.8698
16881TIP3   OH272133   2.549   0.709  15.566  0.3243 -0.1319  0.5236
16881TIP3    H172134   2.513   0.771  15.629  3.2811  1.9729  0.3820
16881TIP3    H272135   2.620   0.666  15.613  1.5002  0.2512 -0.8293
16882TIP3   OH272136   4.681   2.767  14.534 -0.3865  0.0328  0.2411
16882TIP3    H172137   4.646   2.734  14.452 -0.6714 -0.8997  0.7234
16882TIP3    H272138   4.635   2.717  14.602  1.1750 -0.5581  0.9181
16883TIP3   OH272139   3.809   0.973   4.446 -0.6572 -0.1737  0.4030
16883TIP3    H172140   3.809   1.068   4.458  1.0864  0.4906 -3.5295
16883TIP3    H272141   3.899   0.946   4.462 -1.3306 -1.4509  2.4909
16884TIP3   OH272142   4.756   4.181  14.589 -0.0558  0.0050 -0.0044
16884TIP3    H172143   4.705   4.236  14.649  0.2220 -0.6094  0.8045
16884TIP3    H272144   4.724   4.092  14.605  1.6112 -0.4715  0.9087
16885TIP3   OH272145   6.285   5.977   4.031  0.1817 -0.2971 -0.2738
16885TIP3    H172146   6.355   5.929   3.986  1.2777  0.3761  0.6476
16885TIP3    H272147   6.331   6.029   4.097 -1.0940  0.9673 -0.3334
16886TIP3   OH272148   0.719   4.622   1.444  0.1444 -0.1442  0.3654
16886TIP3    H172149   0.638   4.575   1.425 -0.3342  0.5601  0.6055
16886TIP3    H272150   0.729   4.684   1.372 -0.0036  0.3693  0.7743
16887TIP3   OH272151   5.720   6.117  12.032 -0.3511 -0.6081  0.3229
16887TIP3    H172152   5.639   6.164  12.010 -0.1427 -0.6146 -0.5020
16887TIP3    H272153   5.777   6.183  12.071 -0.7862 -0.6239  0.9972
16888TIP3   OH272154   2.218   1.806   2.598 -0.6089  0.3848 -0.1427
16888TIP3    H172155   2.275   1.865   2.648 -0.0927  0.8823 -1.3034
16888TIP3    H272156   2.200   1.852   2.516 -2.7481  0.2667  0.1870
16889TIP3   OH272157   5.087   3.292  14.784  0.9883  0.1754  0.7200
16889TIP3    H172158   5.115   3.310  14.694 -1.8594  0.7236 -0.1382
16889TIP3    H272159   5.084   3.196  14.789  1.7843  0.1283  0.4611
16890TIP3   OH272160   0.010   6.748   3.921  0.2257 -0.2749  0.4112
16890TIP3    H172161  -0.005   6.841   3.942 -0.6047 -0.2244 -0.3265
16890TIP3    H272162   0.077   6.720   3.983 -0.6981  0.3868  1.7656
16891TIP3   OH272163   6.511   1.819   1.004 -0.3187 -0.2686 -0.0010
16891TIP3    H172164   6.561   1.849   1.080 -1.1827  2.9788 -0.5548
16891TIP3    H272165   6.565   1.751   0.965  3.0829  2.0357  0.2322
16892TIP3   OH272166   4.395   0.075   5.204 -0.1623 -0.1095 -0.2077
16892TIP3    H172167   4.309   0.115   5.213  0.6999  1.4757  1.4124
16892TIP3    H272168   4.425   0.104   5.118 -0.5895  0.6657 -0.1100
16893TIP3   OH272169   4.889   1.581   0.676  0.8283  0.6222 -0.3313
16893TIP3    H172170   4.948   1.600   0.603  0.8694  1.5856 -0.0688
16893TIP3    H272171   4.882   1.486   0.677 -1.5846  0.5925 -3.5018
16894TIP3   OH272172   2.703   3.060  17.028 -0.3013  0.1906 -0.0497
16894TIP3    H172173   2.705   2.986  16.968 -0.3280  0.1745 -0.0301
16894TIP3    H272174   2.794   3.089  17.034 -0.1076 -0.5983  0.8958
16895TIP3   OH272175   4.191   3.844   2.884  0.6633  0.6457  0.1135
16895TIP3    H172176   4.189   3.750   2.903 -1.0049  0.4110 -1.0514
16895TIP3    H272177   4.284   3.864   2.875  1.0301 -0.9755 -0.0083
16896TIP3   OH272178   1.825   3.459   1.537  1.2565 -0.0777  0.3888
16896TIP3    H172179   1.737   3.432   1.512  1.2074  0.4496 -0.0229
16896TIP3    H272180   1.866   3.379   1.571  1.0201 -0.6017 -0.5264
16897TIP3   OH272181   5.324   5.742   5.071  0.0881  0.9859  0.0620
16897TIP3    H172182   5.406   5.731   5.022  0.5516 -2.2056  1.2996
16897TIP3    H272183   5.347   5.801   5.143  1.7181 -0.6962  1.0197
16898TIP3   OH272184   4.197   4.020   4.506 -0.5142  0.3245  0.3448
16898TIP3    H172185   4.199   4.115   4.496 -0.2025  0.5112  1.9258
16898TIP3    H272186   4.104   3.999   4.515 -0.9216  0.0378 -3.2143
16899TIP3   OH272187   6.698   3.947   4.896  0.1854  0.3435  0.0787
16899TIP3    H172188   6.749   4.009   4.844 -0.9131  1.7232  0.5840
16899TIP3    H272189   6.613   3.944   4.854  0.4227 -1.4293 -0.3661
16900TIP3   OH272190   0.156   3.813  11.284  0.1006  0.1081  0.4131
16900TIP3    H172191   0.214   3.889  11.291 -0.3994  0.4526  0.8088
16900TIP3    H272192   0.183   3.756  11.356  0.1367  0.1354  0.4215
16901TIP3   OH272193   0.269   3.588  15.912  0.1670  0.5065  0.6216
16901TIP3    H172194   0.330   3.541  15.855 -0.3575 -0.6174  0.9672
16901TIP3    H272195   0.273   3.542  15.995 -0.7618  0.7443  0.8068
16902TIP3   OH272196   2.288   6.098   2.112  0.6792 -0.0590  0.1035
16902TIP3    H172197   2.258   6.172   2.060 -0.9687  1.0002  2.3936
16902TIP3    H272198   2.374   6.126   2.144  0.0476  0.9493  1.0021
16903TIP3   OH272199   2.362   1.724   3.053  0.0563  1.0446  0.1972
16903TIP3    H172200   2.330   1.680   2.974 -1.2453  1.8723  0.2367
16903TIP3    H272201   2.429   1.665   3.088 -0.9435 -0.4313 -0.2780
16904TIP3   OH272202   5.504   3.653   1.309  0.0269 -0.3974 -0.4081
16904TIP3    H172203   5.569   3.603   1.360 -0.3644 -1.0409 -0.5330
16904TIP3    H272204   5.466   3.589   1.249 -1.5318 -0.3003  0.4304
16905TIP3   OH272205   5.335   5.482   3.597  0.1159 -1.0786 -0.6292
16905TIP3    H172206   5.334   5.390   3.622  1.5386 -0.9893 -0.1491
16905TIP3    H272207   5.317   5.529   3.678 -2.3284 -0.9316 -1.1810
16906TIP3   OH272208   6.259   4.064  13.827  0.3727 -0.1291 -0.6090
16906TIP3    H172209   6.201   4.115  13.883 -0.2970 -0.7283 -0.7382
16906TIP3    H272210   6.222   4.072  13.739  2.7283  2.7635 -1.5020
16907TIP3   OH272211   2.596   5.563   1.314  0.5032  0.2262  0.1501
16907TIP3    H172212   2.655   5.583   1.242  0.0123 -1.1932 -0.6813
16907TIP3    H272213   2.545   5.488   1.284 -1.2141  0.9308  1.1213
16908TIP3   OH272214   4.744   3.398   6.841 -0.3587 -0.0873  0.0930
16908TIP3    H172215   4.816   3.443   6.884 -2.3036  1.5978  1.7880
16908TIP3    H272216   4.734   3.443   6.757  0.3349 -0.0984  0.0048
16909TIP3   OH272217   4.699   5.784   1.557  0.0559 -0.0654  0.1814
16909TIP3    H172218   4.768   5.724   1.587  1.3159  1.6680  0.8868
16909TIP3    H272219   4.620   5.730   1.556  1.4314 -2.1906 -0.9141
16910TIP3   OH272220   6.657   4.436   3.100  0.1560 -0.3609 -0.7821
16910TIP3    H172221   6.606   4.428   3.180 -0.8471  0.4304 -1.3155
16910TIP3    H272222   6.610   4.382   3.036 -0.7706  1.3284 -1.6062
16911TIP3   OH272223   4.651   6.306  10.455  0.3365 -0.0975 -0.3813
16911TIP3    H172224   4.658   6.215  10.426 -1.4201 -0.3939  0.0055
16911TIP3    H272225   4.720   6.351  10.408 -0.5017 -1.1254 -2.7782
16912TIP3   OH272226   1.769   3.947  16.433  0.2909  0.1725  0.1216
16912TIP3    H172227   1.803   4.018  16.488 -0.6543 -0.4200  1.5255
16912TIP3    H272228   1.832   3.876  16.444  1.6206  0.9669 -1.8422
16913TIP3   OH272229   4.433   1.220   0.287  0.6731  0.0431 -0.3370
16913TIP3    H172230   4.505   1.197   0.229  0.7858  0.0810 -0.2107
16913TIP3    H272231   4.377   1.277   0.234 -0.1660 -1.3612 -1.0279
16914TIP3   OH272232   6.728   2.668  15.373 -0.0482 -0.6865 -0.1235
16914TIP3    H172233   6.700   2.754  15.405 -0.9507 -1.0096 -0.0173
16914TIP3    H272234   6.807   2.649  15.422 -0.8278 -0.7078  1.1844
16915TIP3   OH272235   4.475   4.420  12.107  0.4142 -0.2008 -0.8153
16915TIP3    H172236   4.543   4.398  12.171  0.4088 -1.4402 -1.2068
16915TIP3    H272237   4.469   4.515  12.110  1.1898 -0.1630  0.2285
16916TIP3   OH272238   6.712   1.259   0.602 -0.4231  0.5605  0.0730
16916TIP3    H172239   6.659   1.198   0.551  0.0752 -1.9619  2.3274
16916TIP3    H272240   6.800   1.253   0.564 -0.2079 -0.7764  0.7046
16917TIP3   OH272241   2.044   1.264   3.319  0.2805 -0.1399  0.2384
16917TIP3    H172242   2.082   1.182   3.290 -0.0860  0.6370 -2.8265
16917TIP3    H272243   2.117   1.326   3.319 -0.1069  0.3496 -1.2509
16918TIP3   OH272244   5.121   2.418  15.298 -0.2950 -0.6290 -0.3064
16918TIP3    H172245   5.059   2.432  15.226  0.5978  2.4101 -0.6319
16918TIP3    H272246   5.133   2.505  15.336  1.7164 -1.5987  1.4750
16919TIP3   OH272247   6.074   5.276  14.719  0.0195 -0.7941  0.0270
16919TIP3    H172248   6.115   5.273  14.632  0.6618  0.3548  0.2674
16919TIP3    H272249   6.067   5.369  14.738 -0.1668 -1.0360  1.1920
16920TIP3   OH272250   3.654   5.761   2.182 -0.6697  0.6338 -0.4233
16920TIP3    H172251   3.612   5.735   2.264  0.5581 -0.4578 -0.0971
16920TIP3    H272252   3.696   5.681   2.150  0.3088  1.4421 -1.2310
16921TIP3   OH272253   5.412   6.428  15.366  0.3912  0.8129 -0.3406
16921TIP3    H172254   5.326   6.464  15.342  0.1926  0.4370 -0.1900
16921TIP3    H272255   5.401   6.395  15.455  0.2661 -0.5794 -0.8408
16922TIP3   OH272256   5.857   0.199   4.223 -0.0082 -0.0235  0.8432
16922TIP3    H172257   5.942   0.198   4.267 -0.3883  0.4090  1.5987
16922TIP3    H272258   5.794   0.173   4.290 -0.5246  0.0065  0.3819
16923TIP3   OH272259   0.157   4.491  13.575 -0.3212  0.3735  0.2403
16923TIP3    H172260   0.204   4.408  13.570 -2.2075 -0.7205 -0.6485
16923TIP3    H272261   0.099   4.489  13.499 -1.5447  1.7908  1.0979
16924TIP3   OH272262   2.320   2.376  10.837 -0.0015  0.4702 -0.4747
16924TIP3    H172263   2.321   2.363  10.742 -2.0394  1.0330 -0.6183
16924TIP3    H272264   2.389   2.441  10.853  0.4085  0.3137 -1.5677
16925TIP3   OH272265   4.792   2.016  11.149  0.2333  0.1639 -0.7310
16925TIP3    H172266   4.744   2.097  11.164 -0.6001 -0.3538 -0.5730
16925TIP3    H272267   4.741   1.969  11.083  0.6379 -0.2979 -0.7237
16926TIP3   OH272268   3.459   0.950  15.343  0.2896 -0.7666  0.3571
16926TIP3    H172269   3.506   0.940  15.426 -1.0596  1.4553  1.4969
16926TIP3    H272270   3.503   0.889  15.283  0.7506 -3.1541  2.8896
16927TIP3   OH272271   0.503   0.218   2.708  0.1835  0.0689 -0.0220
16927TIP3    H172272   0.547   0.209   2.792  1.4870 -0.0793 -0.6926
16927TIP3    H272273   0.410   0.214   2.729  0.4143  1.7679  1.6097
16928TIP3   OH272274   0.579   2.412   4.867  0.0758 -0.2212 -0.0657
16928TIP3    H172275   0.670   2.415   4.840  0.8590 -0.9516  2.2650
16928TIP3    H272276   0.535   2.363   4.797  1.6610 -0.7931 -0.7112
16929TIP3   OH272277   6.564   0.680  16.171 -0.2227 -0.6382 -0.2162
16929TIP3    H172278   6.479   0.679  16.213 -1.2967  0.7393 -2.1724
16929TIP3    H272279   6.624   0.712  16.238 -1.5784  0.0999  0.6781
16930TIP3   OH272280   1.791   1.680  10.915  0.2582  0.6135  0.0797
16930TIP3    H172281   1.735   1.684  10.837 -1.6576  1.2805  1.4257
16930TIP3    H272282   1.768   1.597  10.957 -0.7195  1.4686  1.3108
16931TIP3   OH272283   5.813   5.455  13.021  0.4999  0.4190  0.2237
16931TIP3    H172284   5.752   5.458  13.094 -0.3142 -3.2496 -0.1123
16931TIP3    H272285   5.861   5.373  13.033  3.1757  1.6409 -1.2624
16932TIP3   OH272286   5.747   2.747  11.363  0.0286  0.0150 -0.2610
16932TIP3    H172287   5.683   2.748  11.434  1.4134  0.5619  1.0395
16932TIP3    H272288   5.766   2.654  11.349 -0.2343 -0.0940  0.0973
16933TIP3   OH272289   1.865   2.862   3.603  0.8400  0.1410 -0.1690
16933TIP3    H172290   1.841   2.771   3.588 -0.0254 -0.0678  2.0607
16933TIP3    H272291   1.807   2.912   3.545  0.2985 -0.6628 -0.3374
16934TIP3   OH272292   0.675   4.171  17.029  0.2711 -0.2664 -0.5355
16934TIP3    H172293   0.761   4.158  17.069  0.0708  0.3453  0.1063
16934TIP3    H272294   0.631   4.088  17.040  0.9187 -0.7185 -1.2288
16935TIP3   OH272295   1.668   2.195   6.437 -0.9216  0.7052 -0.0745
16935TIP3    H172296   1.705   2.109   6.458  2.7584  1.5989 -1.9549
16935TIP3    H272297   1.593   2.176   6.382  0.4854 -1.4024 -1.4241
16936TIP3   OH272298   5.001   1.770   5.810 -0.3131 -0.5267 -0.0190
16936TIP3    H172299   4.935   1.713   5.770 -0.5372 -1.2594  1.3314
16936TIP3    H272300   5.081   1.719   5.808  0.0783  0.1115 -1.0729
16937TIP3   OH272301   5.782   4.696   5.178  0.5794  0.4968  0.3897
16937TIP3    H172302   5.692   4.663   5.184  1.0663 -1.3716 -1.4049
16937TIP3    H272303   5.780   4.760   5.107  0.7602 -0.0065 -0.0788
16938TIP3   OH272304   4.763   5.609  14.654 -0.1516 -0.0527  0.0952
16938TIP3    H172305   4.845   5.563  14.639 -0.7596 -1.1634  0.0567
16938TIP3    H272306   4.700   5.540  14.673 -1.1226  0.7623 -0.0698
16939TIP3   OH272307   5.075   3.607   1.150 -0.3992 -0.0238 -0.6444
16939TIP3    H172308   5.097   3.676   1.086 -1.3994 -0.4104 -1.4272
16939TIP3    H272309   5.081   3.526   1.101 -2.9700 -0.2009 -0.7815
16940TIP3   OH272310   2.404   6.787   6.473 -0.8270  0.1722 -0.5385
16940TIP3    H172311   2.404   6.783   6.569  0.3466  0.1019 -0.5312
16940TIP3    H272312   2.336   6.725   6.446 -2.1328  1.2005  0.2701
16941TIP3   OH272313   6.727   4.542  15.210  0.5023  0.4940 -0.7016
16941TIP3    H172314   6.807   4.495  15.236  0.7540  0.8091 -0.8928
16941TIP3    H272315   6.661   4.473  15.200  0.7321  0.2361 -0.4752
16942TIP3   OH272316   1.194   5.980   4.694 -0.0578  0.2796  0.6207
16942TIP3    H172317   1.127   5.913   4.706  1.4446 -1.3935  0.1240
16942TIP3    H272318   1.214   5.977   4.600  0.2003  1.2828  0.6297
16943TIP3   OH272319   1.376   0.422   4.502  0.3703 -0.3472 -0.4379
16943TIP3    H172320   1.359   0.515   4.519 -0.2403 -0.4807 -0.2722
16943TIP3    H272321   1.442   0.422   4.433 -0.5681  0.2171 -1.3556
16944TIP3   OH272322   5.975   6.200  11.076 -0.3217  0.4783 -0.5169
16944TIP3    H172323   5.920   6.122  11.068 -1.0421  0.8231  0.8075
16944TIP3    H272324   6.031   6.183  11.152 -1.1260  1.6093  0.3591
16945TIP3   OH272325   2.306   5.690  16.492  0.4342 -0.8346  0.4428
16945TIP3    H172326   2.258   5.666  16.413  0.1240  0.4734  0.2222
16945TIP3    H272327   2.246   5.670  16.564 -1.0528  2.0306  0.1121
16946TIP3   OH272328   6.763   3.685   5.552 -0.8494  0.0736 -0.3037
16946TIP3    H172329   6.708   3.679   5.474 -2.8572 -0.3804  1.0778
16946TIP3    H272330   6.751   3.775   5.583  0.4037  0.4364 -0.7819
16947TIP3   OH272331   6.223   6.763   1.785  0.5614 -0.4402  0.4170
16947TIP3    H172332   6.261   6.843   1.822  0.5707 -0.1988 -0.1046
16947TIP3    H272333   6.194   6.713   1.861  0.9293 -0.1283  0.7704
16948TIP3   OH272334   0.022   4.121  12.266  0.4353 -0.1810  0.4199
16948TIP3    H172335   0.017   4.032  12.230 -0.3259 -0.5838  1.5009
16948TIP3    H272336  -0.068   4.143  12.288  0.7163  0.5981  0.8030
16949TIP3   OH272337   0.623   5.561   5.114 -0.4232  0.4327 -0.1024
16949TIP3    H172338   0.534   5.527   5.115 -0.3709  0.1792 -1.4651
16949TIP3    H272339   0.678   5.486   5.137 -0.5106  0.3677 -0.1062
16950TIP3   OH272340   5.076   5.426   1.235 -0.3293 -0.0493  0.5150
16950TIP3    H172341   5.091   5.367   1.309 -0.6748 -1.7606 -0.7091
16950TIP3    H272342   5.099   5.513   1.268  3.2557 -1.2270  1.4953
16951TIP3   OH272343   1.019   2.122   0.754 -0.7542  0.1555  0.2029
16951TIP3    H172344   1.103   2.096   0.717 -0.2613  1.5487  0.2771
16951TIP3    H272345   0.954   2.081   0.697 -0.0051  1.3760 -1.6014
16952TIP3   OH272346   3.416   1.946   0.142  0.4053 -0.0509  0.3393
16952TIP3    H172347   3.446   2.028   0.182 -0.7633  0.3300  0.4523
16952TIP3    H272348   3.375   1.897   0.213  1.3025 -0.8614  0.3287
16953TIP3   OH272349   2.548   4.583   4.256  0.3126  0.5747 -0.5935
16953TIP3    H172350   2.606   4.516   4.292 -1.3279 -0.3699  0.4163
16953TIP3    H272351   2.486   4.602   4.326 -1.3214  0.6927 -1.9842
16954TIP3   OH272352   5.324   5.288   5.151  0.3618  0.3677  0.0579
16954TIP3    H172353   5.313   5.329   5.066  0.2494 -0.7188 -0.4640
16954TIP3    H272354   5.247   5.316   5.201 -0.5640 -0.5104 -0.8316
16955TIP3   OH272355   1.448   2.495   3.941  0.1415  0.0409  0.0215
16955TIP3    H172356   1.437   2.586   3.970 -0.6944 -0.3414  0.9743
16955TIP3    H272357   1.368   2.476   3.892 -0.0139 -0.4054  0.4438
16956TIP3   OH272358   0.138   0.297  16.888 -0.5848  0.4393 -0.1256
16956TIP3    H172359   0.199   0.247  16.941 -1.3906  0.7985  1.1876
16956TIP3    H272360   0.061   0.307  16.943 -0.9516  1.9638 -0.8630
16957TIP3   OH272361   3.293   1.837  16.138 -0.0622  0.3809 -0.4004
16957TIP3    H172362   3.245   1.884  16.207  0.6297 -0.3543  0.6031
16957TIP3    H272363   3.347   1.905  16.096 -1.4284  1.0849 -1.1054
16958TIP3   OH272364   0.938   1.344  14.124  0.0963  0.3125 -0.7632
16958TIP3    H172365   0.948   1.315  14.215 -0.9304 -2.2386 -1.3676
16958TIP3    H272366   0.929   1.439  14.130  0.7587  0.2874  1.7246
16959TIP3   OH272367   3.116   3.469   2.520 -0.5889  0.4454  0.6228
16959TIP3    H172368   3.117   3.552   2.473  1.5833 -0.3425 -0.8654
16959TIP3    H272369   3.199   3.427   2.498 -0.6486 -1.2011  3.0441
16960TIP3   OH272370   1.280   6.701   5.535  0.4146 -0.5803  0.0850
16960TIP3    H172371   1.196   6.691   5.491  0.6208 -0.2970 -0.3750
16960TIP3    H272372   1.277   6.637   5.606  0.0843 -1.0518 -0.3475
16961TIP3   OH272373   2.416   1.634   3.389 -0.9777  0.1222  0.4874
16961TIP3    H172374   2.473   1.705   3.360 -0.4822 -1.2195 -2.2155
16961TIP3    H272375   2.429   1.630   3.484  2.7696  0.5023  0.1772
16962TIP3   OH272376   1.901   4.812   0.463  0.0607 -0.1323  0.0580
16962TIP3    H172377   1.885   4.863   0.543 -2.3453 -0.6606  0.0051
16962TIP3    H272378   1.847   4.855   0.397  0.9006 -0.5759 -0.9362
16963TIP3   OH272379   6.850   0.099  12.023  0.4455  0.7286 -0.9863
16963TIP3    H172380   6.822   0.187  11.997  0.5342  0.9221 -0.4232
16963TIP3    H272381   6.886   0.061  11.943  0.4999  1.2405 -1.2068
16964TIP3   OH272382   6.686   5.680  14.416  0.0970  0.0941 -0.7602
16964TIP3    H172383   6.655   5.616  14.352 -0.3526  1.4260 -1.9202
16964TIP3    H272384   6.773   5.704  14.386  1.5658 -2.0855  1.3308
16965TIP3   OH272385   3.526   5.637  12.852  0.1745  0.5122 -0.6259
16965TIP3    H172386   3.602   5.660  12.798  1.3182 -0.7392  0.3655
16965TIP3    H272387   3.498   5.552  12.818  0.7763 -0.1892  0.5598
16966TIP3   OH272388   6.558   4.136   4.419 -0.0682  0.8096  0.6366
16966TIP3    H172389   6.610   4.069   4.375 -0.7596  0.6390  0.0661
16966TIP3    H272390   6.590   4.219   4.384  1.0977  0.8243  1.6725
16967TIP3   OH272391   4.209   5.974   4.342 -0.2528 -0.3200 -0.7697
16967TIP3    H172392   4.200   5.887   4.303  1.5648 -1.1482  0.4931
16967TIP3    H272393   4.301   5.997   4.325 -0.1481  0.4303  0.6785
16968TIP3   OH272394   6.325   3.073  11.580  0.1852 -0.2664 -0.3920
16968TIP3    H172395   6.270   3.022  11.521 -1.0030 -0.7766  1.0803
16968TIP3    H272396   6.367   3.008  11.636  0.8733  0.2205 -0.3329
16969TIP3   OH272397   6.801   2.883   5.473 -0.3221  0.8893  0.6929
16969TIP3    H172398   6.761   2.968   5.488  0.0544  1.0540  0.7586
16969TIP3    H272399   6.805   2.843   5.560 -1.2364  0.4698  0.5595
16970TIP3   OH272400   1.504   3.668   3.088  0.0348  0.2126 -0.4039
16970TIP3    H172401   1.473   3.758   3.081  0.5178  0.5966  1.7331
16970TIP3    H272402   1.575   3.672   3.152 -0.4190 -1.7951  0.3014
16971TIP3   OH272403   6.210   6.421   3.350  0.0018  0.2533  0.3799
16971TIP3    H172404   6.266   6.352   3.316 -1.8808 -1.2910  0.2554
16971TIP3    H272405   6.145   6.375   3.403 -3.1532  1.5322 -2.0952
16972TIP3   OH272406   6.499   0.759   3.137 -0.3325  0.1148 -0.7087
16972TIP3    H172407   6.593   0.774   3.129 -0.2238 -0.8890 -1.5905
16972TIP3    H272408   6.478   0.699   3.065 -1.6683  0.4102 -0.5946
16973TIP3   OH272409   3.427   5.303   1.839 -0.7993 -0.3114  0.3805
16973TIP3    H172410   3.385   5.388   1.823  1.1262  0.4749 -0.8980
16973TIP3    H272411   3.377   5.241   1.786  0.1441  0.7866 -1.9956
16974TIP3   OH272412   4.831   6.239   4.668 -0.1031 -0.7092 -0.2621
16974TIP3    H172413   4.920   6.222   4.697  0.2121  0.4331 -0.4849
16974TIP3    H272414   4.789   6.282   4.743  0.3138  1.0230 -0.9546
16975TIP3   OH272415   2.622   4.626   1.499  0.1817  0.0803  0.1841
16975TIP3    H172416   2.534   4.588   1.497  0.4587 -1.1119  3.7437
16975TIP3    H272417   2.681   4.554   1.478  0.4186  0.0446  0.9212
16976TIP3   OH272418   5.099   2.241  14.323 -0.1922 -0.3674  0.5781
16976TIP3    H172419   5.031   2.302  14.295 -0.4853 -0.1544  1.7268
16976TIP3    H272420   5.068   2.155  14.295  0.1199 -0.0387 -0.8483
16977TIP3   OH272421   5.792   3.609   4.748 -0.2989  0.1832  0.0655
16977TIP3    H172422   5.722   3.616   4.812 -0.6793 -1.5435 -0.0958
16977TIP3    H272423   5.870   3.640   4.793 -0.5159 -1.1960  1.4745
16978TIP3   OH272424   0.953   6.026  15.931 -0.1224 -0.2955  0.0128
16978TIP3    H172425   0.913   5.941  15.950  0.0447 -0.8602 -1.9107
16978TIP3    H272426   0.883   6.077  15.891  0.4465 -0.5265 -1.3529
16979TIP3   OH272427   2.760   1.607   3.690 -0.0751 -0.4797  0.0404
16979TIP3    H172428   2.714   1.620   3.773 -1.2633  0.1895 -0.6939
16979TIP3    H272429   2.827   1.675   3.689 -1.0211  0.4765 -0.1829
16980TIP3   OH272430   2.454   1.694   4.807 -0.3205  0.5446 -0.0098
16980TIP3    H172431   2.443   1.663   4.717 -0.8474  0.1841  0.1707
16980TIP3    H272432   2.364   1.699   4.842 -0.1392  0.8894  0.4256
16981TIP3   OH272433   0.350   1.263  13.009  0.1435  0.4730 -0.2988
16981TIP3    H172434   0.308   1.265  13.094 -1.2836 -0.9297 -0.9316
16981TIP3    H272435   0.286   1.305  12.950  0.3693 -0.1162 -0.9727
16982TIP3   OH272436   5.424   3.477   0.833  0.8139  0.0263  0.7401
16982TIP3    H172437   5.365   3.480   0.758  0.3465 -0.3127  1.0874
16982TIP3    H272438   5.506   3.443   0.799  1.0282  1.1217  0.1120
16983TIP3   OH272439   3.588   1.286  12.458  0.0159 -0.6796  0.2618
16983TIP3    H172440   3.670   1.320  12.421  0.0469 -0.3968  0.5779
16983TIP3    H272441   3.613   1.204  12.500  0.4860  0.2146  1.8035
16984TIP3   OH272442   6.077   1.200   2.043 -0.5479 -0.0066  0.7783
16984TIP3    H172443   6.085   1.294   2.028 -0.9661 -0.0515  0.2319
16984TIP3    H272444   6.155   1.177   2.092  2.0032 -0.1757 -2.9386
16985TIP3   OH272445   2.847   6.060  14.551  0.1412  0.3837 -0.3250
16985TIP3    H172446   2.851   5.968  14.525 -1.4907 -0.3504  1.6762
16985TIP3    H272447   2.930   6.077  14.595 -0.2209 -0.6729  0.8019
16986TIP3   OH272448   0.942   5.198  11.368 -0.5435 -0.4039 -0.5618
16986TIP3    H172449   0.858   5.240  11.389 -0.7797 -0.9874 -0.3076
16986TIP3    H272450   0.919   5.106  11.352 -0.1026 -0.3433 -1.5838
16987TIP3   OH272451   5.336   3.481   4.066  0.2268 -0.0052 -0.2413
16987TIP3    H172452   5.266   3.532   4.024 -1.2628 -2.0107 -0.3872
16987TIP3    H272453   5.380   3.438   3.992 -0.5971 -1.3608  0.0244
16988TIP3   OH272454   1.066   0.563   1.307 -0.0930  0.0030  0.0276
16988TIP3    H172455   1.032   0.629   1.247  0.4789 -0.4554 -0.8089
16988TIP3    H272456   0.990   0.535   1.358 -0.6731  0.0601 -0.7988
16989TIP3   OH272457   0.424   1.006  15.033 -0.0063 -0.3035 -0.6639
16989TIP3    H172458   0.471   1.022  14.951  1.5523 -0.8953  0.0727
16989TIP3    H272459   0.438   0.913  15.051  1.7501  0.3032  1.4860
16990TIP3   OH272460   5.238   0.062   4.323 -0.1809 -0.4976  0.3709
16990TIP3    H172461   5.184   0.140   4.330 -1.3337 -1.2928  0.5933
16990TIP3    H272462   5.327   0.095   4.313 -0.5534  0.8281  1.2180
16991TIP3   OH272463   6.055   5.874  13.275 -0.5672 -0.0327 -0.1337
16991TIP3    H172464   6.001   5.802  13.242 -0.9442 -0.2032  0.8197
16991TIP3    H272465   6.140   5.833  13.294  0.4227  0.5041 -2.9385
16992TIP3   OH272466   0.772   0.896   0.565 -0.0588  0.2052 -0.0811
16992TIP3    H172467   0.852   0.892   0.618  1.1295 -1.9058 -1.8864
16992TIP3    H272468   0.712   0.949   0.618  1.8799  0.3371  2.1881
16993TIP3   OH272469   6.781   6.799  13.595 -0.3817  0.6241  0.0035
16993TIP3    H172470   6.855   6.756  13.638  0.1611  0.4439 -1.0727
16993TIP3    H272471   6.708   6.738  13.605  0.0958 -0.0497 -0.5236
16994TIP3   OH272472   4.035   2.607  16.302  0.3273 -0.0313 -0.2081
16994TIP3    H172473   3.940   2.611  16.313  0.0079 -1.0564 -2.0974
16994TIP3    H272474   4.068   2.681  16.352 -1.6035  1.2080 -0.6508
16995TIP3   OH272475   5.997   1.686   0.895 -0.0817 -0.0373  0.2214
16995TIP3    H172476   6.045   1.697   0.813 -0.6366 -0.0444 -0.1061
16995TIP3    H272477   6.038   1.609   0.936  1.4021  1.0288  0.8160
16996TIP3   OH272478   1.131   3.154  12.143  0.3135 -0.2112  0.3240
16996TIP3    H172479   1.134   3.160  12.239  1.4902 -0.4787  0.3181
16996TIP3    H272480   1.083   3.073  12.126 -2.5438  1.3176  0.6104
16997TIP3   OH272481   4.757   3.093  13.953  0.8811  0.5597  0.3352
16997TIP3    H172482   4.762   3.026  14.020 -0.1907  0.2852  0.1582
16997TIP3    H272483   4.821   3.159  13.979  0.3309  0.5593  1.7428
16998TIP3   OH272484   0.521   0.131  16.657 -0.5437  0.6995  0.1765
16998TIP3    H172485   0.575   0.053  16.670 -0.9830 -0.0195 -1.8146
16998TIP3    H272486   0.440   0.112  16.705 -0.1320  0.5341  0.8205
16999TIP3   OH272487   0.485   4.089  16.790 -0.7099 -0.2571 -0.1359
16999TIP3    H172488   0.577   4.114  16.782 -0.5325 -0.7585  0.2578
16999TIP3    H272489   0.455   4.079  16.700 -1.1496  2.5528 -0.3926
17000TIP3   OH272490   1.344   4.184  15.469  0.2891  0.6992  0.0993
17000TIP3    H172491   1.319   4.275  15.456  1.0449  1.1523  1.5378
17000TIP3    H272492   1.262   4.135  15.464 -0.3511  1.6572  0.8386
17001TIP3   OH272493   0.979   3.781   6.069  0.7751 -0.1799  0.2474
17001TIP3    H172494   0.901   3.746   6.112  1.9941 -2.0214  1.0388
17001TIP3    H272495   0.961   3.771   5.975 -1.4627  2.9178  0.1931
17002TIP3   OH272496   6.828   3.190  15.264  0.0780  0.0843 -0.1938
17002TIP3    H172497   6.746   3.233  15.287 -0.7214 -1.4526 -0.0290
17002TIP3    H272498   6.814   3.157  15.175 -0.0475 -1.4547  0.3783
17003TIP3   OH272499   0.382   6.009  16.432  0.1572  0.6007  0.7480
17003TIP3    H172500   0.436   6.063  16.374  0.0266  1.2707  1.2359
17003TIP3    H272501   0.299   6.001  16.387  0.4294  0.1429  0.3126
17004TIP3   OH272502   6.390   5.436  12.792 -0.5711 -0.3812 -0.3979
17004TIP3    H172503   6.321   5.380  12.756 -1.3970 -0.3886  1.1134
17004TIP3    H272504   6.351   5.524  12.795  0.0926 -0.0596 -1.1217
17005TIP3   OH272505   0.207   4.937  11.227  0.3345 -0.1343 -0.7104
17005TIP3    H172506   0.116   4.911  11.242 -0.4222  1.9398 -1.2560
17005TIP3    H272507   0.242   4.871  11.168 -1.9067  0.7332 -3.1995
17006TIP3   OH272508   5.408   5.876  13.172 -0.4581 -0.0551 -0.4465
17006TIP3    H172509   5.469   5.809  13.203  0.8793  1.4520  0.3238
17006TIP3    H272510   5.368   5.837  13.093  0.9240 -1.3850 -0.5407
17007TIP3   OH272511   2.293   6.467   2.356 -0.2983 -0.5362 -0.7808
17007TIP3    H172512   2.265   6.460   2.447  3.5070 -1.1792  0.5476
17007TIP3    H272513   2.300   6.562   2.341 -1.4610 -0.4131 -0.6293
17008TIP3   OH272514   5.949   1.542   3.205 -0.2602  0.7159  0.4477
17008TIP3    H172515   6.016   1.581   3.148 -0.1513  0.5640  0.4713
17008TIP3    H272516   5.993   1.532   3.290  0.0918 -0.5704  0.1297
17009TIP3   OH272517   6.333   6.641   3.205  0.0213 -0.2178 -0.8282
17009TIP3    H172518   6.299   6.552   3.196  0.7432 -0.5126 -0.7005
17009TIP3    H272519   6.373   6.660   3.120 -0.1691  0.0058 -0.8702
17010TIP3   OH272520   1.162   2.869  15.127 -0.2282 -0.0096 -0.0375
17010TIP3    H172521   1.192   2.844  15.214  0.0233  1.2409  0.2496
17010TIP3    H272522   1.178   2.792  15.073  2.6049  0.2261  0.3220
17011TIP3   OH272523   1.276   4.446  12.941 -0.0040 -0.7762  0.3437
17011TIP3    H172524   1.231   4.410  12.864 -1.4867  0.2107  0.6909
17011TIP3    H272525   1.338   4.509  12.905 -0.1196 -0.8992 -0.0770
17012TIP3   OH272526   2.899   4.913  11.185  0.1001 -0.0204 -0.0490
17012TIP3    H172527   2.863   4.901  11.273 -0.6457 -0.8800 -0.4469
17012TIP3    H272528   2.882   4.830  11.141 -1.3905  1.0252 -1.6365
17013TIP3   OH272529   6.447   0.257   4.328 -0.2765  0.2592  0.1320
17013TIP3    H172530   6.492   0.334   4.293  1.8595 -0.4169  1.1822
17013TIP3    H272531   6.453   0.266   4.423 -0.6814 -0.8275  0.2778
17014TIP3   OH272532   1.470   4.816  14.729  0.0114  0.2524 -0.0875
17014TIP3    H172533   1.388   4.808  14.679 -0.3399  1.3216  0.2778
17014TIP3    H272534   1.536   4.775  14.673 -0.3943  1.2821 -1.3965
17015TIP3   OH272535   3.312   3.189   6.030 -0.4071  0.0367 -0.7461
17015TIP3    H172536   3.369   3.248   5.981 -0.9847 -0.2433 -1.8001
17015TIP3    H272537   3.305   3.111   5.974  1.2162 -1.5251  1.0735
17016TIP3   OH272538   5.736   1.380  12.976  0.4810 -0.0778  0.2006
17016TIP3    H172539   5.803   1.425  13.027  0.0893  0.6489  0.0844
17016TIP3    H272540   5.655   1.428  12.993  0.6815  1.4818 -2.6050
17017TIP3   OH272541   3.163   4.326  16.694 -0.0525  1.4219 -0.3822
17017TIP3    H172542   3.072   4.355  16.699 -0.4102  0.1296  1.0366
17017TIP3    H272543   3.166   4.270  16.617 -0.8191  0.2967  0.3884
17018TIP3   OH272544   3.858   5.814   4.181 -0.3624 -0.3759  0.3335
17018TIP3    H172545   3.949   5.793   4.202  0.2213  1.6640  0.0990
17018TIP3    H272546   3.845   5.902   4.218 -2.4405 -0.8792  0.9050
17019TIP3   OH272547   6.210   1.328   0.241  0.3959 -0.4537  0.3742
17019TIP3    H172548   6.205   1.369   0.327 -1.3596 -0.6494  0.4014
17019TIP3    H272549   6.187   1.398   0.179 -2.1339 -1.1955  0.3875
17020TIP3   OH272550   5.505   5.779  11.273  0.2319  0.0016  0.4856
17020TIP3    H172551   5.513   5.685  11.258 -0.7075 -0.1722  1.0100
17020TIP3    H272552   5.456   5.786  11.355 -1.3455  0.9269 -0.4780
17021TIP3   OH272553   5.880   0.022   0.444  0.1922 -0.0105  0.5583
17021TIP3    H172554   5.941   0.095   0.450 -0.5197  0.8154 -1.4685
17021TIP3    H272555   5.936  -0.056   0.435  1.0306  0.7612 -1.6666
17022TIP3   OH272556   3.623   1.338   4.763  0.4118 -0.7428 -0.0895
17022TIP3    H172557   3.682   1.412   4.777  0.5186 -0.7229 -0.6196
17022TIP3    H272558   3.547   1.357   4.819  1.8958 -1.9624  2.5483
17023TIP3   OH272559   2.012   3.858   6.550  0.2840 -0.2031 -0.1700
17023TIP3    H172560   1.973   3.877   6.465  0.1050 -1.8551 -0.4749
17023TIP3    H272561   1.998   3.939   6.600 -0.1494  0.5799 -1.4903
17024TIP3   OH272562   5.966   3.663   0.353  0.2307  0.0173 -0.5133
17024TIP3    H172563   5.877   3.644   0.325 -0.3278 -0.8524  1.6180
17024TIP3    H272564   5.965   3.649   0.448  2.6127  0.0619 -0.4079
17025TIP3   OH272565   3.870   6.725   1.489  0.2232  0.4182  0.1741
17025TIP3    H172566   3.882   6.801   1.432 -0.9367 -0.5882 -1.5370
17025TIP3    H272567   3.887   6.757   1.577  1.4941  2.2102 -0.6691
17026TIP3   OH272568   2.125   0.518  17.020 -0.3640 -0.0335  0.5263
17026TIP3    H172569   2.199   0.577  17.029 -1.4073  1.1658  1.8702
17026TIP3    H272570   2.073   0.554  16.948  0.6922 -1.3113 -0.9305
17027TIP3   OH272571   0.270   0.551  12.272 -0.2871 -0.3340  0.5613
17027TIP3    H172572   0.268   0.621  12.206  0.3136 -0.9937 -0.1753
17027TIP3    H272573   0.298   0.473  12.223 -0.0995 -0.8968  1.5476
17028TIP3   OH272574   0.229   3.438  13.161  0.0545  0.0572  0.3887
17028TIP3    H172575   0.168   3.439  13.234  1.5234 -1.4768  1.6984
17028TIP3    H272576   0.177   3.406  13.087 -1.9458  3.3727  0.1616
17029TIP3   OH272577   4.243   2.844   2.798 -0.0849  0.0969 -0.0437
17029TIP3    H172578   4.279   2.820   2.713  1.2413  1.2034  0.1828
17029TIP3    H272579   4.315   2.885   2.844 -0.7368 -0.6395  1.7028
17030TIP3   OH272580   3.314   4.082   1.785  0.8032  0.1280  0.3232
17030TIP3    H172581   3.303   3.987   1.789 -0.1217  0.2596  1.6682
17030TIP3    H272582   3.387   4.100   1.844 -1.5305  0.5426  3.2906
17031TIP3   OH272583   1.399   2.252   4.483  0.1697  0.4247 -0.1670
17031TIP3    H172584   1.405   2.211   4.570  0.6975  1.3182  0.2262
17031TIP3    H272585   1.307   2.242   4.459 -0.0999  0.6178  0.7272
17032TIP3   OH272586   2.890   6.657  13.422 -0.1853 -0.4456  0.4185
17032TIP3    H172587   2.924   6.745  13.439 -0.3434 -0.4107  0.5583
17032TIP3    H272588   2.796   6.665  13.435 -0.1107 -0.8281  1.2672
17033TIP3   OH272589   2.922   6.654   0.321 -0.4652 -0.4629  0.1877
17033TIP3    H172590   3.004   6.699   0.339 -0.9488  0.0425  1.2345
17033TIP3    H272591   2.882   6.703   0.249  0.5969 -1.3249 -1.0322
17034TIP3   OH272592   6.448   4.217  14.571  0.1109 -0.0617 -0.6579
17034TIP3    H172593   6.501   4.294  14.590 -0.0635 -0.5656  2.3685
17034TIP3    H272594   6.358   4.250  14.568  0.1541  0.0480 -0.7357
17035TIP3   OH272595   3.047   0.193  11.947 -0.0018 -0.2382  0.3055
17035TIP3    H172596   3.035   0.186  12.041 -0.6083  0.2116  0.2657
17035TIP3    H272597   3.071   0.104  11.919 -1.6537 -0.8124  0.6327
17036TIP3   OH272598   5.100   3.914  11.345  0.3759 -0.1590  0.1892
17036TIP3    H172599   5.043   3.904  11.269 -0.8831  1.1014  0.9190
17036TIP3    H272600   5.163   3.982  11.320 -0.2536  0.5037  0.3701
17037TIP3   OH272601   0.220   6.235   6.129  0.0079 -0.1746  0.0645
17037TIP3    H172602   0.281   6.308   6.128  0.9293 -0.9141 -0.6570
17037TIP3    H272603   0.206   6.216   6.221  0.3070  0.4601  0.2443
17038TIP3   OH272604   1.545   3.021   6.376 -0.7182 -0.2750  0.5252
17038TIP3    H172605   1.530   2.952   6.311 -1.6086 -1.5947  2.0700
17038TIP3    H272606   1.459   3.040   6.412 -0.3970  1.2467  0.5714
17039TIP3   OH272607   1.880   4.048  11.362  0.2196  0.0335 -0.0241
17039TIP3    H172608   1.853   4.133  11.398 -0.8318  0.1245 -0.9638
17039TIP3    H272609   1.868   4.058  11.267  1.8549 -0.5561 -0.3306
17040TIP3   OH272610   2.081   3.765   5.147  0.6501  0.3405 -0.8330
17040TIP3    H172611   2.067   3.672   5.163  0.5740  0.2796 -1.2361
17040TIP3    H272612   2.049   3.779   5.058 -1.6860  1.2815  0.0823
17041TIP3   OH272613   4.718   5.614  16.035  0.1632 -0.0580  0.3226
17041TIP3    H172614   4.690   5.704  16.015  1.2742  0.6186  1.6192
17041TIP3    H272615   4.698   5.603  16.128 -0.5873 -1.4347  0.0278
17042TIP3   OH272616   6.810   2.658   6.111  0.8778  0.0596 -0.2037
17042TIP3    H172617   6.737   2.710   6.144  1.9151  1.7651 -0.4850
17042TIP3    H272618   6.800   2.573   6.152 -1.3287  0.2203 -0.3337
17043TIP3   OH272619   1.375   5.272  16.165 -0.3484  0.2230  0.2971
17043TIP3    H172620   1.375   5.331  16.089  0.4267 -0.2277 -0.0618
17043TIP3    H272621   1.283   5.270  16.193 -0.7174  0.1497 -0.8368
17044TIP3   OH272622   3.200   6.543  14.545  0.7403  0.0888 -0.5764
17044TIP3    H172623   3.273   6.605  14.539 -1.2523  2.5988 -0.6119
17044TIP3    H272624   3.122   6.597  14.536 -1.1663 -2.5017 -0.7642
17045TIP3   OH272625   2.712   1.573   2.441  0.0058  0.5062 -0.5685
17045TIP3    H172626   2.749   1.598   2.526 -1.2560 -0.7815  0.4130
17045TIP3    H272627   2.772   1.508   2.406 -0.7519 -0.8632  0.5674
17046TIP3   OH272628   6.078   3.599   4.013  0.3278  0.0301 -0.0401
17046TIP3    H172629   6.050   3.635   4.097  2.1157  0.7815  0.2802
17046TIP3    H272630   6.071   3.672   3.952 -0.4335 -0.3653 -0.4426
17047TIP3   OH272631   2.923   1.463   4.730 -0.3092 -0.3027 -0.4065
17047TIP3    H172632   2.916   1.429   4.819 -0.3045 -0.3786 -0.4345
17047TIP3    H272633   2.906   1.557   4.738  0.6809 -0.1308 -0.1806
17048TIP3   OH272634   0.319   3.406   1.853  0.0586  0.3503 -0.2464
17048TIP3    H172635   0.232   3.418   1.816  0.0269  1.6535  0.1966
17048TIP3    H272636   0.344   3.493   1.885  0.8052 -0.3438  1.1764
17049TIP3   OH272637   1.059   5.141  12.850 -0.0656  0.8605 -0.4144
17049TIP3    H172638   1.019   5.227  12.858 -0.0089  0.8484 -0.0120
17049TIP3    H272639   1.062   5.107  12.939 -1.5694 -0.2411 -0.7530
17050TIP3   OH272640   4.023   2.147  16.248 -0.0763 -0.0556  0.6506
17050TIP3    H172641   3.990   2.085  16.183 -2.1825  0.0092  1.5829
17050TIP3    H272642   4.089   2.097  16.296  1.4916 -0.1280 -1.4127
17051TIP3   OH272643   4.479   3.797   5.161 -0.2409  0.6735  0.0919
17051TIP3    H172644   4.433   3.787   5.077 -1.0788  0.3474  0.5842
17051TIP3    H272645   4.413   3.827   5.222 -0.3157 -1.6341  1.2708
17052TIP3   OH272646   3.116   0.534  13.730 -0.6188 -0.1890  0.1761
17052TIP3    H172647   3.192   0.589  13.748  0.4383 -1.1832 -1.0389
17052TIP3    H272648   3.120   0.464  13.795 -0.1077 -0.5935 -0.2816
17053TIP3   OH272649   2.816   0.690   0.583  0.3669  0.3162 -0.4954
17053TIP3    H172650   2.890   0.678   0.643 -0.2613 -0.0339  0.2165
17053TIP3    H272651   2.821   0.613   0.526 -1.0386 -1.1691  1.2849
17054TIP3   OH272652   0.314   1.863  15.287 -0.0394  0.1332 -0.2659
17054TIP3    H172653   0.305   1.771  15.262  0.8627  0.3068 -1.3346
17054TIP3    H272654   0.322   1.909  15.203 -2.6274  1.4769  0.1032
17055TIP3   OH272655   4.053   0.274   4.918 -0.2844  0.8918  0.2363
17055TIP3    H172656   4.013   0.343   4.864 -0.1893  1.5281  0.9720
17055TIP3    H272657   4.145   0.273   4.893 -0.8558 -1.4079 -2.3724
17056TIP3   OH272658   5.348   6.366  13.539 -0.0638  0.1661 -0.5390
17056TIP3    H172659   5.367   6.419  13.462 -1.4093  2.1472  0.3870
17056TIP3    H272660   5.380   6.279  13.518 -1.1002  0.4274 -3.6419
17057TIP3   OH272661   4.472   4.805  12.880 -0.3392  0.0257 -0.3972
17057TIP3    H172662   4.498   4.837  12.793  0.3111 -1.2726 -0.7083
17057TIP3    H272663   4.487   4.880  12.938  0.2893  0.5692 -1.2260
17058TIP3   OH272664   6.583   6.639   2.530 -0.0540 -0.3167 -0.3367
17058TIP3    H172665   6.552   6.639   2.620 -2.2275 -0.8791 -1.0368
17058TIP3    H272666   6.615   6.729   2.516 -0.7951  0.1068  0.6265
17059TIP3   OH272667   1.554   5.758   4.291 -0.3338  0.0425  0.3562
17059TIP3    H172668   1.543   5.850   4.315  1.7642 -0.0290  1.9266
17059TIP3    H272669   1.649   5.747   4.280 -0.6836 -1.4242 -2.1679
17060TIP3   OH272670   4.701   5.440  16.316 -0.4702  0.1250 -0.0802
17060TIP3    H172671   4.651   5.374  16.267  0.7655 -1.4658  0.7508
17060TIP3    H272672   4.792   5.421  16.297 -0.0500  1.0491  0.8939
17061TIP3   OH272673   3.815   6.700  12.301 -0.0252 -0.0830  0.0272
17061TIP3    H172674   3.793   6.773  12.243 -1.0230 -0.1438  0.3092
17061TIP3    H272675   3.826   6.625  12.243  1.6534  0.4018 -0.3334
17062TIP3   OH272676   4.261   1.577  15.858 -0.7867  0.4816 -0.1895
17062TIP3    H172677   4.302   1.499  15.820 -2.3242  0.3142 -1.6501
17062TIP3    H272678   4.327   1.645  15.851  0.7099 -0.7183  1.4181
17063TIP3   OH272679   1.600   0.507   0.052 -0.5377  0.1495 -0.1199
17063TIP3    H172680   1.608   0.444   0.123 -0.2552 -0.0431 -0.3182
17063TIP3    H272681   1.604   0.593   0.095  0.0677  0.0386  0.0553
17064TIP3   OH272682   4.412   6.787  13.586  0.3158 -0.0251  0.4275
17064TIP3    H172683   4.468   6.733  13.643 -0.6349 -0.3965  1.0326
17064TIP3    H272684   4.455   6.784  13.501  0.3125 -1.7055  0.4605
17065TIP3   OH272685   6.228   6.274  14.753  0.3319 -0.1612  0.0083
17065TIP3    H172686   6.230   6.367  14.728 -0.6791 -0.3207 -0.7209
17065TIP3    H272687   6.313   6.240  14.726  0.8358  0.6169  0.5647
17066TIP3   OH272688   2.478   3.700   4.842 -1.0903 -0.2373  0.3088
17066TIP3    H172689   2.395   3.741   4.866 -0.1964  1.6869  0.3404
17066TIP3    H272690   2.534   3.714   4.918  0.4370  2.0821 -1.1243
17067TIP3   OH272691   3.398   4.351   3.724 -0.1180  0.1207  0.3316
17067TIP3    H172692   3.483   4.308   3.729  0.6533  1.5645  0.4445
17067TIP3    H272693   3.378   4.376   3.815 -0.7816 -0.4066  0.3405
17068TIP3   OH272694   0.363   5.253   3.494 -0.2016  0.0010  0.1686
17068TIP3    H172695   0.341   5.291   3.409 -1.0731  0.2567  0.5022
17068TIP3    H272696   0.341   5.322   3.558 -0.0616 -0.3860  0.6429
17069TIP3   OH272697   3.733   5.300  11.707  0.3037  0.3400 -0.2206
17069TIP3    H172698   3.795   5.372  11.717  2.8483 -1.8620  0.7657
17069TIP3    H272699   3.750   5.265  11.620 -0.1680  0.2334 -0.2742
17070TIP3   OH272700   1.600   3.007   1.359  0.0601 -0.0014  0.7571
17070TIP3    H172701   1.661   2.980   1.428  0.3420  0.1367  0.5608
17070TIP3    H272702   1.539   2.933   1.352  1.1449 -0.8413 -0.1475
17071TIP3   OH272703   5.152   0.692   1.586 -0.1146 -0.2431  0.4328
17071TIP3    H172704   5.191   0.660   1.667  2.2843  2.0168  0.3174
17071TIP3    H272705   5.164   0.621   1.523  1.1880 -0.7409  1.1995
17072TIP3   OH272706   6.164   2.283  13.157  0.4156  0.4414 -0.5543
17072TIP3    H172707   6.162   2.208  13.216  1.3564  0.8084 -0.0354
17072TIP3    H272708   6.075   2.290  13.124  0.0602 -0.2358  0.2355
17073TIP3   OH272709   0.635   0.370  16.764 -0.4168 -0.0782  0.3955
17073TIP3    H172710   0.587   0.300  16.720  0.5925 -0.0311 -0.8123
17073TIP3    H272711   0.612   0.449  16.716  2.0101 -0.2621 -1.2311
17074TIP3   OH272712   5.447   2.628  16.056  0.1173  0.2903 -0.3197
17074TIP3    H172713   5.478   2.702  16.004 -0.4166 -0.2886 -1.5107
17074TIP3    H272714   5.425   2.561  15.991  0.2763 -0.7970  0.7151
17075TIP3   OH272715   5.349   2.503  11.985 -0.4529  0.2465 -0.3574
17075TIP3    H172716   5.352   2.435  11.918  0.3285  0.0189 -0.0985
17075TIP3    H272717   5.268   2.552  11.966 -0.5631 -0.2010 -1.0766
17076TIP3   OH272718   5.565   1.132  13.863  0.2254  0.6654  1.0465
17076TIP3    H172719   5.568   1.098  13.774 -0.5090 -1.8545  1.8807
17076TIP3    H272720   5.656   1.150  13.886  0.8001 -1.4704  0.7005
17077TIP3   OH272721   3.074   2.719   1.974  0.4621  0.0786 -0.4466
17077TIP3    H172722   2.998   2.765   2.011  0.0252  0.4363 -1.7265
17077TIP3    H272723   3.148   2.750   2.025 -0.2461 -0.3740  0.9297
17078TIP3   OH272724   1.027   0.813  16.791  0.4666  0.4261  0.5005
17078TIP3    H172725   0.991   0.887  16.743 -1.3461 -1.4679 -1.2383
17078TIP3    H272726   1.025   0.741  16.729 -1.7114 -2.1193  3.2340
17079TIP3   OH272727   1.903   6.661  12.387  0.6842  0.1772 -0.3239
17079TIP3    H172728   1.924   6.685  12.478  2.8529 -0.2660 -0.6644
17079TIP3    H272729   1.888   6.745  12.343 -1.1705  0.3688  0.5654
17080TIP3   OH272730   3.491   5.159   1.440  0.0343 -0.3964 -0.2230
17080TIP3    H172731   3.539   5.146   1.358  1.0143  0.1088  0.2677
17080TIP3    H272732   3.525   5.092   1.499  1.6079  1.1666  0.7533
17081TIP3   OH272733   5.177   4.126  14.670 -0.5429 -0.3901  0.1931
17081TIP3    H172734   5.154   4.033  14.678  0.1558 -0.4346  2.4771
17081TIP3    H272735   5.128   4.169  14.740  0.8766  0.5793  0.6332
17082TIP3   OH272736   2.806   5.031   6.532  0.0280 -0.0600  0.1848
17082TIP3    H172737   2.759   5.002   6.610 -0.4801  0.9285  0.2643
17082TIP3    H272738   2.800   5.126   6.535  1.4258  0.0512 -0.2019
17083TIP3   OH272739   1.632   6.100   2.339  0.1960 -0.0657  0.2293
17083TIP3    H172740   1.707   6.112   2.281 -0.0310  0.3250  0.0137
17083TIP3    H272741   1.631   6.180   2.393  0.1310 -0.2197  0.4594
17084TIP3   OH272742   5.773   5.600  15.894  0.3555 -0.2856 -0.1175
17084TIP3    H172743   5.677   5.600  15.882  0.2614  1.3413  0.3712
17084TIP3    H272744   5.791   5.524  15.948 -0.8793  0.2783  1.1460
17085TIP3   OH272745   6.811   5.430   5.183 -0.3804  0.2041 -0.3519
17085TIP3    H172746   6.815   5.520   5.150  1.6480 -0.3916 -1.9122
17085TIP3    H272747   6.745   5.388   5.128  0.0333  0.2712 -0.9115
17086TIP3   OH272748   1.078   3.216  17.012 -0.0516  0.4628 -0.3761
17086TIP3    H172749   1.101   3.230  16.920 -0.2572  0.4134 -0.4355
17086TIP3    H272750   1.041   3.300  17.041  0.0537  0.4918 -0.3271
17087TIP3   OH272751   3.417   6.284   4.746  0.4653  0.6342 -0.1580
17087TIP3    H172752   3.479   6.214   4.764  1.7413  1.4723 -1.0911
17087TIP3    H272753   3.403   6.327   4.830  1.7835  0.8937 -0.0377
17088TIP3   OH272754   3.503   6.572  12.426  0.2509  0.1097 -0.0721
17088TIP3    H172755   3.531   6.582  12.335 -3.1083 -1.0288 -1.3783
17088TIP3    H272756   3.584   6.559  12.475  2.2945  2.0874 -2.6425
17089TIP3   OH272757   2.504   1.334  17.060  0.2329 -0.0542  0.0941
17089TIP3    H172758   2.486   1.254  17.110 -1.8093 -0.1203 -0.6719
17089TIP3    H272759   2.470   1.405  17.114 -0.5760  0.0178 -0.4982
17090TIP3   OH272760   1.776   1.402  16.467 -0.2208 -0.4224  0.0333
17090TIP3    H172761   1.728   1.454  16.532 -1.0805 -0.8923 -0.2006
17090TIP3    H272762   1.851   1.368  16.515 -0.4351 -0.1513  0.5796
17091TIP3   OH272763   3.143   5.030  15.078 -0.2830  0.4320  0.0556
17091TIP3    H172764   3.178   4.963  15.020 -0.7971 -0.1116  0.3732
17091TIP3    H272765   3.124   5.104  15.020 -1.5744 -0.3891 -0.6118
17092TIP3   OH272766   0.228   4.146  13.629 -0.4823 -0.1496 -0.5387
17092TIP3    H172767   0.222   4.087  13.554  0.6210 -0.3098 -0.5203
17092TIP3    H272768   0.262   4.228  13.591  1.9626 -0.8131  0.0222
17093TIP3   OH272769   0.489   2.739   5.105  0.4964  0.0006  0.0804
17093TIP3    H172770   0.504   2.830   5.076 -0.7051  0.4710  0.8628
17093TIP3    H272771   0.574   2.710   5.137  0.6432  1.2704  0.9243
17094TIP3   OH272772   5.014   5.062   4.337 -0.0617 -0.3723 -0.5405
17094TIP3    H172773   4.930   5.065   4.382 -0.6742 -0.4054 -1.6522
17094TIP3    H272774   5.003   4.996   4.268  0.1684  1.0376 -2.0123
17095TIP3   OH272775   4.161   2.951  14.457  0.1096 -0.6264 -0.3543
17095TIP3    H172776   4.201   3.034  14.430 -0.5700  0.6599  2.2710
17095TIP3    H272777   4.209   2.885  14.408  1.9804  1.1776 -1.1201
17096TIP3   OH272778   4.847   4.824  13.080  0.0218  0.0866  0.0416
17096TIP3    H172779   4.833   4.906  13.129  0.5898 -0.9307  2.0192
17096TIP3    H272780   4.764   4.777  13.089  0.4308 -0.5056  0.8881
17097TIP3   OH272781   6.625   4.909  12.877 -0.1587  0.8653 -0.5952
17097TIP3    H172782   6.713   4.883  12.904 -0.3685  0.4238 -0.3185
17097TIP3    H272783   6.596   4.838  12.819 -1.3550 -0.3762  1.4314
17098TIP3   OH272784   4.730   6.488  12.300  0.5817  0.1574  0.7962
17098TIP3    H172785   4.798   6.453  12.243 -0.3934 -0.6565  0.0677
17098TIP3    H272786   4.730   6.429  12.376  0.4559 -0.0775  0.6184
17099TIP3   OH272787   4.231   6.435  11.486  0.5118  0.2657  0.0677
17099TIP3    H172788   4.300   6.370  11.499  0.2029 -0.1790 -0.4142
17099TIP3    H272789   4.185   6.404  11.407 -0.2857  0.5005  0.4313
17100TIP3   OH272790   2.932   4.350  15.360 -0.3039  0.5306  0.0270
17100TIP3    H172791   2.979   4.344  15.276  2.7921 -1.0076  1.7051
17100TIP3    H272792   2.851   4.301  15.346 -1.5351  3.0371 -2.9237
17101TIP3   OH272793   4.599   4.708   1.184 -0.0564 -0.0440  0.1235
17101TIP3    H172794   4.567   4.774   1.123  0.9021  0.0258 -0.3178
17101TIP3    H272795   4.685   4.684   1.151  1.1794  1.0953  2.2798
17102TIP3   OH272796   5.832   4.159   2.939 -0.4519 -0.2250  0.7153
17102TIP3    H172797   5.888   4.236   2.931 -0.0803 -0.5040  0.5597
17102TIP3    H272798   5.748   4.192   2.970 -0.7659  0.4295 -0.7463
17103TIP3   OH272799   0.147   4.033  16.456 -0.5445 -0.2285 -0.2887
17103TIP3    H172800   0.095   4.022  16.377 -2.1848  2.1322  0.3309
17103TIP3    H272801   0.087   4.009  16.527 -0.3550  1.1045  0.3596
17104TIP3   OH272802   1.264   1.356  17.098  0.1411 -0.0799  0.0841
17104TIP3    H172803   1.216   1.295  17.042 -1.4074  0.0384  1.2058
17104TIP3    H272804   1.252   1.441  17.057  1.3656 -0.3419 -0.8762
17105TIP3   OH272805   6.132   2.096   0.193  0.0620  0.0224 -0.1966
17105TIP3    H172806   6.133   2.180   0.239  1.6666 -1.3435  2.5491
17105TIP3    H272807   6.040   2.082   0.170 -0.7977  1.0402  2.2950
17106TIP3   OH272808   4.019   4.198   2.243  0.3396 -0.9212  0.3150
17106TIP3    H172809   4.023   4.122   2.184 -0.8200 -1.3391  0.7420
17106TIP3    H272810   3.972   4.265   2.194  1.4646 -0.4104 -0.1054
17107TIP3   OH272811   5.894   1.629   4.051 -0.4573 -0.1450 -0.1004
17107TIP3    H172812   5.885   1.535   4.035  1.8668 -0.5316  0.4446
17107TIP3    H272813   5.805   1.659   4.069 -1.3800 -2.0602 -1.1358
17108TIP3   OH272814   2.654   0.933   4.060 -0.3873 -0.0157 -0.4366
17108TIP3    H172815   2.699   0.858   4.019  0.4371  0.6735 -0.8424
17108TIP3    H272816   2.615   0.979   3.986  0.8235  1.0526 -0.4517
17109TIP3   OH272817   3.708   3.167   4.660  0.1241 -0.1948 -1.0033
17109TIP3    H172818   3.661   3.159   4.742  0.0542 -2.8348 -1.2289
17109TIP3    H272819   3.796   3.134   4.679  0.5186  0.4219 -1.6785
17110TIP3   OH272820   1.903   1.694  15.678 -0.4463 -0.3720 -0.1189
17110TIP3    H172821   1.995   1.701  15.653 -0.4567  0.4467  0.0452
17110TIP3    H272822   1.904   1.703  15.774 -0.6616 -0.7156 -0.0842
17111TIP3   OH272823   5.135   3.392   0.942  0.1677  0.5044 -0.6733
17111TIP3    H172824   5.189   3.318   0.970 -0.4077  1.0702  2.2594
17111TIP3    H272825   5.045   3.364   0.961 -0.3016  0.9532 -2.1060
17112TIP3   OH272826   3.269   4.347   4.596 -0.1041 -0.2906 -0.3067
17112TIP3    H172827   3.354   4.347   4.640  0.6556  0.1137 -1.7089
17112TIP3    H272828   3.269   4.428   4.545 -1.9472  0.4417  0.7619
17113TIP3   OH272829   0.174   3.444   2.694  0.4706 -0.0412  0.4831
17113TIP3    H172830   0.218   3.359   2.695 -1.2365 -0.9882 -0.7181
17113TIP3    H272831   0.158   3.464   2.786 -1.1242 -2.1451  0.7406
17114TIP3   OH272832   2.352   5.703  14.010  0.2724 -0.0729 -0.1107
17114TIP3    H172833   2.387   5.732  13.926 -0.0919  1.0739  0.1174
17114TIP3    H272834   2.299   5.777  14.041  0.6799 -0.3452  1.2873
17115TIP3   OH272835   3.457   1.518   5.002  0.2593  0.3752 -0.3203
17115TIP3    H172836   3.545   1.488   5.026  0.8581  0.1900 -2.5595
17115TIP3    H272837   3.452   1.608   5.034  1.4525  0.5414 -0.5617
17116TIP3   OH272838   3.809   2.867   6.481  0.1118 -0.5774  0.0987
17116TIP3    H172839   3.891   2.837   6.519 -0.5786  0.2618  2.4151
17116TIP3    H272840   3.810   2.832   6.391  2.4605 -1.4942  0.4090
17117TIP3   OH272841   3.832   6.441  16.093  0.2914 -0.7550 -0.3120
17117TIP3    H172842   3.856   6.525  16.132 -3.8626 -0.2538  1.8173
17117TIP3    H272843   3.844   6.378  16.164 -1.5298 -0.9200 -0.0795
17118TIP3   OH272844   0.588   1.852   5.104  0.2636 -0.0966  0.3049
17118TIP3    H172845   0.548   1.934   5.132 -0.5252 -0.5348  0.4820
17118TIP3    H272846   0.665   1.879   5.054  1.6384  0.7588  2.6722
17119TIP3   OH272847   3.321   5.057   0.927 -0.3601  0.4560  0.6869
17119TIP3    H172848   3.342   5.149   0.911 -0.2006  0.2313 -0.5609
17119TIP3    H272849   3.235   5.058   0.968  0.0691  1.1968  1.5879
17120TIP3   OH272850   4.008   3.217  15.755 -0.3322 -0.2380 -0.0977
17120TIP3    H172851   4.070   3.144  15.750 -0.4353 -0.3807  0.6045
17120TIP3    H272852   3.999   3.247  15.664 -0.6835 -1.4284 -0.4699
17121TIP3   OH272853   0.660   2.716  11.646  0.0868  0.5407 -0.0478
17121TIP3    H172854   0.748   2.705  11.682 -0.1262 -0.3411  0.2274
17121TIP3    H272855   0.645   2.810  11.646  1.6775  0.8534 -1.6412
17122TIP3   OH272856   0.723   5.126   0.066  0.1643  0.1877 -0.5982
17122TIP3    H172857   0.736   5.096  -0.024  2.8574 -2.0382  0.3687
17122TIP3    H272858   0.763   5.213   0.067  1.1554 -0.2263 -1.3442
17123TIP3   OH272859   0.992   0.480   5.441  0.6025  0.6236  0.1557
17123TIP3    H172860   0.982   0.557   5.386  4.0724  0.1013 -1.4793
17123TIP3    H272861   0.999   0.515   5.530 -0.0762  1.9493 -0.2823
17124TIP3   OH272862   3.077   4.124   1.656 -0.5016 -0.5188  0.3355
17124TIP3    H172863   3.009   4.105   1.720 -1.7147  0.3613 -0.6494
17124TIP3    H272864   3.158   4.128   1.707 -1.3496 -0.4014  1.7116
17125TIP3   OH272865   0.450   4.367   5.259 -0.5678 -0.0718 -0.4059
17125TIP3    H172866   0.368   4.414   5.277 -1.5040 -1.9155  0.3507
17125TIP3    H272867   0.449   4.353   5.164 -0.8662  0.3741 -0.4699
17126TIP3   OH272868   3.325   5.914  11.531 -0.1017  0.1068  0.2759
17126TIP3    H172869   3.256   5.954  11.478  1.6853  0.7647 -1.7286
17126TIP3    H272870   3.403   5.967  11.513  1.7583 -2.6088 -0.3579
17127TIP3   OH272871   2.433   6.361   6.262  0.1150 -0.3633 -0.2396
17127TIP3    H172872   2.400   6.421   6.328  0.3704 -0.0328 -0.4062
17127TIP3    H272873   2.526   6.350   6.284  0.0536 -0.7528 -0.1682
17128TIP3   OH272874   3.860   3.674  11.647 -0.1815  0.7870 -0.4209
17128TIP3    H172875   3.904   3.590  11.658  3.6410  2.7647  1.2039
17128TIP3    H272876   3.844   3.704  11.737 -1.3266  1.9157 -0.9665
17129TIP3   OH272877   2.199   4.680   3.132 -0.5306  0.6080 -0.2038
17129TIP3    H172878   2.280   4.632   3.148 -0.3963  0.0923 -2.2694
17129TIP3    H272879   2.202   4.752   3.195  2.6266  1.9156 -1.6372
17130TIP3   OH272880   4.629   0.637   0.300  0.6706 -0.1036  0.1642
17130TIP3    H172881   4.543   0.676   0.314  0.6129  0.2084 -0.9638
17130TIP3    H272882   4.620   0.547   0.331  0.8675  0.7577  3.0073
17131TIP3   OH272883   4.378   2.762  13.704  0.3631  0.2935  0.6658
17131TIP3    H172884   4.417   2.834  13.755 -0.0752  2.4803 -1.8556
17131TIP3    H272885   4.453   2.714  13.670  0.7515  1.1807  0.2328
17132TIP3   OH272886   0.929   3.997   1.466  0.4889  0.4028 -0.6843
17132TIP3    H172887   0.993   3.928   1.484  1.7265  1.3118 -1.4887
17132TIP3    H272888   0.957   4.035   1.383 -1.2483  0.6747 -1.1869
17133TIP3   OH272889   3.485   0.590  15.741 -0.1691 -0.3166 -0.5573
17133TIP3    H172890   3.528   0.507  15.721  0.1652 -0.4174  0.5430
17133TIP3    H272891   3.557   0.651  15.757 -0.4198  0.0922 -0.9379
17134TIP3   OH272892   5.813   3.386   3.549 -0.2223 -0.3532 -0.3160
17134TIP3    H172893   5.795   3.476   3.575 -2.4920 -0.3677 -1.5896
17134TIP3    H272894   5.867   3.351   3.620  0.0624  1.7566  0.5855
17135TIP3   OH272895   0.088   5.560  12.720 -0.1440 -0.5896 -0.0210
17135TIP3    H172896   0.110   5.630  12.659  0.3989 -0.1279  0.6934
17135TIP3    H272897   0.073   5.604  12.804  0.7083 -1.3628  0.5536
17136TIP3   OH272898   5.443   1.276   4.965 -0.1117 -0.1190  0.2277
17136TIP3    H172899   5.487   1.351   5.005 -1.5006  0.0267  1.5819
17136TIP3    H272900   5.511   1.232   4.915  1.7274 -0.2103  2.6635
17137TIP3   OH272901   5.812   3.988   6.323 -0.7828  0.0164 -1.0411
17137TIP3    H172902   5.896   4.008   6.282  0.6327 -0.7240  1.2963
17137TIP3    H272903   5.812   3.892   6.330 -1.8831  0.0037 -1.0741
17138TIP3   OH272904   2.420   0.159  10.769 -0.1053  0.3716 -0.0147
17138TIP3    H172905   2.332   0.178  10.737  0.1271 -0.6860 -1.3267
17138TIP3    H272906   2.465   0.118  10.696  1.2724  0.2391  0.8598
17139TIP3   OH272907   0.148   3.537  15.436  0.0638 -0.4113  0.1205
17139TIP3    H172908   0.187   3.624  15.446 -0.6572 -0.1107  0.3773
17139TIP3    H272909   0.134   3.528  15.341 -0.2588 -0.0665  0.1328
17140TIP3   OH272910   5.387   4.719   4.930 -0.3083 -0.1357 -0.3046
17140TIP3    H172911   5.439   4.784   4.977 -0.6226  0.8366 -1.2655
17140TIP3    H272912   5.375   4.648   4.993 -0.8054  1.1691  1.1286
17141TIP3   OH272913   2.017   4.682   2.208  0.2667 -0.6990 -0.6961
17141TIP3    H172914   1.957   4.645   2.144 -1.5436 -0.8782  1.0181
17141TIP3    H272915   2.034   4.611   2.269  0.8232 -0.1385 -0.1871
17142TIP3   OH272916   5.774   5.070  12.486  0.0791 -0.4687  0.6304
17142TIP3    H172917   5.717   5.043  12.413  1.1045 -0.5050 -0.1820
17142TIP3    H272918   5.830   4.994  12.502  0.5609 -0.0947  0.7560
17143TIP3   OH272919   2.195   2.794   4.353  0.2662  0.3409 -0.0209
17143TIP3    H172920   2.193   2.846   4.434 -1.1450  1.3891 -0.6842
17143TIP3    H272921   2.226   2.708   4.381  0.7522  0.9528  1.4599
17144TIP3   OH272922   6.026   6.765   5.592 -0.5569  0.0122  0.2781
17144TIP3    H172923   5.939   6.792   5.561 -0.5569 -1.0207 -0.6774
17144TIP3    H272924   6.012   6.676   5.626  0.4733 -0.9624 -1.7006
17145TIP3   OH272925   0.389   4.678  15.391 -0.7371 -0.0440 -0.5758
17145TIP3    H172926   0.372   4.743  15.323 -1.1629 -0.0136 -0.4456
17145TIP3    H272927   0.418   4.730  15.467  0.5080 -0.1372 -0.9625
17146TIP3   OH272928   6.478   1.999   2.162 -0.1725 -0.1564 -0.2725
17146TIP3    H172929   6.567   1.964   2.165 -0.1131 -0.1055 -1.1526
17146TIP3    H272930   6.491   2.094   2.155 -0.2852  0.6987  5.6517
17147TIP3   OH272931   0.475   0.051   5.093  0.5498  0.2627 -0.0237
17147TIP3    H172932   0.541  -0.003   5.137  0.9837 -1.6692 -2.8195
17147TIP3    H272933   0.521   0.088   5.018 -1.2633 -0.4183 -1.5376
17148TIP3   OH272934   4.474   6.065   4.350  0.1879 -0.1431  0.6280
17148TIP3    H172935   4.537   6.050   4.280 -0.4890 -0.0895 -0.0054
17148TIP3    H272936   4.521   6.043   4.430  1.3214  0.8141  0.2559
17149TIP3   OH272937   6.551   0.384   4.038  0.3937 -0.3457  0.2955
17149TIP3    H172938   6.556   0.424   4.125 -1.6816 -2.0677  1.3090
17149TIP3    H272939   6.507   0.451   3.985  1.0319  0.4449  0.7298
17150TIP3   OH272940   6.802   2.831   1.834 -0.3456  0.1817 -0.2899
17150TIP3    H172941   6.802   2.896   1.904 -3.3273 -0.9048  0.8901
17150TIP3    H272942   6.834   2.751   1.876 -0.5701 -0.0919 -0.6382
17151TIP3   OH272943   4.005   2.405   2.968  0.4010 -0.1740 -0.3020
17151TIP3    H172944   4.008   2.370   2.878 -0.3450  1.7065 -1.0998
17151TIP3    H272945   3.915   2.388   2.997  0.3150  0.2326 -0.3336
17152TIP3   OH272946   4.030   5.919   6.570  1.0189  0.2627 -0.9504
17152TIP3    H172947   4.032   5.859   6.496  1.5741  0.8968 -1.4669
17152TIP3    H272948   3.939   5.947   6.576  0.9008 -0.0628 -1.1684
17153TIP3   OH272949   3.609   3.615   4.188  0.3670  0.0467  0.4077
17153TIP3    H172950   3.644   3.546   4.245 -5.0551 -1.1617  2.9182
17153TIP3    H272951   3.553   3.569   4.126  0.1901  1.9355 -0.9059
17154TIP3   OH272952   5.029   3.216  13.970  0.1801  0.2863 -0.5105
17154TIP3    H172953   5.035   3.260  14.055 -1.2576  1.3981 -0.9451
17154TIP3    H272954   5.056   3.282  13.907 -2.7712  0.9336 -1.2453
17155TIP3   OH272955   0.988   2.066  13.366 -0.8212 -0.5193  0.2245
17155TIP3    H172956   0.972   1.979  13.330  1.2534 -1.3068  1.0445
17155TIP3    H272957   1.052   2.105  13.306 -0.3225 -0.3026  0.8894
17156TIP3   OH272958   2.756   3.807  16.327  0.4682  0.5305 -0.4697
17156TIP3    H172959   2.748   3.713  16.342  1.1035  0.0741 -2.5842
17156TIP3    H272960   2.849   3.826  16.339  0.7025  0.4604 -2.0127
17157TIP3   OH272961   6.568   1.037  12.514 -0.5671  0.4004 -0.2979
17157TIP3    H172962   6.630   0.977  12.555  0.5935  1.4182 -0.5003
17157TIP3    H272963   6.597   1.124  12.542 -1.9688  0.9066 -0.3281
17158TIP3   OH272964   3.112   4.554  14.332 -0.3135 -0.3157  0.0912
17158TIP3    H172965   3.111   4.526  14.240 -0.6617  0.9953 -0.3272
17158TIP3    H272966   3.100   4.473  14.381 -1.8902 -0.8546 -1.0825
17159TIP3   OH272967   5.692   6.335  14.708 -0.2257  0.0711 -0.3498
17159TIP3    H172968   5.662   6.364  14.794  0.2178  1.4095 -0.6297
17159TIP3    H272969   5.656   6.400  14.647  0.2223 -0.3543 -1.0789
17160TIP3   OH272970   3.853   5.569  12.968 -0.7758 -0.2410 -0.0257
17160TIP3    H172971   3.860   5.482  12.930 -0.0149  0.0369 -0.5682
17160TIP3    H272972   3.760   5.582  12.985 -0.8757 -1.1994  0.1710
17161TIP3   OH272973   5.573   4.360   3.277  0.3316  0.1856  0.0584
17161TIP3    H172974   5.605   4.286   3.328 -0.7772 -0.9652 -0.8649
17161TIP3    H272975   5.488   4.332   3.244  0.4356  1.3978 -1.3548
17162TIP3   OH272976   3.777   0.296   1.284 -0.0928 -0.1652 -0.2637
17162TIP3    H172977   3.828   0.332   1.356 -0.4020  0.0230 -0.1395
17162TIP3    H272978   3.687   0.321   1.303 -0.2659 -0.6970 -0.3595
17163TIP3   OH272979   2.725   2.368  14.678  0.5432 -0.9991 -0.3637
17163TIP3    H172980   2.799   2.421  14.706  0.7193 -2.0364  1.2851
17163TIP3    H272981   2.662   2.431  14.642  1.7063  0.0262 -0.6600
17164TIP3   OH272982   2.419   3.973   0.451  0.1374  0.2194  0.4747
17164TIP3    H172983   2.346   3.918   0.478 -1.2676  2.5383  1.6329
17164TIP3    H272984   2.491   3.949   0.510  0.5510 -2.3285 -0.9049
17165TIP3   OH272985   0.553   3.075   3.406  0.2327  0.1243 -0.3072
17165TIP3    H172986   0.498   3.009   3.447 -1.1681  0.2628 -1.8614
17165TIP3    H272987   0.598   3.029   3.335  1.7065  0.1555  0.5668
17166TIP3   OH272988   0.523   5.332  10.662 -0.7298 -0.1926 -0.4754
17166TIP3    H172989   0.487   5.249  10.695 -1.9471  0.5296  0.0777
17166TIP3    H272990   0.614   5.312  10.640 -1.0477 -1.7206 -0.5143
17167TIP3   OH272991   2.227   4.270  11.037 -0.4575 -0.3384 -1.1750
17167TIP3    H172992   2.141   4.258  10.998 -0.2920 -0.5749 -1.4747
17167TIP3    H272993   2.225   4.359  11.073 -1.3426 -0.8734  0.1552
17168TIP3   OH272994   2.472   0.909   5.214 -0.1895  0.4682  0.3277
17168TIP3    H172995   2.456   0.861   5.295 -0.7339 -0.1753 -0.1478
17168TIP3    H272996   2.418   0.987   5.221 -0.7527  0.0858  0.3074
17169TIP3   OH272997   1.699   1.168  11.950  0.6381  0.9070  0.3096
17169TIP3    H172998   1.666   1.090  11.906  1.4145  0.6811  0.1197
17169TIP3    H272999   1.707   1.234  11.881 -1.8234  1.7989  0.7581
17170TIP3   OH273000   2.310   4.632   6.939  0.0245  0.6298 -0.2097
17170TIP3    H173001   2.367   4.629   6.862  0.9675 -0.1342  0.4901
17170TIP3    H273002   2.239   4.571   6.918  0.9306 -0.5349  0.0017
17171TIP3   OH273003   2.246   0.973   4.988  0.4482 -0.1487 -0.7102
17171TIP3    H173004   2.233   0.917   5.065 -1.0681  0.6649 -0.3413
17171TIP3    H273005   2.237   1.062   5.022  2.7196  0.3592 -1.3088
17172TIP3   OH273006   6.319   2.965   3.377 -0.1407  0.1875  0.3521
17172TIP3    H173007   6.300   3.056   3.358 -0.0090 -0.3316 -2.8213
17172TIP3    H273008   6.250   2.916   3.331  0.5857 -1.3220  0.8032
17173TIP3   OH273009   2.167   1.775   0.124  0.5037 -0.9064  0.9499
17173TIP3    H173010   2.219   1.818   0.192  1.6640 -1.0258  0.1775
17173TIP3    H273011   2.082   1.817   0.127  1.5148  1.2981  0.3809
17174TIP3   OH273012   3.945   3.953   2.696 -0.1375 -0.4020 -0.8180
17174TIP3    H173013   3.928   4.026   2.636  0.7766  0.1737 -0.3874
17174TIP3    H273014   4.039   3.955   2.711 -0.3810 -0.3094  0.9221
17175TIP3   OH273015   4.381   3.525  11.755  0.1518  0.4326  0.0034
17175TIP3    H173016   4.410   3.606  11.796 -1.2372  0.0509  1.8771
17175TIP3    H273017   4.430   3.456  11.801 -0.5839  0.0685  0.2616
17176TIP3   OH273018   0.731   1.083   6.474  0.2204 -0.0577  0.7919
17176TIP3    H173019   0.773   1.167   6.456 -1.6503  0.6965 -0.3406
17176TIP3    H273020   0.767   1.023   6.408  0.7264  0.1322  0.8921
17177TIP3   OH273021   4.028   0.412  10.690  0.3160 -0.6537 -0.1191
17177TIP3    H173022   3.977   0.352  10.744 -1.0135  0.5487  0.0244
17177TIP3    H273023   4.116   0.375  10.689  0.0486 -1.4216  1.7525
17178TIP3   OH273024   1.198   0.181  14.757  0.3336  0.2516  0.7729
17178TIP3    H173025   1.103   0.165  14.754  0.6207 -1.5906 -2.0628
17178TIP3    H273026   1.225   0.147  14.842 -1.5042  0.6792  1.5859
17179TIP3   OH273027   3.804   2.806   6.202 -0.1026 -0.4250 -0.1776
17179TIP3    H173028   3.848   2.722   6.191  1.2803  0.2208  0.2675
17179TIP3    H273029   3.798   2.842   6.114 -0.8149 -1.0294 -0.3881
17180TIP3   OH273030   2.710   3.848  12.105 -0.0250  0.3263  0.0695
17180TIP3    H173031   2.752   3.775  12.061 -0.5383 -0.5126  0.9397
17180TIP3    H273032   2.754   3.854  12.190 -1.7922 -0.7629  1.1210
17181TIP3   OH273033   1.691   0.519   2.021 -0.4479  0.2980  0.3084
17181TIP3    H173034   1.741   0.595   1.991 -0.2234 -0.8417 -2.5460
17181TIP3    H273035   1.756   0.449   2.025 -0.9824 -0.1599  1.1695
17182TIP3   OH273036   2.618   4.754  13.415 -0.4912  0.0695 -0.3139
17182TIP3    H173037   2.639   4.695  13.487 -0.4766 -0.9417 -1.1239
17182TIP3    H273038   2.696   4.808  13.405 -1.2849  1.7543  1.8418
17183TIP3   OH273039   6.011   5.596  11.406 -0.1119  0.1878  0.3183
17183TIP3    H173040   5.961   5.647  11.342 -0.4486  0.5885  0.8955
17183TIP3    H273041   6.102   5.617  11.388 -0.2192  0.5198  0.1542
17184TIP3   OH273042   0.656   6.137  13.254 -0.4870 -0.0780 -0.0135
17184TIP3    H173043   0.746   6.166  13.267 -0.4484  0.1329 -0.7224
17184TIP3    H273044   0.612   6.156  13.337 -0.2481  1.1922 -0.1696
17185TIP3   OH273045   3.692   0.322  11.287  0.0640  0.0123 -0.0197
17185TIP3    H173046   3.615   0.276  11.320 -0.7818  0.6914 -0.9956
17185TIP3    H273047   3.760   0.304  11.353 -0.3568 -2.1642 -0.0999
17186TIP3   OH273048   4.502   5.945  13.257  0.0155  0.4716 -0.1330
17186TIP3    H173049   4.443   6.006  13.213  0.3174  1.2518  0.5165
17186TIP3    H273050   4.582   5.995  13.272  0.3388 -0.1418  0.2512
17187TIP3   OH273051   5.188   0.139   5.481  0.4537 -0.1241  0.0056
17187TIP3    H173052   5.140   0.174   5.406  0.1188 -0.0921  0.2364
17187TIP3    H273053   5.127   0.145   5.554  1.3150  1.3531  0.6547
17188TIP3   OH273054   2.469   6.493  15.041 -0.5988 -0.2850  0.1405
17188TIP3    H173055   2.531   6.553  15.000 -0.4717  0.8301  1.8587
17188TIP3    H273056   2.511   6.407  15.035  0.5458  0.2488  0.1624
17189TIP3   OH273057   2.216   6.631  13.331 -0.1409 -0.2233 -0.5520
17189TIP3    H173058   2.230   6.725  13.325 -0.6341 -0.0559  0.7615
17189TIP3    H273059   2.238   6.599  13.243  0.6966  1.0098 -0.8239
17190TIP3   OH273060   5.790   6.384  16.938 -0.0045  0.0766  0.0769
17190TIP3    H173061   5.749   6.420  17.017 -0.4561  0.1139 -0.1718
17190TIP3    H273062   5.839   6.458  16.901  1.9450 -0.4609  1.4323
17191TIP3   OH273063   0.388   1.965  15.038 -0.0785  0.5175 -0.0387
17191TIP3    H173064   0.454   2.033  15.044  0.7599 -0.4136  3.2193
17191TIP3    H273065   0.426   1.900  14.978  1.9971  0.0403  1.6944
17192TIP3   OH273066   1.290   4.630  14.022 -0.0487 -0.1776  0.3034
17192TIP3    H173067   1.204   4.617  13.982 -0.6422  3.0520  0.2698
17192TIP3    H273068   1.275   4.620  14.116 -1.2407  3.0949  0.5876
17193TIP3   OH273069   3.336   2.633   1.636 -0.6350 -0.1389  0.1351
17193TIP3    H173070   3.370   2.654   1.548 -1.3954  0.6843  0.0154
17193TIP3    H273071   3.333   2.718   1.680  1.4239 -0.7694  1.6026
17194TIP3   OH273072   3.554   0.746   0.300  0.1756  0.3141  0.3552
17194TIP3    H173073   3.645   0.774   0.314 -0.0729  1.0370  0.5859
17194TIP3    H273074   3.506   0.783   0.374 -0.8371  2.5822 -1.3214
17195TIP3   OH273075   5.612   5.079  14.167 -0.2561  0.5451  0.7466
17195TIP3    H173076   5.601   5.047  14.257 -3.4320 -0.8268  0.0205
17195TIP3    H273077   5.585   5.005  14.112  1.3353  1.4427 -1.3761
17196TIP3   OH273078   5.470   2.584  15.320  0.0823 -0.6935 -0.4939
17196TIP3    H173079   5.408   2.532  15.371  0.7905 -0.6612  0.4343
17196TIP3    H273080   5.454   2.559  15.229 -0.9214 -1.0693 -0.2287
17197TIP3   OH273081   2.080   2.247   4.830  0.2654  0.1863  0.0663
17197TIP3    H173082   2.126   2.317   4.878  1.3977 -0.6548  0.2502
17197TIP3    H273083   2.127   2.240   4.747  1.4904 -1.6883  0.8450
17198TIP3   OH273084   4.065   3.576  13.525 -0.2679  0.3487 -0.3893
17198TIP3    H173085   4.049   3.646  13.461  0.1152  1.6198  0.8674
17198TIP3    H273086   3.984   3.573  13.577 -0.4796 -0.5143 -0.7422
17199TIP3   OH273087   4.722   3.866   4.498 -0.1013  0.4976 -0.3510
17199TIP3    H173088   4.715   3.960   4.483 -0.8027  0.2308 -1.9944
17199TIP3    H273089   4.730   3.856   4.593 -2.3631  2.0859  0.0730
17200TIP3   OH273090   2.860   6.534  15.794 -0.0694  0.0831  0.0294
17200TIP3    H173091   2.800   6.559  15.724 -1.1937 -1.2485  0.4729
17200TIP3    H273092   2.932   6.489  15.751  0.4763  1.3937 -0.4764
17201TIP3   OH273093   5.451   6.181  14.664 -0.3496  0.3460 -0.1774
17201TIP3    H173094   5.544   6.181  14.683 -0.3479 -0.0564 -0.1709
17201TIP3    H273095   5.409   6.211  14.745 -0.1868  1.1388 -0.3899
17202TIP3   OH273096   6.166   5.015   0.963 -0.3641 -0.5087  0.2551
17202TIP3    H173097   6.204   5.089   0.917  0.7653 -1.1354  0.1579
17202TIP3    H273098   6.156   4.947   0.896  0.0944 -0.9860  0.6655
17203TIP3   OH273099   0.594   2.929  16.287  0.0415  0.5210  0.0177
17203TIP3    H173100   0.537   2.867  16.240 -0.7880  1.5983 -0.4287
17203TIP3    H273101   0.680   2.888  16.285 -0.5695 -0.8411  0.1209
17204TIP3   OH273102   6.489   5.872   6.323 -0.2127  0.1905  0.0421
17204TIP3    H173103   6.518   5.782   6.311 -0.2797  0.3295 -1.3200
17204TIP3    H273104   6.435   5.870   6.402  1.6562 -0.4991  1.3562
17205TIP3   OH273105   4.732   0.994   2.250 -0.0776  0.2983  0.1377
17205TIP3    H173106   4.771   1.076   2.283 -0.0930  0.5966 -0.5678
17205TIP3    H273107   4.793   0.926   2.279 -0.0475  0.5536  0.7065
17206TIP3   OH273108   0.584   2.042  14.772  0.1306  0.1597 -0.6320
17206TIP3    H173109   0.632   2.124  14.782  0.4054 -0.0885  0.1323
17206TIP3    H273110   0.496   2.069  14.744 -0.1940  0.8134  0.9369
17207TIP3   OH273111   6.591   6.512   3.488 -0.0426 -0.5573  0.0701
17207TIP3    H173112   6.638   6.572   3.547 -0.6252 -0.2564  0.2292
17207TIP3    H273113   6.499   6.531   3.502 -0.2350 -1.4434  0.0668
17208TIP3   OH273114   1.719   1.178   3.971 -0.2999 -0.0976  0.3507
17208TIP3    H173115   1.774   1.130   4.032 -0.7509 -0.6258  0.3506
17208TIP3    H273116   1.696   1.115   3.903  0.9163  0.7136 -0.8637
17209TIP3   OH273117   4.333   0.914  15.361  0.5058 -0.1451 -0.1493
17209TIP3    H173118   4.413   0.863  15.353  0.7613  0.1651  0.4052
17209TIP3    H273119   4.272   0.856  15.406  0.1496 -0.6684 -1.2552
17210TIP3   OH273120   3.502   0.486   0.209  0.7182  0.3533 -0.5287
17210TIP3    H173121   3.484   0.580   0.209  1.4696  0.5047 -1.1126
17210TIP3    H273122   3.513   0.463   0.301 -0.0249  0.7172 -0.3397
17211TIP3   OH273123   6.119   5.894   5.139  0.0283  0.4969 -0.3931
17211TIP3    H173124   6.047   5.951   5.169  0.3830  0.8722 -0.2441
17211TIP3    H273125   6.075   5.818   5.101 -0.4385  0.1511  0.8034
17212TIP3   OH273126   6.246   0.092   0.753 -0.4528  0.2440 -0.2243
17212TIP3    H173127   6.279   0.086   0.842 -1.7717  0.6964  0.3124
17212TIP3    H273128   6.177   0.026   0.748 -0.4444  0.2767 -0.8860
17213TIP3   OH273129   3.894   5.006   3.431  0.0257 -0.2028  0.2003
17213TIP3    H173130   3.940   4.995   3.348 -2.2898 -0.5294 -1.1212
17213TIP3    H273131   3.924   5.091   3.464  2.3107 -0.8718 -0.0455
17214TIP3   OH273132   2.456   0.266   1.737 -0.3852 -0.0149 -0.4323
17214TIP3    H173133   2.374   0.216   1.732  0.8258 -2.1034 -0.8074
17214TIP3    H273134   2.448   0.332   1.668 -1.5799 -0.4676 -0.7596
17215TIP3   OH273135   4.510   6.052   1.637 -0.0087  0.1304  0.2837
17215TIP3    H173136   4.576   5.987   1.663  2.1959  1.2272 -2.1756
17215TIP3    H273137   4.465   6.012   1.563  1.4018  1.3043 -1.2852
17216TIP3   OH273138   3.608   1.096   5.933  0.1502 -0.3690  0.3914
17216TIP3    H173139   3.674   1.035   5.967 -0.9818 -1.6181  0.4667
17216TIP3    H273140   3.583   1.149   6.009  1.3599  0.4065  0.2584
17217TIP3   OH273141   2.388   1.372   1.322  0.0828 -0.0955  0.4408
17217TIP3    H173142   2.420   1.430   1.253  0.8446  0.3276  1.1316
17217TIP3    H273143   2.467   1.333   1.360 -0.3732 -0.9433  0.5494
17218TIP3   OH273144   1.556   3.182   4.627  0.0750  0.1493 -0.5295
17218TIP3    H173145   1.637   3.227   4.601  1.0397 -1.8945 -1.3077
17218TIP3    H273146   1.511   3.163   4.545 -1.1088  1.0728 -0.1096
17219TIP3   OH273147   5.692   4.422  14.221 -0.1991 -0.1796 -0.2384
17219TIP3    H173148   5.598   4.416  14.236 -0.3947  0.2972 -1.2236
17219TIP3    H273149   5.728   4.347  14.269 -0.8795  0.6138  1.6213
17220TIP3   OH273150   0.914   0.871   3.225  0.2143  0.2396  0.3512
17220TIP3    H173151   0.960   0.920   3.156 -0.5661  0.0842 -0.2927
17220TIP3    H273152   0.950   0.905   3.306  3.0017 -1.2922 -0.1119
17221TIP3   OH273153   5.235   1.068   5.321 -0.9067  0.2695 -0.5190
17221TIP3    H173154   5.231   1.036   5.232 -2.1844 -0.4363 -0.2290
17221TIP3    H273155   5.269   0.994   5.372 -1.0066  0.3772 -0.2940
17222TIP3   OH273156   5.671   4.816  14.813  0.1540 -0.1456 -0.1444
17222TIP3    H173157   5.625   4.787  14.734 -0.8164 -1.2371  0.7786
17222TIP3    H273158   5.757   4.844  14.782  0.1069 -1.3712 -1.4770
17223TIP3   OH273159   6.784   4.895  13.162 -0.5159  0.3355 -0.3164
17223TIP3    H173160   6.875   4.866  13.159 -0.6577 -0.2179  0.4515
17223TIP3    H273161   6.739   4.828  13.213 -1.0632  1.3265  0.5617
17224TIP3   OH273162   1.341   5.758   5.902  1.1281  0.1129 -0.5438
17224TIP3    H173163   1.254   5.787   5.876 -0.4479 -1.8901  2.0862
17224TIP3    H273164   1.393   5.839   5.903 -1.1943  1.7060 -0.2766
17225TIP3   OH273165   4.516   2.012  15.043 -0.0161  0.4637  0.5843
17225TIP3    H173166   4.466   1.943  14.998  1.2413  1.5091 -2.7129
17225TIP3    H273167   4.601   1.972  15.062  0.6421  0.9260 -1.1494
17226TIP3   OH273168   0.312   2.709   0.837  0.4770  0.3716  0.0228
17226TIP3    H173169   0.315   2.803   0.818 -0.4908  0.3732 -0.1670
17226TIP3    H273170   0.260   2.672   0.766  1.2578 -0.3834 -0.1608
17227TIP3   OH273171   6.594   0.365   4.697  0.1480 -0.3071 -0.5786
17227TIP3    H173172   6.610   0.459   4.698  0.4729 -0.3447 -1.2198
17227TIP3    H273173   6.506   0.356   4.660 -0.0996 -0.2356 -0.0144
17228TIP3   OH273174   5.166   1.459  14.473 -0.3975 -0.2999  0.0505
17228TIP3    H173175   5.226   1.502  14.413 -0.2349  4.4438  3.0883
17228TIP3    H273176   5.084   1.452  14.425  0.8837 -1.1408 -2.1308
17229TIP3   OH273177   1.923   1.004  14.970 -0.1703  0.3549 -0.2090
17229TIP3    H173178   1.964   1.087  14.994  0.0636  0.0185  0.5636
17229TIP3    H273179   1.831   1.027  14.955 -0.1223  0.7423  0.0635
17230TIP3   OH273180   5.601   0.822  14.711 -0.4207  0.3476 -0.4262
17230TIP3    H173181   5.640   0.895  14.663  1.6024  0.3480  1.1000
17230TIP3    H273182   5.630   0.833  14.801 -1.6254 -1.3187  0.2264
17231TIP3   OH273183   1.764   2.767  12.130 -0.1176 -0.4211  0.1529
17231TIP3    H173184   1.702   2.827  12.088 -1.0606 -1.0949  0.5506
17231TIP3    H273185   1.798   2.715  12.058  0.9897  0.8067 -0.2543
17232TIP3   OH273186   6.273   0.913  16.323  0.2265 -0.2125  0.0876
17232TIP3    H173187   6.179   0.896  16.316 -0.6310  3.3904  0.8353
17232TIP3    H273188   6.293   0.897  16.415  0.0726  0.1097  0.1779
17233TIP3   OH273189   2.797   0.558   3.528  0.0412 -0.0858  0.4625
17233TIP3    H173190   2.791   0.641   3.574 -0.0607 -0.2222  0.7006
17233TIP3    H273191   2.882   0.560   3.484  0.0786  0.1034  0.5462
17234TIP3   OH273192   2.382   2.752   4.932 -0.6072 -0.0838  0.2189
17234TIP3    H173193   2.426   2.707   5.003 -0.1611 -0.1387 -0.0865
17234TIP3    H273194   2.443   2.747   4.859 -0.7956  0.5120  0.0139
17235TIP3   OH273195   0.629   3.662   5.899 -0.3279  0.2104 -0.1480
17235TIP3    H173196   0.714   3.669   5.855 -0.6864 -0.1590 -0.9149
17235TIP3    H273197   0.647   3.689   5.989  1.1200 -2.1962  0.3611
17236TIP3   OH273198   5.172   0.243   2.351 -0.3956 -0.0271 -0.0222
17236TIP3    H173199   5.079   0.262   2.350 -0.2098  1.5356  2.6662
17236TIP3    H273200   5.213   0.323   2.385  2.0291 -0.3999 -1.7502
17237TIP3   OH273201   1.500   0.849  11.292 -0.1196  0.1400  0.1597
17237TIP3    H173202   1.543   0.911  11.351 -0.5366 -1.3859  2.1561
17237TIP3    H273203   1.527   0.763  11.324 -0.0633 -0.7714 -2.1487
17238TIP3   OH273204   0.856   6.026   6.699  0.8448  0.4576 -0.4507
17238TIP3    H173205   0.890   5.943   6.667 -0.2283  0.0443 -0.5352
17238TIP3    H273206   0.761   6.016   6.699  0.7381  1.0548  1.1981
17239TIP3   OH273207   4.148   3.798  12.563  0.0533 -0.1625  0.3917
17239TIP3    H173208   4.112   3.784  12.475 -1.2466 -1.1478  1.0493
17239TIP3    H273209   4.240   3.820  12.548 -0.1213 -0.3939 -1.2041
17240TIP3   OH273210   2.859   5.740  16.032  0.0070 -0.4490  0.2092
17240TIP3    H173211   2.768   5.751  16.060 -0.0020 -1.2580  0.5132
17240TIP3    H273212   2.852   5.720  15.939 -0.2601 -2.2168  0.5642
17241TIP3   OH273213   5.657   1.635   0.699  0.1811 -0.3648 -0.0693
17241TIP3    H173214   5.599   1.621   0.774  0.4783 -0.7259  0.0977
17241TIP3    H273215   5.641   1.559   0.643  2.0849 -1.6548  1.0213
17242TIP3   OH273216   4.559   0.738   0.894 -0.0690 -0.5540 -0.6174
17242TIP3    H173217   4.575   0.812   0.953 -1.7130 -0.4381 -0.2404
17242TIP3    H273218   4.603   0.761   0.813 -0.5101  0.8401 -0.4891
17243TIP3   OH273219   6.170   5.507   3.634 -0.2578 -0.0508  0.0357
17243TIP3    H173220   6.148   5.429   3.686 -1.3984 -0.5819 -1.1866
17243TIP3    H273221   6.265   5.506   3.629 -0.1587 -0.4248  1.4262
17244TIP3   OH273222   0.428   2.985  11.978 -0.4465  0.0050  0.3307
17244TIP3    H173223   0.522   2.969  11.981 -0.6069 -0.8865  0.5642
17244TIP3    H273224   0.414   3.055  12.041 -0.1212 -0.7530  1.2621
17245TIP3   OH273225   3.239   6.198  11.171 -0.1318  0.3758 -0.6740
17245TIP3    H173226   3.332   6.212  11.189 -0.3005 -0.2981  0.8720
17245TIP3    H273227   3.233   6.106  11.148 -0.5646  0.1346  0.3721
17246TIP3   OH273228   6.529   4.093  12.572 -1.4235 -0.5071 -0.4666
17246TIP3    H173229   6.585   4.093  12.650 -1.7428  0.9141 -0.1954
17246TIP3    H273230   6.440   4.101  12.607 -1.6388 -0.7401 -0.9521
17247TIP3   OH273231   1.800   5.207   0.562 -1.1278  0.4160 -0.2799
17247TIP3    H173232   1.878   5.198   0.617 -0.3547  3.7279 -0.6395
17247TIP3    H273233   1.808   5.135   0.499  0.8700 -0.2013  0.5810
17248TIP3   OH273234   5.148   0.615   4.933  0.1564 -0.0223 -0.3145
17248TIP3    H173235   5.234   0.577   4.917  0.4508  0.6291 -0.2871
17248TIP3    H273236   5.107   0.555   4.996  0.6565 -0.2366 -0.1858
17249TIP3   OH273237   1.026   0.485   4.067  0.0395 -0.0799  0.1807
17249TIP3    H173238   1.071   0.521   4.143  1.5833  1.0501 -1.1745
17249TIP3    H273239   1.017   0.392   4.086  0.6859  0.1150  1.5911
17250TIP3   OH273240   2.177   0.271  14.841 -0.0713 -0.5504 -0.4130
17250TIP3    H173241   2.151   0.344  14.897 -1.8834  2.0443 -4.1848
17250TIP3    H273242   2.259   0.300  14.800 -0.1597 -1.1612 -1.0444
17251TIP3   OH273243   5.565   6.031  13.766 -0.4746 -0.0569 -0.0222
17251TIP3    H173244   5.581   6.115  13.811 -2.0089  0.1602  0.1794
17251TIP3    H273245   5.647   5.984  13.774 -0.4561  0.2451  2.4805
17252TIP3   OH273246   3.974   0.133  14.324  0.2583 -0.0048 -0.0998
17252TIP3    H173247   3.986   0.061  14.262  1.2967  0.4427 -0.4571
17252TIP3    H273248   4.047   0.192  14.305  1.1147 -0.2677  2.1389
17253TIP3   OH273249   1.195   4.462   1.214  0.5760  0.5081 -0.0807
17253TIP3    H173250   1.171   4.389   1.271  0.5321 -0.4208 -1.2229
17253TIP3    H273251   1.115   4.513   1.205 -0.6902 -1.6103 -2.4814
17254TIP3   OH273252   3.432   3.644  16.767  0.1099  0.5361 -0.1576
17254TIP3    H173253   3.344   3.627  16.800 -0.1795  1.1482 -0.5953
17254TIP3    H273254   3.478   3.560  16.777 -0.7413  0.0011 -0.6386
17255TIP3   OH273255   3.896   3.515   0.694 -0.1057  0.4355  0.7697
17255TIP3    H173256   3.867   3.432   0.733 -1.8480  0.7976  0.3088
17255TIP3    H273257   3.990   3.517   0.711  0.1727 -2.1105 -0.0768
17256TIP3   OH273258   2.191   2.801   5.396 -0.2834  0.1296 -0.0583
17256TIP3    H173259   2.149   2.749   5.464 -1.5209 -1.2290 -1.7725
17256TIP3    H273260   2.120   2.829   5.339  0.7553  0.7547 -1.0978
17257TIP3   OH273261   2.246   1.468   3.184  0.1421 -0.2176  0.3306
17257TIP3    H173262   2.341   1.461   3.179  0.4320  2.2817  0.9756
17257TIP3    H273263   2.229   1.506   3.270 -1.4116 -0.3000  0.0863
17258TIP3   OH273264   5.257   1.495  10.631  0.0622  1.3670  0.3440
17258TIP3    H173265   5.264   1.507  10.726  3.2640 -2.5121  0.8591
17258TIP3    H273266   5.326   1.550  10.594 -0.0083  1.5185  0.4369
17259TIP3   OH273267   4.118   5.280   2.190 -0.0683  0.5792 -0.3033
17259TIP3    H173268   4.090   5.355   2.243 -1.4686  0.5485 -0.9684
17259TIP3    H273269   4.044   5.220   2.191  1.1267 -0.9440  0.4147
17260TIP3   OH273270   4.885   1.281   3.189  0.2123 -0.0155 -0.2513
17260TIP3    H173271   4.839   1.350   3.236  1.7264  0.8099  0.0986
17260TIP3    H273272   4.936   1.236   3.256 -0.3360 -1.1499 -0.5678
17261TIP3   OH273273   4.838   2.881   1.478 -0.5697  0.3447 -0.2380
17261TIP3    H173274   4.762   2.882   1.537  0.7360  1.3820  1.5302
17261TIP3    H273275   4.898   2.818   1.519 -0.2939 -0.1754 -1.4104
17262TIP3   OH273276   1.106   2.547   3.512 -0.1681  0.2945 -0.2278
17262TIP3    H173277   1.076   2.609   3.578 -1.4479 -0.0998 -0.4047
17262TIP3    H273278   1.056   2.467   3.531 -0.1809  0.0213 -1.3508
17263TIP3   OH273279   0.704   3.650   3.435  0.0460  0.4451 -0.2194
17263TIP3    H173280   0.782   3.687   3.476  1.5083 -2.1197 -0.5231
17263TIP3    H273281   0.640   3.645   3.507  1.3563 -0.6353  0.9240
17264TIP3   OH273282   4.806   6.451  13.017 -0.0200  0.0280  0.3090
17264TIP3    H173283   4.819   6.402  12.936 -0.7462 -1.0842  0.8437
17264TIP3    H273284   4.760   6.530  12.991 -0.0363 -0.2101 -0.3907
17265TIP3   OH273285   2.304   1.528   0.366  0.1555  0.0555  0.3097
17265TIP3    H173286   2.301   1.589   0.439 -0.8834 -0.8385  1.0536
17265TIP3    H273287   2.267   1.447   0.401  0.5719 -0.6981 -0.9273
17266TIP3   OH273288   1.809   0.116  15.880  0.1216 -0.4852 -0.5266
17266TIP3    H173289   1.829   0.042  15.937  1.8692  1.7133  1.9566
17266TIP3    H273290   1.746   0.168  15.929 -0.0878  0.3285 -1.6223
17267TIP3   OH273291   0.556   4.713   6.017 -0.4170 -0.2016  0.1802
17267TIP3    H173292   0.550   4.625   5.978  1.9534 -0.2439 -0.2204
17267TIP3    H273293   0.587   4.768   5.945 -1.5792  0.9352  0.5163
17268TIP3   OH273294   5.929   0.185   5.473  0.7069  0.0142  0.1187
17268TIP3    H173295   5.858   0.122   5.462 -0.0247  0.7764  0.3259
17268TIP3    H273296   5.916   0.248   5.402 -0.9800  2.1175  2.1558
17269TIP3   OH273297   4.625   5.858   0.922 -0.2910 -0.1951  0.2672
17269TIP3    H173298   4.624   5.882   0.829 -1.3416 -0.8567  0.0923
17269TIP3    H273299   4.660   5.769   0.924  2.3767  0.7980  0.7962
17270TIP3   OH273300   6.456   0.482   5.069 -0.2014 -0.0121  0.3100
17270TIP3    H173301   6.455   0.517   5.158  0.3827 -0.1288  0.3669
17270TIP3    H273302   6.494   0.552   5.016 -0.6599  0.1039  0.1270
17271TIP3   OH273303   2.998   3.902   5.600 -0.3791  0.7307  0.4341
17271TIP3    H173304   3.082   3.930   5.637 -0.5640  0.8705  0.7451
17271TIP3    H273305   2.989   3.811   5.628 -0.4704  0.8052  0.6487
17272TIP3   OH273306   3.762   1.792   2.636 -0.4616  0.2334 -0.3055
17272TIP3    H173307   3.802   1.798   2.549  1.0928 -0.9613  0.2692
17272TIP3    H273308   3.674   1.759   2.620 -0.4647  0.7663 -1.4735
17273TIP3   OH273309   1.968   0.623  13.728  0.0676 -0.2655 -0.2444
17273TIP3    H173310   1.927   0.638  13.814 -0.4020  0.8033 -0.6352
17273TIP3    H273311   2.061   0.612  13.747  0.2437  1.7967  0.2547
17274TIP3   OH273312   3.441   3.185  14.649 -0.0515  0.1553  0.8799
17274TIP3    H173313   3.494   3.124  14.699 -0.4761 -1.6025 -0.6760
17274TIP3    H273314   3.360   3.138  14.632 -0.2115  0.9494 -0.7926
17275TIP3   OH273315   6.821   1.009   4.277  0.4567  0.7830  0.2716
17275TIP3    H173316   6.814   1.001   4.182  2.4544 -1.7250  0.2547
17275TIP3    H273317   6.892   1.072   4.290 -1.1157  2.6953  0.2294
17276TIP3   OH273318   3.874   6.333   5.971 -0.0438 -0.0069 -0.0962
17276TIP3    H173319   3.959   6.340   5.927 -0.2311  2.3316 -0.2051
17276TIP3    H273320   3.829   6.263   5.923  1.6173 -0.9720 -0.3342
17277TIP3   OH273321   5.268   1.921   4.344  0.3757  0.0596 -0.6818
17277TIP3    H173322   5.361   1.935   4.329  1.0000  1.0571  3.1437
17277TIP3    H273323   5.263   1.834   4.384  0.4588  1.7605  3.4821
17278TIP3   OH273324   3.441   6.397   1.323  0.6276  0.2812 -0.1537
17278TIP3    H173325   3.403   6.464   1.266 -1.4636 -0.2472  0.4936
17278TIP3    H273326   3.514   6.360   1.274  0.7002  1.8056 -1.2480
17279TIP3   OH273327   0.890   5.969   0.024 -0.1758 -0.1092  0.0850
17279TIP3    H173328   0.808   5.983  -0.024 -0.7209 -2.4844  0.1968
17279TIP3    H273329   0.931   6.055   0.027 -1.9407  0.8484 -1.3099
17280TIP3   OH273330   1.766   3.837   1.593 -0.0101  0.2414  0.2219
17280TIP3    H173331   1.859   3.859   1.584 -0.2343  1.1149 -0.0686
17280TIP3    H273332   1.765   3.761   1.651  0.8780  0.3326  0.3748
17281TIP3   OH273333   1.974   6.609   1.152  0.4060  0.6188 -0.1553
17281TIP3    H173334   1.972   6.576   1.062 -2.2347 -1.3924  0.5139
17281TIP3    H273335   2.067   6.614   1.174  1.1252 -3.0200 -1.6023
17282TIP3   OH273336   0.557   5.721  14.065 -0.0278  0.5925 -0.4472
17282TIP3    H173337   0.577   5.731  13.972  3.1154 -0.4771 -0.0221
17282TIP3    H273338   0.509   5.638  14.070  0.8156  0.0451 -1.0503
17283TIP3   OH273339   4.433   6.836   2.235  0.6308 -0.3590 -0.1997
17283TIP3    H173340   4.526   6.826   2.212  1.0820  1.8105  0.4219
17283TIP3    H273341   4.432   6.832   2.331  0.1662  0.0784 -0.1843
17284TIP3   OH273342   5.922   5.483   3.825  0.2260  0.1566  0.3798
17284TIP3    H173343   5.917   5.438   3.740 -1.3215  0.8894  0.0342
17284TIP3    H273344   5.926   5.412   3.889  1.9262 -0.4043 -0.3025
17285TIP3   OH273345   6.343   1.757  10.419 -0.4983  0.3890 -0.4168
17285TIP3    H173346   6.397   1.683  10.446 -1.2359  0.1316  0.4106
17285TIP3    H273347   6.256   1.737  10.454 -1.2933  0.5091 -2.2279
17286TIP3   OH273348   6.194   5.607  10.723  0.3154  0.4315 -0.0256
17286TIP3    H173349   6.288   5.613  10.734  0.4472 -0.0971 -0.7692
17286TIP3    H273350   6.176   5.513  10.720 -0.2527  0.5267  0.2778
17287TIP3   OH273351   4.833   1.589   5.748 -0.4822  0.7674  0.4223
17287TIP3    H173352   4.801   1.542   5.670  0.3083  0.0437  0.5233
17287TIP3    H273353   4.846   1.520   5.813  3.0021  0.7052 -0.1732
17288TIP3   OH273354   4.432   0.322  16.076  0.2062 -0.4316 -0.2020
17288TIP3    H173355   4.409   0.412  16.098 -0.2995 -0.6423  0.1435
17288TIP3    H273356   4.523   0.313  16.106  0.2884 -0.0103 -0.3228
17289TIP3   OH273357   0.777   3.174   1.128  0.1134 -0.2718 -0.0098
17289TIP3    H173358   0.751   3.104   1.068 -0.5307  1.0736 -1.3498
17289TIP3    H273359   0.697   3.224   1.142  0.5021  0.0538  1.1652
17290TIP3   OH273360   3.776   4.117   1.054  0.0004 -0.3776 -0.4645
17290TIP3    H173361   3.729   4.090   1.133  1.6748 -1.3821  0.2452
17290TIP3    H273362   3.830   4.191   1.082  1.4659 -1.4530 -0.3186
17291TIP3   OH273363   5.770   2.474   2.497  0.4796  0.4200  0.0713
17291TIP3    H173364   5.840   2.411   2.515 -1.6990 -2.5274 -0.8083
17291TIP3    H273365   5.710   2.464   2.571  0.6482  2.4704  0.5331
17292TIP3   OH273366   5.469   1.641  14.803  0.1710  0.2045  0.3309
17292TIP3    H173367   5.539   1.702  14.780  0.6422  0.1255  1.5125
17292TIP3    H273368   5.508   1.582  14.867 -0.2000 -1.5112 -0.9308
17293TIP3   OH273369   3.361   0.197   1.442  0.1456  0.4038  0.0094
17293TIP3    H173370   3.401   0.237   1.366 -0.7213 -0.4949 -0.9626
17293TIP3    H273371   3.431   0.145   1.482  0.4934  0.5314 -0.4333
17294TIP3   OH273372   0.080   1.440   4.641 -0.4217 -0.0770  0.4239
17294TIP3    H173373   0.143   1.382   4.597  1.8782  1.7808  1.0421
17294TIP3    H273374   0.062   1.396   4.724  0.0893 -0.6519  0.2450
17295TIP3   OH273375   2.875   4.556   4.300 -0.1327 -0.0696 -0.1554
17295TIP3    H173376   2.839   4.509   4.375  0.8535  1.9437  1.7046
17295TIP3    H273377   2.960   4.515   4.284  0.3791  0.5218  0.9406
17296TIP3   OH273378   2.902   4.481  13.684 -0.3143 -0.4888 -0.1791
17296TIP3    H173379   2.940   4.546  13.743  2.3167 -1.5594 -0.5613
17296TIP3    H273380   2.938   4.397  13.713 -2.1738 -1.5856 -0.8329
17297TIP3   OH273381   2.640   0.611   3.964 -0.8478  0.3190 -0.0536
17297TIP3    H173382   2.735   0.605   3.966 -0.6325  2.4601 -1.3996
17297TIP3    H273383   2.621   0.684   3.905 -3.2564  1.4846  1.9772
17298TIP3   OH273384   4.670   0.755   5.093  0.0363  0.0985  0.4509
17298TIP3    H173385   4.620   0.676   5.115  0.9693 -0.3121  1.1089
17298TIP3    H273386   4.747   0.752   5.149  1.5671 -0.0289 -1.5569
17299TIP3   OH273387   3.567   6.363   0.557 -0.4093  0.5303  0.3267
17299TIP3    H173388   3.621   6.436   0.524 -0.0882  0.7236  1.2443
17299TIP3    H273389   3.513   6.403   0.625 -0.4996 -0.0143  0.5735
17300TIP3   OH273390   2.931   0.530  11.892 -0.3156  0.3622  0.5961
17300TIP3    H173391   2.896   0.608  11.850 -0.4714 -0.1325 -0.2127
17300TIP3    H273392   2.922   0.461  11.826 -0.0851 -0.3149  1.2607
17301TIP3   OH273393   0.450   2.185  16.935  0.1012 -0.0282  0.1042
17301TIP3    H173394   0.387   2.237  16.885 -1.2273 -0.1912  1.5334
17301TIP3    H273395   0.531   2.235  16.929 -0.5040  0.9263 -0.6191
17302TIP3   OH273396   0.515   2.189  11.326  0.8023  0.0701  0.0466
17302TIP3    H173397   0.501   2.249  11.252  3.0469 -0.5480 -0.9790
17302TIP3    H273398   0.596   2.220  11.367  1.0936 -1.2575  0.5226
17303TIP3   OH273399   3.977   1.780  11.308 -0.1177 -0.4541  0.4521
17303TIP3    H173400   4.031   1.858  11.316 -0.7566 -0.0912  1.3365
17303TIP3    H273401   3.911   1.803  11.243  0.6192 -0.8164 -0.4519
17304TIP3   OH273402   2.139   1.051  15.529 -0.1376 -0.1856  0.0859
17304TIP3    H173403   2.156   1.130  15.580 -0.2862  0.9033 -1.5003
17304TIP3    H273404   2.062   1.012  15.570  0.1489  0.2787  1.0984
17305TIP3   OH273405   2.524   2.071  10.257  0.3976 -0.3571  0.0600
17305TIP3    H173406   2.551   1.999  10.200  1.5475 -0.4173  0.6620
17305TIP3    H273407   2.435   2.092  10.228  1.3973  0.5532 -2.7141
17306TIP3   OH273408   3.553   5.335  11.908 -0.0440  0.4285 -0.0061
17306TIP3    H173409   3.586   5.326  11.997 -2.9771 -1.0268  1.0661
17306TIP3    H273410   3.630   5.327  11.852  1.5628 -1.3296  2.3010
17307TIP3   OH273411   5.569   0.528   0.883  0.4723 -0.3828 -0.3729
17307TIP3    H173412   5.521   0.608   0.861 -1.0727 -1.1296  0.1561
17307TIP3    H273413   5.662   0.552   0.873  0.0849  1.6957  0.4980
17308TIP3   OH273414   4.442   3.780   1.693  0.3351  0.3101  0.2669
17308TIP3    H173415   4.354   3.807   1.667  1.0901  1.0161 -1.7104
17308TIP3    H273416   4.468   3.844   1.759 -0.3601  0.5296  0.3306
17309TIP3   OH273417   2.495   6.242  10.465  0.2223 -0.1736 -0.1790
17309TIP3    H173418   2.431   6.239  10.394  0.7177  0.8053 -0.6866
17309TIP3    H273419   2.483   6.328  10.505  0.1381 -0.6092  0.7572
17310TIP3   OH273420   0.971   2.122  15.680 -0.2565 -0.2883 -0.1833
17310TIP3    H173421   0.975   2.149  15.772 -1.6667 -0.3961 -0.0744
17310TIP3    H273422   0.889   2.073  15.672 -0.2120 -0.1965 -1.5203
17311TIP3   OH273423   5.464   0.477  12.893  0.1678 -0.2921 -0.3433
17311TIP3    H173424   5.423   0.562  12.913 -0.4127 -0.6233 -0.0786
17311TIP3    H273425   5.551   0.483  12.932  0.7086  0.7408 -1.6415
17312TIP3   OH273426   0.470   3.319  14.061 -0.6948 -0.6075 -0.1672
17312TIP3    H173427   0.565   3.327  14.051 -1.0544  1.7099 -3.0318
17312TIP3    H273428   0.448   3.380  14.131 -0.0325 -1.8734  1.1883
17313TIP3   OH273429   3.833   4.784  12.577  0.2627 -0.1475  0.3987
17313TIP3    H173430   3.824   4.769  12.483  1.6396  0.1785  0.1808
17313TIP3    H273431   3.920   4.750  12.598  0.9805  1.9328  1.0638
17314TIP3   OH273432   3.475   1.716  15.416 -0.4234 -0.4070 -0.1009
17314TIP3    H173433   3.436   1.638  15.376 -2.1990 -0.0149  0.7638
17314TIP3    H273434   3.438   1.789  15.367  1.3896 -0.0643 -1.0391
17315TIP3   OH273435   4.421   6.606   3.573 -0.4764  0.2016 -0.4888
17315TIP3    H173436   4.351   6.596   3.509 -0.6117  1.3059 -0.5326
17315TIP3    H273437   4.376   6.631   3.654 -0.3182 -1.2650  0.0926
17316TIP3   OH273438   4.384   2.504   1.846 -0.3553 -0.8007 -0.4983
17316TIP3    H173439   4.367   2.594   1.873  3.5311  0.3507 -1.1932
17316TIP3    H273440   4.381   2.507   1.751 -0.2182 -1.4114 -0.5236
17317TIP3   OH273441   6.250   2.843  13.186 -0.2472  0.5807 -0.1885
17317TIP3    H173442   6.161   2.810  13.171 -0.3830  1.0340 -0.3912
17317TIP3    H273443   6.292   2.775  13.239 -0.4991  0.0434 -0.6658
17318TIP3   OH273444   2.107   2.059  14.518 -0.0058 -0.0107 -0.1546
17318TIP3    H173445   2.170   2.130  14.532 -0.8840  0.7295  0.1513
17318TIP3    H273446   2.055   2.058  14.599  1.3890 -2.4923  0.8307
17319TIP3   OH273447   1.552   3.974   6.146  0.2843 -0.3910 -0.9882
17319TIP3    H173448   1.604   4.034   6.200 -0.6348 -0.3533 -0.1243
17319TIP3    H273449   1.613   3.943   6.079  1.2338  0.1698 -0.3997
17320TIP3   OH273450   4.517   5.520   0.373  0.5011  0.4239 -0.3558
17320TIP3    H173451   4.492   5.495   0.462 -1.9061  2.5723 -0.2938
17320TIP3    H273452   4.435   5.512   0.323  1.1090  1.9740 -1.6827
17321TIP3   OH273453   1.190   6.769  13.903 -0.6894 -0.0945  0.2724
17321TIP3    H173454   1.167   6.734  13.817 -1.6427 -0.4967  0.6852
17321TIP3    H273455   1.221   6.858  13.884  0.3775 -0.6250 -0.6168
17322TIP3   OH273456   6.198   1.712   2.946  0.0208  0.9313 -0.3143
17322TIP3    H173457   6.269   1.715   2.882 -0.2609  0.1956 -0.6729
17322TIP3    H273458   6.232   1.759   3.022  0.5845  1.2867 -0.7798
17323TIP3   OH273459   4.223   2.491   3.431 -0.3742  0.1955  0.3595
17323TIP3    H173460   4.128   2.490   3.445 -0.3376 -0.2640  0.5920
17323TIP3    H273461   4.258   2.433   3.499  0.0780  0.4107  0.3144
17324TIP3   OH273462   5.525   5.893   2.016 -0.0117 -0.3063 -0.0594
17324TIP3    H173463   5.538   5.986   2.030 -2.0703  0.2619 -1.4972
17324TIP3    H273464   5.479   5.863   2.095 -0.4608  0.1868 -0.1286
17325TIP3   OH273465   4.387   2.538   1.562 -0.3244  0.3617 -0.1892
17325TIP3    H173466   4.317   2.474   1.576  0.1528  0.0402  0.8250
17325TIP3    H273467   4.454   2.491   1.513 -0.7060  0.5983 -0.9478
17326TIP3   OH273468   4.885   6.011  14.739  0.0810  0.0252  0.6636
17326TIP3    H173469   4.797   6.022  14.776  0.2455  0.4055  0.9423
17326TIP3    H273470   4.932   6.090  14.765  0.2407  0.2380 -0.2444
17327TIP3   OH273471   2.364   3.604   0.993  0.3549  0.1450 -0.2099
17327TIP3    H173472   2.383   3.626   1.085  1.3356  0.9041 -0.5780
17327TIP3    H273473   2.286   3.655   0.972 -1.1637 -1.6205  0.7869
17328TIP3   OH273474   5.221   5.544  14.851 -0.0440  0.6963 -0.2367
17328TIP3    H173475   5.282   5.584  14.789  1.9136  2.2278  2.4959
17328TIP3    H273476   5.264   5.464  14.880  1.7716  2.6274  3.0029
17329TIP3   OH273477   0.746   4.693   5.047  0.4194  0.3231  0.4271
17329TIP3    H173478   0.820   4.715   5.104  0.3159  1.9830 -0.0279
17329TIP3    H273479   0.677   4.753   5.073 -0.3420 -0.3244 -0.0463
17330TIP3   OH273480   3.869   0.933  11.413 -0.1999  0.1151 -0.0097
17330TIP3    H173481   3.939   0.979  11.368 -1.7006  3.1033  0.4736
17330TIP3    H273482   3.801   0.923  11.346 -0.5804  0.2440  0.3548
17331TIP3   OH273483   0.753   4.446  13.753 -0.6023  0.5576  0.3068
17331TIP3    H173484   0.697   4.474  13.681  0.4292  0.0879 -0.7031
17331TIP3    H273485   0.825   4.509  13.754  1.3368 -1.4343 -1.4926
17332TIP3   OH273486   4.804   0.492   4.245 -0.0572 -0.2707  0.3235
17332TIP3    H173487   4.895   0.492   4.214 -0.2521 -0.8548 -0.2768
17332TIP3    H273488   4.807   0.537   4.329  0.9100 -0.9479  0.6637
17333TIP3   OH273489   2.219   4.802  11.524  0.1497 -1.1279 -0.4742
17333TIP3    H173490   2.128   4.815  11.552 -0.2080 -1.2715 -1.5405
17333TIP3    H273491   2.212   4.771  11.434  1.2426 -1.7302 -0.3612
17334TIP3   OH273492   1.985   4.918   4.940 -0.2309 -0.2148 -0.8953
17334TIP3    H173493   1.985   4.928   5.035 -1.7158  1.0529 -0.9760
17334TIP3    H273494   1.922   4.984   4.909  1.1651  0.2970 -2.8523
17335TIP3   OH273495   0.222   2.027  13.740  0.1357 -0.3297  0.0172
17335TIP3    H173496   0.298   2.013  13.797 -0.8809 -1.6818  1.0871
17335TIP3    H273497   0.227   2.120  13.718  0.0043  0.5628  3.2094
17336TIP3   OH273498   2.409   0.748  13.715 -0.3662 -0.0448 -0.4121
17336TIP3    H173499   2.394   0.667  13.666  2.1258 -1.6981  1.3144
17336TIP3    H273500   2.331   0.758  13.769 -0.5731 -1.5662 -0.3689
17337TIP3   OH273501   1.506   0.177   0.228  0.3421  0.2389  0.1679
17337TIP3    H173502   1.487   0.138   0.144 -0.3554  2.1833 -0.6425
17337TIP3    H273503   1.596   0.209   0.220 -0.0261  1.2178 -0.1911
17338TIP3   OH273504   2.533   3.967  10.876  0.3020  0.2641 -0.4273
17338TIP3    H173505   2.501   3.938  10.791 -0.4852  1.4810 -0.5681
17338TIP3    H273506   2.611   4.019  10.855  1.5130 -1.3964 -0.2025
17339TIP3   OH273507   2.793   5.162  13.429  0.1456 -0.4092  0.0390
17339TIP3    H173508   2.789   5.141  13.522  0.3223 -2.6165 -0.3939
17339TIP3    H273509   2.866   5.223  13.421  0.0417 -0.0970  1.3590
17340TIP3   OH273510   2.714   3.778  12.479 -0.4377 -0.0484  0.7845
17340TIP3    H173511   2.755   3.851  12.433 -3.1252  0.5309 -0.9073
17340TIP3    H273512   2.741   3.700  12.431 -1.7725  0.3936 -0.7898
17341TIP3   OH273513   4.972   3.577  13.352 -0.2192 -0.1356  0.0490
17341TIP3    H173514   5.003   3.623  13.273  0.9819  1.0083  1.1386
17341TIP3    H273515   5.045   3.520  13.377 -0.6498 -0.6004  0.2567
17342TIP3   OH273516   3.679   5.346   5.879  0.1999 -0.2451  0.3975
17342TIP3    H173517   3.758   5.359   5.827  1.0460  0.0095  1.7058
17342TIP3    H273518   3.699   5.271   5.935  0.1323  0.7684  1.8338
17343TIP3   OH273519   5.057   6.270  16.439 -0.4939 -0.0815 -0.2510
17343TIP3    H173520   5.037   6.186  16.398 -0.1385  0.0225 -0.6474
17343TIP3    H273521   4.974   6.318  16.437 -0.2623  0.3180 -1.8114
17344TIP3   OH273522   2.099   6.194  11.872 -0.6419  0.1366  0.1688
17344TIP3    H173523   2.070   6.277  11.909 -0.8141  0.2946 -0.3103
17344TIP3    H273524   2.178   6.216  11.823 -0.4012 -0.0761  0.4561
17345TIP3   OH273525   6.795   4.663  16.976  0.0044 -0.0075 -0.2939
17345TIP3    H173526   6.775   4.753  17.000 -1.7001  0.2908 -2.5197
17345TIP3    H273527   6.885   4.650  17.005 -0.7681  1.2228  3.1653
17346TIP3   OH273528   2.147   3.301  15.331  0.1316 -0.1046 -0.1888
17346TIP3    H173529   2.059   3.340  15.334  0.9406  1.8355  2.9410
17346TIP3    H273530   2.140   3.222  15.385  0.4270  0.4124  0.6207
17347TIP3   OH273531   5.464   3.285   3.509 -0.3453  0.1923  0.2298
17347TIP3    H173532   5.383   3.329   3.482 -0.8649 -1.8911 -1.9074
17347TIP3    H273533   5.440   3.240   3.591 -0.3747  2.1064  1.3300
17348TIP3   OH273534   2.855   2.201  14.961 -0.7925  0.5585 -0.3464
17348TIP3    H173535   2.841   2.149  14.882  0.6519  2.1682 -1.7598
17348TIP3    H273536   2.950   2.199  14.974 -1.0014  0.2617  1.4447
17349TIP3   OH273537   5.818   4.880  16.333 -0.1515  0.3981 -0.4366
17349TIP3    H173538   5.893   4.910  16.282  0.6280  0.6996  0.8299
17349TIP3    H273539   5.750   4.945  16.315  0.9325  1.9644  0.8421
17350TIP3   OH273540   1.140   2.453   1.177 -0.3279  0.3004  0.2254
17350TIP3    H173541   1.095   2.382   1.132  0.1637  0.0404  0.1319
17350TIP3    H273542   1.136   2.430   1.270  0.5183 -0.2689  0.1361
17351TIP3   OH273543   3.610   0.583  14.200  0.8527 -0.0861 -0.1582
17351TIP3    H173544   3.554   0.585  14.278  0.8838 -0.5823 -0.1268
17351TIP3    H273545   3.680   0.521  14.221 -0.1728 -1.6915 -1.2742
17352TIP3   OH273546   2.938   5.616   0.677  0.1949 -0.2319 -0.1982
17352TIP3    H173547   2.941   5.712   0.670 -1.3317 -0.1579 -0.1595
17352TIP3    H273548   2.981   5.584   0.598  1.9094  0.4539  0.4026
17353TIP3   OH273549   6.166   5.614   3.171 -0.4403  0.2000 -0.2000
17353TIP3    H173550   6.089   5.648   3.126  1.1388  1.7869 -1.8502
17353TIP3    H273551   6.131   5.573   3.250 -2.9981  0.4183 -1.1246
17354TIP3   OH273552   3.553   5.644  15.055 -0.2879  0.1560 -0.3996
17354TIP3    H173553   3.520   5.623  14.968 -0.5188  1.4018 -0.6269
17354TIP3    H273554   3.588   5.733  15.047  2.0185 -0.6263  0.1301
17355TIP3   OH273555   4.061   2.509   6.382  0.1369  0.1575  0.0307
17355TIP3    H173556   4.014   2.438   6.339  0.4207  0.1965 -0.3476
17355TIP3    H273557   4.152   2.480   6.386  0.2452  0.4788 -0.0822
17356TIP3   OH273558   6.813   2.910   2.987 -0.1935 -0.1690  0.7779
17356TIP3    H173559   6.731   2.933   2.942 -0.6716 -1.7297  0.8063
17356TIP3    H273560   6.875   2.891   2.917  0.4372  1.8001  0.7329
17357TIP3   OH273561   0.438   4.964  13.425  0.1194  0.5449  0.2760
17357TIP3    H173562   0.508   5.027  13.441  0.6626  0.0422 -0.0689
17357TIP3    H273563   0.405   4.986  13.337  0.3970  0.2742  0.1013
17358TIP3   OH273564   1.670   1.123  14.990 -0.2134 -0.1039 -0.2258
17358TIP3    H173565   1.612   1.104  15.064 -0.6702  0.2432 -0.4865
17358TIP3    H273566   1.616   1.175  14.931  0.6516  1.0026 -0.0693
17359TIP3   OH273567   5.174   4.176  14.080 -0.3696  0.3228 -0.1063
17359TIP3    H173568   5.170   4.140  13.991  2.2255 -2.7780  0.8286
17359TIP3    H273569   5.212   4.263  14.069  1.3784 -0.5970 -1.9864
17360TIP3   OH273570   1.301   5.980   1.996 -0.6653 -0.6431 -0.1019
17360TIP3    H173571   1.356   5.989   1.918  0.7356 -0.8501  0.8243
17360TIP3    H273572   1.358   5.938   2.060 -1.8940 -0.7713  0.9304
17361TIP3   OH273573   5.854   4.533   4.127 -0.2733  0.0470 -0.2090
17361TIP3    H173574   5.788   4.469   4.102 -0.3297  0.3817 -0.9301
17361TIP3    H273575   5.808   4.593   4.186 -1.4662  1.9518 -2.8935
17362TIP3   OH273576   0.250   5.834  11.689 -0.1181  0.1675  0.0204
17362TIP3    H173577   0.178   5.780  11.659  0.1839  0.8749 -2.1686
17362TIP3    H273578   0.288   5.871  11.609  1.2118  1.6581  1.2528
17363TIP3   OH273579   4.223   0.098   0.802  0.2025 -0.2694  0.3122
17363TIP3    H173580   4.241   0.046   0.723  2.6158  1.4579 -0.3979
17363TIP3    H273581   4.260   0.046   0.873  2.5990  0.3347 -0.3866
17364TIP3   OH273582   3.748   0.009  15.829  0.2825 -0.1804  0.0926
17364TIP3    H173583   3.768   0.018  15.923  0.0556  0.1236  0.1104
17364TIP3    H273584   3.775  -0.081  15.808  0.8980 -0.0483  0.3093
17365TIP3   OH273585   6.288   4.664  16.542  0.0876  0.4752 -0.2418
17365TIP3    H173586   6.348   4.660  16.467  0.0841 -0.2330 -0.2088
17365TIP3    H273587   6.252   4.753  16.538 -0.8304  0.0654 -1.7917
17366TIP3   OH273588   3.331   3.167  16.906  0.6749  0.1771 -0.2292
17366TIP3    H173589   3.263   3.211  16.855  0.0342  0.9096  1.2005
17366TIP3    H273590   3.283   3.124  16.977  1.5722 -0.5253 -0.0314
17367TIP3   OH273591   5.531   4.602   1.292  0.3687  0.9015 -0.8645
17367TIP3    H173592   5.534   4.602   1.196  1.3788 -1.5178 -0.9157
17367TIP3    H273593   5.621   4.619   1.319  0.1795  1.1129 -0.3548
17368TIP3   OH273594   2.953   2.773   1.182 -0.2229  0.0179 -0.0187
17368TIP3    H173595   2.880   2.825   1.217 -1.1300 -0.7846 -0.6336
17368TIP3    H273596   2.910   2.710   1.123  1.1145  0.6374 -1.7399
17369TIP3   OH273597   6.404   1.240   5.025 -0.1469  0.1953 -0.0487
17369TIP3    H173598   6.475   1.304   5.031  0.4476 -0.2859 -1.5042
17369TIP3    H273599   6.397   1.221   4.931  0.2738 -2.5219  0.4045
17370TIP3   OH273600   6.210   3.696  14.186 -0.5219 -0.4610 -0.0608
17370TIP3    H173601   6.222   3.737  14.101 -1.1863 -0.2703 -0.0652
17370TIP3    H273602   6.280   3.733  14.240 -0.6167  0.0567 -0.2894
17371TIP3   OH273603   6.814   0.645   2.571 -0.1213 -0.1843 -0.2603
17371TIP3    H173604   6.841   0.700   2.498 -0.4290  0.4401  0.0871
17371TIP3    H273605   6.888   0.647   2.632 -0.8638  1.5027  0.6785
17372TIP3   OH273606   6.660   4.103  12.821  0.5689  0.3708 -0.6659
17372TIP3    H173607   6.702   4.148  12.894  1.0034  1.7859 -1.7375
17372TIP3    H273608   6.614   4.029  12.861  2.0217  0.2307  0.8313
17373TIP3   OH273609   5.147   4.695   3.501  0.8947  0.4103 -0.0771
17373TIP3    H173610   5.214   4.635   3.467 -0.9301 -1.5281 -0.5347
17373TIP3    H273611   5.145   4.677   3.595  0.5424 -0.0945 -0.1725
17374TIP3   OH273612   0.823   4.405  15.917  0.3326 -0.3521 -0.1992
17374TIP3    H173613   0.756   4.368  15.859 -0.5474  1.5139 -0.4626
17374TIP3    H273614   0.887   4.444  15.857 -0.2580  1.0382  0.0365
17375TIP3   OH273615   5.408   6.166  12.065  0.1271 -0.6071 -0.1808
17375TIP3    H173616   5.456   6.087  12.089  2.0073  0.4278 -0.2869
17375TIP3    H273617   5.336   6.136  12.010  0.4550 -2.2700  0.2557
17376TIP3   OH273618   3.458   1.199  14.872 -0.1512 -0.0971  0.0061
17376TIP3    H173619   3.443   1.109  14.843 -0.4883 -0.0343 -0.0160
17376TIP3    H273620   3.471   1.248  14.791  1.5577 -0.3932  0.0776
17377TIP3   OH273621   0.808   1.652   1.657 -0.1374  0.5562  0.3069
17377TIP3    H173622   0.757   1.639   1.737  0.3040  1.7295  0.7924
17377TIP3    H273623   0.829   1.563   1.628 -1.7269  0.0694  0.5559
17378TIP3   OH273624   1.205   6.288  17.000  0.3842  0.1237  0.6684
17378TIP3    H173625   1.126   6.313  16.952  0.5814 -1.1044 -0.3304
17378TIP3    H273626   1.268   6.357  16.980  0.3791 -0.2433 -0.6598
17379TIP3   OH273627   3.703   3.407  15.692  0.2768  0.2341  0.0236
17379TIP3    H173628   3.789   3.433  15.661  1.0940 -0.2356  1.7823
17379TIP3    H273629   3.642   3.446  15.629  1.8108 -2.4424 -3.4314
17380TIP3   OH273630   0.118   6.785   2.896  0.5901 -0.0781 -0.0943
17380TIP3    H173631   0.169   6.830   2.962  2.5194 -1.3195 -0.6732
17380TIP3    H273632   0.124   6.692   2.919 -2.6387 -0.2482  0.6288
17381TIP3   OH273633   0.313   4.523   3.004  0.4192 -0.8245  0.2624
17381TIP3    H173634   0.270   4.601   3.039 -0.9753 -3.0247  4.0041
17381TIP3    H273635   0.250   4.452   3.019  2.4481 -3.0375 -1.0514
17382TIP3   OH273636   6.715   5.433   2.809  0.3522  0.5016 -0.0980
17382TIP3    H173637   6.670   5.421   2.892  1.7507 -0.3679  0.5713
17382TIP3    H273638   6.645   5.429   2.743 -0.7939  1.4234  1.0228
17383TIP3   OH273639   1.865   4.728  11.328  0.8360  0.2222  0.1986
17383TIP3    H173640   1.825   4.811  11.355 -0.3214 -0.7594  1.6993
17383TIP3    H273641   1.873   4.735  11.233 -1.1139  1.2739  0.0444
17384TIP3   OH273642   2.730   0.157   1.151  0.4559 -0.3575 -0.0733
17384TIP3    H173643   2.697   0.243   1.122 -1.9414 -1.4972 -1.0077
17384TIP3    H273644   2.698   0.149   1.241 -0.0457 -0.6001 -0.2700
17385TIP3   OH273645   2.561   2.104   3.656  0.1866 -0.2749 -0.3064
17385TIP3    H173646   2.479   2.146   3.631 -0.4899 -2.0178 -1.2390
17385TIP3    H273647   2.612   2.173   3.698 -1.3806  1.0851 -0.5324
17386TIP3   OH273648   4.446   4.340   2.241  0.8045 -0.8019  0.3439
17386TIP3    H173649   4.430   4.247   2.260  1.6609 -0.8324  0.9387
17386TIP3    H273650   4.536   4.355   2.268  0.9068  0.0379 -0.4234
17387TIP3   OH273651   5.936   4.612  16.298  0.5408  0.2766 -0.0647
17387TIP3    H173652   5.933   4.704  16.322 -1.0718 -0.1822  1.7940
17387TIP3    H273653   5.940   4.612  16.202  1.4613  2.2453 -0.0753
17388TIP3   OH273654   3.317   1.078  15.124  0.3521  0.2416  0.2833
17388TIP3    H173655   3.393   1.101  15.071  0.4611 -0.5754  0.0672
17388TIP3    H273656   3.355   1.045  15.206  0.2712 -0.8044 -0.0804
17389TIP3   OH273657   5.668   2.057  15.369 -0.0796 -0.5221 -0.0673
17389TIP3    H173658   5.635   2.060  15.459  0.7545 -2.3270  0.3535
17389TIP3    H273659   5.720   1.977  15.366 -1.3360 -1.3261 -2.5969
17390TIP3   OH273660   3.021   4.318   4.726 -0.1569  0.6602  0.0534
17390TIP3    H173661   2.971   4.275   4.656  1.2192  0.5107 -0.8772
17390TIP3    H273662   3.108   4.331   4.689  0.2548  1.7464  1.3041
17391TIP3   OH273663   4.020   0.964   2.261  0.0706 -0.1090 -0.0882
17391TIP3    H173664   3.960   1.026   2.220  0.2900  0.7950  0.9165
17391TIP3    H273665   4.024   0.991   2.352  1.4741 -0.5723  0.0157
17392TIP3   OH273666   1.514   4.221   1.888 -0.6276 -0.2501  0.0573
17392TIP3    H173667   1.600   4.193   1.855 -1.5471 -2.9843 -0.2735
17392TIP3    H273668   1.486   4.150   1.945 -2.4734  0.8090  0.5447
17393TIP3   OH273669   1.882   2.458  16.005  0.3603 -0.4791 -0.1754
17393TIP3    H173670   1.871   2.547  16.039 -1.1499  0.5026 -2.9041
17393TIP3    H273671   1.807   2.410  16.040  0.6108 -0.4125  0.4702
17394TIP3   OH273672   0.404   2.315   4.688 -0.4044 -0.1079  0.2444
17394TIP3    H173673   0.380   2.336   4.598 -2.0433 -0.2127  0.6358
17394TIP3    H273674   0.321   2.299   4.732  0.2975  0.9085  2.0287
17395TIP3   OH273675   2.348   3.006  15.095  0.3682 -0.7380 -0.2875
17395TIP3    H173676   2.386   3.048  15.017  0.3175 -0.5665 -0.2208
17395TIP3    H273677   2.402   3.038  15.167 -0.3069  0.0361 -0.1099
17396TIP3   OH273678   6.194   5.952  15.423  0.1817 -0.2813 -0.3385
17396TIP3    H173679   6.119   5.929  15.370 -0.4216 -0.0311  0.3918
17396TIP3    H273680   6.257   5.989  15.361  0.4264 -2.0963 -1.2373
17397TIP3   OH273681   5.595   2.846  12.359 -0.0085  0.2430  0.0500
17397TIP3    H173682   5.619   2.847  12.267 -0.4990 -0.0506 -0.0844
17397TIP3    H273683   5.632   2.764  12.393 -0.0628  0.2183  0.0496
17398TIP3   OH273684   0.980   5.768  14.972  0.2843  0.0655  0.2385
17398TIP3    H173685   0.993   5.835  14.905 -1.5372 -0.2036 -0.4408
17398TIP3    H273686   0.897   5.791  15.014  2.4558  1.6199  4.1441
17399TIP3   OH273687   6.633   3.152  11.060  0.0168 -0.2170 -0.6987
17399TIP3    H173688   6.668   3.221  11.004  0.2219  1.1530  1.0126
17399TIP3    H273689   6.686   3.075  11.041  1.3087  0.7257 -1.0421
17400TIP3   OH273690   5.649   4.524   4.337  0.2098 -0.1519 -0.2813
17400TIP3    H173691   5.565   4.570   4.328  0.3890  0.2372  0.0254
17400TIP3    H273692   5.693   4.568   4.409  0.5590 -0.5457 -0.2515
17401TIP3   OH273693   4.317   0.618   4.548 -0.1405 -0.3346 -0.6385
17401TIP3    H173694   4.341   0.532   4.584 -0.6545  0.2586  1.2312
17401TIP3    H273695   4.399   0.653   4.513  0.0293 -1.6700 -1.7074
17402TIP3   OH273696   1.734   3.893  12.605 -0.1425 -0.6143  0.0071
17402TIP3    H173697   1.684   3.880  12.525 -0.1607 -0.5173  0.0018
17402TIP3    H273698   1.820   3.855  12.587  0.3548  0.7331 -0.5994
17403TIP3   OH273699   3.311   4.940  11.684  0.1933  0.0521 -0.3947
17403TIP3    H173700   3.383   4.966  11.741  0.1457 -2.7339  1.0693
17403TIP3    H273701   3.354   4.920  11.600  0.8260  0.3517 -0.1543
17404TIP3   OH273702   1.687   3.364   1.238 -0.2374 -0.7198 -0.0953
17404TIP3    H173703   1.711   3.353   1.146 -3.8219 -0.1124 -1.2598
17404TIP3    H273704   1.686   3.459   1.251 -0.6517 -0.7684  0.2576
17405TIP3   OH273705   3.834   4.538  14.140  0.7079  0.3212  0.0331
17405TIP3    H173706   3.928   4.541  14.160  0.1934  0.5536  2.7469
17405TIP3    H273707   3.800   4.622  14.171 -0.7205 -0.6380  1.1863
17406TIP3   OH273708   1.395   1.003   3.691 -0.1574  0.3132  0.2790
17406TIP3    H173709   1.316   0.951   3.705  1.1458 -1.3391  1.7630
17406TIP3    H273710   1.393   1.068   3.761 -0.4663  0.6716 -0.0494
17407TIP3   OH273711   1.037   6.184  14.780  0.1340 -0.0150  0.1292
17407TIP3    H173712   1.068   6.221  14.698 -0.3466  1.6394  0.6524
17407TIP3    H273713   0.964   6.240  14.806  0.5295 -0.2453  1.8820
17408TIP3   OH273714   0.552   1.230  12.519  0.2785 -0.3812  0.7630
17408TIP3    H173715   0.639   1.224  12.556  0.2878  1.0693  1.0278
17408TIP3    H273716   0.498   1.265  12.589 -0.2833 -0.2165  0.2622
17409TIP3   OH273717   1.022   0.896   5.245 -0.3005 -0.0230  0.2517
17409TIP3    H173718   0.996   0.804   5.254  0.1744 -0.1388  0.5002
17409TIP3    H273719   1.082   0.910   5.318  0.4081  0.2024 -0.3690
17410TIP3   OH273720   5.195   2.035  11.007  0.3424 -0.1776 -0.3231
17410TIP3    H173721   5.241   1.951  11.007  0.8645  0.1080 -0.6096
17410TIP3    H273722   5.107   2.013  10.976  1.0737 -0.3049 -2.4740
17411TIP3   OH273723   2.758   4.672   4.054  0.1632  0.8933 -0.1238
17411TIP3    H173724   2.801   4.611   4.114  0.3742  1.0917 -0.0711
17411TIP3    H273725   2.681   4.703   4.102 -0.0048  0.5879 -0.1927
17412TIP3   OH273726   5.844   4.933   2.704 -0.5464  0.1364  0.4174
17412TIP3    H173727   5.750   4.918   2.695 -0.7917 -1.7249  4.1582
17412TIP3    H273728   5.884   4.874   2.640 -1.9043 -0.3488 -0.0209
17413TIP3   OH273729   3.458   2.269  15.016  0.1507 -0.3893  0.2629
17413TIP3    H173730   3.546   2.233  15.020 -0.1815 -1.3907 -0.8727
17413TIP3    H273731   3.415   2.220  14.946 -0.3381  2.2456 -1.3950
17414TIP3   OH273732   6.419   2.977   3.075 -0.2574 -0.3992  0.0387
17414TIP3    H173733   6.377   2.891   3.071 -0.6364 -0.1747 -0.8456
17414TIP3    H273734   6.469   2.983   2.994 -0.2664  0.2337  0.0774
17415TIP3   OH273735   1.117   1.767  16.007 -0.3726  0.3771 -0.6380
17415TIP3    H173736   1.095   1.734  15.920  0.0528  0.4235 -0.7645
17415TIP3    H273737   1.169   1.845  15.991  0.8760 -0.3661 -0.3670
17416TIP3   OH273738   3.300   1.945   6.255  0.1725  0.4439  0.0216
17416TIP3    H173739   3.210   1.976   6.249  0.3582  1.5686  1.9988
17416TIP3    H273740   3.352   2.025   6.266  1.0628 -0.3150  1.7461
17417TIP3   OH273741   2.809   0.330   3.240 -0.2282 -0.5703 -0.3850
17417TIP3    H173742   2.868   0.267   3.282 -1.4839 -2.6426 -1.5877
17417TIP3    H273743   2.811   0.307   3.147 -0.8009  1.1424 -0.8587
17418TIP3   OH273744   6.571   0.339   2.067  0.4023  0.4002 -0.7630
17418TIP3    H173745   6.569   0.435   2.069  1.5747  0.4311  0.9997
17418TIP3    H273746   6.504   0.313   2.131  0.8594  0.0821 -0.4066
17419TIP3   OH273747   6.681   1.641  15.008  0.2514 -0.0974 -0.1463
17419TIP3    H173748   6.727   1.557  15.009 -0.3191 -0.4222  0.9845
17419TIP3    H273749   6.638   1.646  15.094 -1.1127  0.5851 -0.8314
17420TIP3   OH273750   1.891   3.395  12.134 -0.2401  0.8086 -0.1627
17420TIP3    H173751   1.813   3.437  12.172  1.8628  2.7785  2.3983
17420TIP3    H273752   1.920   3.333  12.201  1.1925  1.1874 -0.3982
17421TIP3   OH273753   3.036   0.254  16.387 -0.0144  0.1449 -0.4790
17421TIP3    H173754   3.002   0.179  16.436 -1.9985 -1.1188 -3.4998
17421TIP3    H273755   3.075   0.215  16.309 -0.8618  2.2072 -2.0105
17422TIP3   OH273756   1.024   4.701  16.854  0.5480 -0.6093  0.1748
17422TIP3    H173757   1.014   4.637  16.784 -1.4494  0.3877 -0.5373
17422TIP3    H273758   1.082   4.768  16.817 -0.9557  0.2054 -0.8162
17423TIP3   OH273759   3.417   1.445  11.347 -0.3360 -0.5587 -0.9051
17423TIP3    H173760   3.327   1.439  11.378 -0.3471  2.0215 -0.1821
17423TIP3    H273761   3.413   1.501  11.270  0.6953  0.2920 -0.3856
17424TIP3   OH273762   2.032   2.220  15.391 -0.3621  0.3755  0.0888
17424TIP3    H173763   1.977   2.145  15.412 -0.1387  0.2812  0.3537
17424TIP3    H273764   2.069   2.200  15.305 -1.1707  0.6951 -0.3375
17425TIP3   OH273765   4.344   6.162  16.538  0.1921 -0.1752 -0.2397
17425TIP3    H173766   4.439   6.164  16.546  0.3961  2.2811 -2.1643
17425TIP3    H273767   4.328   6.121  16.453 -0.3841  0.6018 -0.5162
17426TIP3   OH273768   5.563   1.240   3.810  0.0688 -0.2535 -0.6399
17426TIP3    H173769   5.618   1.318   3.820  0.2738 -0.5815  1.2281
17426TIP3    H273770   5.567   1.197   3.895  0.8604 -2.9275 -1.8979
17427TIP3   OH273771   4.548   5.075   4.809 -0.0678  0.1628 -0.1151
17427TIP3    H173772   4.496   5.025   4.872 -1.0330  1.2518 -0.0314
17427TIP3    H273773   4.516   5.164   4.816  0.4131  0.4772 -1.5414
17428TIP3   OH273774   4.746   4.562  12.139 -0.5472  0.0359  0.2394
17428TIP3    H173775   4.695   4.605  12.208  0.2989  0.8073  0.3964
17428TIP3    H273776   4.736   4.468  12.157 -1.8931  0.1581  0.2651
17429TIP3   OH273777   4.064   5.244  16.590 -0.0949  0.3452  0.0278
17429TIP3    H173778   3.969   5.231  16.592 -0.2708  1.5654  0.1891
17429TIP3    H273779   4.085   5.283  16.675  0.3778  1.1555 -0.4447
17430TIP3   OH273780   6.224   4.758   0.284  0.5014 -0.7312  0.5419
17430TIP3    H173781   6.207   4.760   0.190 -0.9945 -0.5463  0.7989
17430TIP3    H273782   6.282   4.833   0.299 -0.3702  0.0830 -0.0336
17431TIP3   OH273783   0.787   2.648  14.401  0.0585  0.2923 -0.7479
17431TIP3    H173784   0.826   2.573  14.447 -1.3063 -0.9393 -1.4959
17431TIP3    H273785   0.702   2.660  14.443  0.3371  1.5761 -0.5124
17432TIP3   OH273786   6.047   2.659  17.044 -0.1318 -0.2576  0.3422
17432TIP3    H173787   6.090   2.575  17.032  0.1707 -0.0554 -0.0200
17432TIP3    H273788   6.100   2.705  17.109 -0.1011 -0.2173  0.2898
17433TIP3   OH273789   0.748   5.592   0.620  0.3719 -0.1790 -0.1385
17433TIP3    H173790   0.802   5.631   0.689  1.5605 -2.1375  0.1068
17433TIP3    H273791   0.812   5.554   0.560 -0.7224 -1.1106 -0.7346
17434TIP3   OH273792   2.749   0.630  15.714  0.5207  0.2333 -0.1179
17434TIP3    H173793   2.827   0.640  15.768 -0.3588  6.8207  0.7987
17434TIP3    H273794   2.681   0.605  15.776  0.6837  1.7333  0.7295
17435TIP3   OH273795   2.296   0.800  12.744  0.2360 -0.2406 -0.3861
17435TIP3    H173796   2.273   0.893  12.750  0.7577 -0.0745 -0.8828
17435TIP3    H273797   2.260   0.761  12.823 -1.8230 -0.0119 -1.1674
17436TIP3   OH273798   6.244   6.463  13.997  0.1880  0.3004  0.1873
17436TIP3    H173799   6.239   6.559  13.989  0.1699  0.3479  0.7598
17436TIP3    H273800   6.328   6.440  13.957 -1.2119  0.2087 -2.9906
17437TIP3   OH273801   4.730   4.530   1.356  0.0328 -0.1099  0.3576
17437TIP3    H173802   4.700   4.535   1.447  2.3902  0.7874  1.1504
17437TIP3    H273803   4.688   4.604   1.313 -1.2080 -0.6177  0.6460
17438TIP3   OH273804   4.982   3.096  11.275 -0.6120  0.1985  0.2649
17438TIP3    H173805   4.939   3.014  11.300  0.2251 -0.1141  0.7095
17438TIP3    H273806   4.972   3.153  11.352 -2.0886  0.9057 -0.4047
17439TIP3   OH273807   1.759   3.658   3.561  0.0049  0.2169  0.3299
17439TIP3    H173808   1.685   3.716   3.581 -1.6915 -0.6676 -2.6605
17439TIP3    H273809   1.788   3.687   3.474  0.2417 -2.2158 -0.4650
17440TIP3   OH273810   1.488   5.835   3.113  0.0859 -0.1518 -0.2490
17440TIP3    H173811   1.412   5.884   3.144  2.6271  2.1620  3.0654
17440TIP3    H273812   1.538   5.899   3.062  0.9936 -0.8130 -0.2097
17441TIP3   OH273813   2.513   1.606   2.190  0.6970 -0.0525 -0.5581
17441TIP3    H173814   2.546   1.517   2.206 -0.5846 -0.6104 -0.8897
17441TIP3    H273815   2.526   1.651   2.273 -0.5879 -1.2027  0.3092
17442TIP3   OH273816   0.043   3.192  16.021 -0.0406 -0.1068  0.3814
17442TIP3    H173817   0.099   3.168  15.947  0.9940  2.3513  0.2715
17442TIP3    H273818   0.093   3.165  16.098 -0.8368 -2.0930  0.2549
17443TIP3   OH273819   4.339   5.761   0.241 -0.8096  0.3438 -0.2288
17443TIP3    H173820   4.400   5.751   0.167  0.1619  0.4173  0.5418
17443TIP3    H273821   4.273   5.823   0.210 -1.0566 -0.4801 -1.4272
17444TIP3   OH273822   5.156   0.416  14.079 -0.1072 -0.1669  0.0353
17444TIP3    H173823   5.181   0.331  14.116  0.0008  0.0878  0.5545
17444TIP3    H273824   5.069   0.433  14.117  0.3347  0.4556  0.7980
17445TIP3   OH273825   1.505   6.162  15.718  0.5520 -0.4449  0.0824
17445TIP3    H173826   1.489   6.205  15.801 -0.0846 -0.0434 -0.2349
17445TIP3    H273827   1.598   6.141  15.718  0.5757 -0.3518  0.8432
17446TIP3   OH273828   5.561   2.694  13.302  0.0475  0.1731 -0.5312
17446TIP3    H173829   5.471   2.721  13.320  0.5550  1.8638 -0.3649
17446TIP3    H273830   5.571   2.710  13.208 -0.0514 -0.7414 -0.7009
17447TIP3   OH273831   6.795   0.504  11.102 -0.7056 -0.1634 -0.0258
17447TIP3    H173832   6.805   0.525  11.009  0.6519  0.3529  0.2108
17447TIP3    H273833   6.818   0.411  11.108  0.4597  0.1132 -0.0377
17448TIP3   OH273834   6.293   4.063  12.688  0.0053 -0.0210  0.4487
17448TIP3    H173835   6.247   4.119  12.624  2.2382  1.0357 -0.3315
17448TIP3    H273836   6.260   4.093  12.773  0.6873  2.1345  0.0194
17449TIP3   OH273837   6.100   5.037   2.079  0.0978 -0.3137  0.0743
17449TIP3    H173838   6.076   5.078   1.995  0.3367 -0.3744 -0.0236
17449TIP3    H273839   6.099   5.109   2.142  1.0117 -0.0608 -0.1930
17450TIP3   OH273840   1.330   6.673  15.377 -0.5393 -0.3401  0.1720
17450TIP3    H173841   1.266   6.659  15.446 -0.7123 -0.4105 -0.0011
17450TIP3    H273842   1.313   6.762  15.347  0.0034 -0.0539  0.7023
17451TIP3   OH273843   2.702   0.942   4.506  0.2775 -0.1090 -0.0066
17451TIP3    H173844   2.739   0.887   4.437 -0.3141 -0.7036  0.1441
17451TIP3    H273845   2.633   0.992   4.462 -1.0933 -1.5415  0.4274
17452TIP3   OH273846   3.497   2.070  12.691  0.6975  0.4274  0.4201
17452TIP3    H173847   3.437   2.096  12.761  0.9568  2.6781 -0.1329
17452TIP3    H273848   3.554   2.005  12.733 -0.8135 -0.2761  1.5126
17453TIP3   OH273849   0.929   6.771  12.246  0.1305  0.0281  0.4409
17453TIP3    H173850   0.842   6.789  12.209  0.2415  0.3890  0.3600
17453TIP3    H273851   0.913   6.700  12.309 -0.0222 -0.7454 -0.4502
17454TIP3   OH273852   2.252   0.668   4.060 -0.3269 -0.1825  0.1481
17454TIP3    H173853   2.173   0.616   4.046  1.0412 -1.8727 -1.9633
17454TIP3    H273854   2.322   0.603   4.069  0.9181  1.2645  1.5123
17455TIP3   OH273855   5.833   1.323   0.916 -0.2233  0.1576 -0.2970
17455TIP3    H173856   5.900   1.390   0.899 -0.5904  0.7657  0.5689
17455TIP3    H273857   5.801   1.299   0.829  0.9328  0.0478 -0.7099
17456TIP3   OH273858   4.027   6.767   1.067 -0.4283 -0.1734 -0.1511
17456TIP3    H173859   4.048   6.822   1.143 -0.3123  0.9148 -0.9503
17456TIP3    H273860   4.106   6.772   1.012 -1.4959  1.3225 -1.6457
17457TIP3   OH273861   3.651   4.429   4.827  0.3981  0.2231 -0.2019
17457TIP3    H173862   3.569   4.466   4.857 -0.2409 -0.3732 -1.1481
17457TIP3    H273863   3.633   4.336   4.814  0.8949  0.2826 -1.4779
17458TIP3   OH273864   3.908   2.368  11.868  0.0023 -0.1669 -0.3785
17458TIP3    H173865   3.862   2.355  11.785 -0.6812 -0.7092  0.0809
17458TIP3    H273866   3.840   2.393  11.930  0.2674 -1.2067  0.3665
17459TIP3   OH273867   5.124   3.670  13.747  0.1315 -0.1574 -0.5356
17459TIP3    H173868   5.104   3.683  13.654 -3.6720 -0.7000  0.0526
17459TIP3    H273869   5.053   3.715  13.793  1.1091 -1.1344  2.1049
17460TIP3   OH273870   4.988   3.257  11.061 -0.0136 -0.3856  0.2818
17460TIP3    H173871   4.975   3.194  11.131  2.1219 -0.7112  0.4729
17460TIP3    H273872   4.946   3.337  11.092  0.4777 -0.6640  1.7448
17461TIP3   OH273873   3.319   4.923  12.052  0.4025 -0.1257  0.1180
17461TIP3    H173874   3.402   4.907  12.007  1.3502 -0.1028  1.7749
17461TIP3    H273875   3.290   4.836  12.081  0.5683  0.0292  0.7519
17462TIP3   OH273876   6.592   2.342   3.210 -0.0500  0.4915 -0.2904
17462TIP3    H173877   6.509   2.379   3.238 -0.0350  1.0729 -0.9791
17462TIP3    H273878   6.657   2.381   3.267 -0.4584 -1.9761  2.0859
17463TIP3   OH273879   4.502   5.835   4.750  0.0204 -0.0856  0.4528
17463TIP3    H173880   4.568   5.766   4.754  0.5355  0.4629  2.3219
17463TIP3    H273881   4.419   5.789   4.762  0.3024 -0.4697  0.9509
17464TIP3   OH273882   0.207   5.177   3.830  0.2532 -0.2093 -0.0035
17464TIP3    H173883   0.250   5.221   3.756  2.0394  0.7161  1.4948
17464TIP3    H273884   0.221   5.237   3.904 -2.8507 -0.3369  0.8073
17465TIP3   OH273885   4.161   3.495   0.018  0.0850 -0.7715 -0.4176
17465TIP3    H173886   4.214   3.526   0.091  1.3257 -0.9330 -1.2283
17465TIP3    H273887   4.110   3.571  -0.009 -1.3101 -1.0047  1.3532
17466TIP3   OH273888   4.173   2.348  10.168 -0.1258 -0.7857  0.6882
17466TIP3    H173889   4.172   2.413  10.238  0.1751 -1.5885  1.4514
17466TIP3    H273890   4.132   2.271  10.206  0.1351 -1.2673  0.0129
17467TIP3   OH273891   6.704   5.932  12.539 -0.1178  0.1547 -0.0028
17467TIP3    H173892   6.663   6.002  12.588 -1.6662 -0.3322 -0.5532
17467TIP3    H273893   6.689   5.954  12.447  1.1057  0.0926 -0.2432
17468TIP3   OH273894   3.497   1.736   2.600  0.4317 -0.2428 -0.5466
17468TIP3    H173895   3.464   1.725   2.689  3.5811 -1.7048  0.6031
17468TIP3    H273896   3.488   1.830   2.583 -1.2274 -0.1012  0.8674
17469TIP3   OH273897   4.623   3.232  14.653  0.1518  0.1755  0.6268
17469TIP3    H173898   4.612   3.141  14.682  2.1884 -0.3439 -0.0189
17469TIP3    H273899   4.673   3.225  14.572 -0.0196  1.8707  0.3395
17470TIP3   OH273900   5.003   2.026   4.313  0.0233 -0.2848  0.0593
17470TIP3    H173901   4.998   2.087   4.240  0.7983  2.4239  2.0909
17470TIP3    H273902   5.091   1.988   4.307 -0.3848 -1.0955 -1.0928
17471TIP3   OH273903   4.185   2.977   0.115 -0.0807  0.3196  0.0829
17471TIP3    H173904   4.258   3.027   0.079 -0.0067  0.5609  0.5585
17471TIP3    H273905   4.141   3.037   0.175 -0.8139  0.2499 -0.3701
17472TIP3   OH273906   3.940   2.265   3.757 -0.2438 -0.3618 -0.4749
17472TIP3    H173907   3.939   2.357   3.731 -0.9343 -0.5774 -1.2596
17472TIP3    H273908   3.984   2.264   3.842 -0.9553  0.7950 -0.0734
17473TIP3   OH273909   0.100   1.049   4.615 -0.0722 -0.4445  0.3089
17473TIP3    H173910   0.005   1.052   4.626  0.1320  0.9664  2.4272
17473TIP3    H273911   0.131   1.127   4.661  2.0664 -0.3134 -1.2093
17474TIP3   OH273912   3.469   6.508   5.797 -0.2503  0.0745  0.6966
17474TIP3    H173913   3.417   6.583   5.825 -2.2629 -1.5828  1.7674
17474TIP3    H273914   3.419   6.471   5.724 -0.4208 -1.3341  1.4874
17475TIP3   OH273915   6.771   6.831  14.437  0.1784 -0.0976 -0.2895
17475TIP3    H173916   6.842   6.841  14.373  0.9974 -0.8610  0.4770
17475TIP3    H273917   6.726   6.915  14.436  0.6173  0.1434 -1.3539
17476TIP3   OH273918   6.458   6.660   2.828 -0.2903  0.2605  0.3407
17476TIP3    H173919   6.541   6.703   2.850  0.0263  0.3248 -0.8996
17476TIP3    H273920   6.399   6.732   2.807 -0.3849  0.1691  0.2940
17477TIP3   OH273921   0.431   1.697  16.389 -0.3743 -0.7015 -0.2972
17477TIP3    H173922   0.437   1.617  16.336  2.2406 -0.3612 -0.6832
17477TIP3    H273923   0.471   1.673  16.473  0.1712  0.0893 -0.3147
17478TIP3   OH273924   1.810   1.599  11.225 -0.3735 -0.5229 -0.5209
17478TIP3    H173925   1.848   1.667  11.280  1.0754 -0.4118 -1.6000
17478TIP3    H273926   1.716   1.610  11.234 -0.1583  0.1778  1.0660
17479TIP3   OH273927   2.182   6.407   2.679 -0.4327 -0.3127 -0.6238
17479TIP3    H173928   2.219   6.384   2.764 -1.3575  0.5243  0.0315
17479TIP3    H273929   2.098   6.361   2.676 -1.1733  0.9557 -0.3406
17480TIP3   OH273930   5.505   4.168   0.185  0.1712 -0.0443 -0.2213
17480TIP3    H173931   5.588   4.214   0.175 -0.3510  1.4200  1.4353
17480TIP3    H273932   5.508   4.133   0.274 -0.8355 -0.2920 -0.2722
17481TIP3   OH273933   2.083   4.452   4.681  0.3502 -0.6344 -0.2098
17481TIP3    H173934   2.077   4.538   4.722  2.2339 -0.8047  0.5599
17481TIP3    H273935   2.010   4.402   4.718 -0.3141  0.4079 -0.0945
17482TIP3   OH273936   1.246   4.091  16.916  0.0841  0.0454  0.0977
17482TIP3    H173937   1.340   4.086  16.896  0.1070 -1.3825  0.4089
17482TIP3    H273938   1.240   4.155  16.986  0.6335  1.2184 -0.8819
17483TIP3   OH273939   4.475   3.139  11.260  0.4336 -0.0477 -0.3544
17483TIP3    H173940   4.436   3.054  11.238 -0.0699 -0.3153  1.4495
17483TIP3    H273941   4.553   3.144  11.205 -0.5819 -0.7892 -1.9394
17484TIP3   OH273942   2.588   6.786   5.070 -0.3364  0.1913 -0.0989
17484TIP3    H173943   2.538   6.796   4.989  0.2419  0.4628 -0.4309
17484TIP3    H273944   2.560   6.859   5.125 -1.1339 -0.3106  0.1619
17485TIP3   OH273945   0.844   4.944  15.235  0.1206 -0.5435  0.5502
17485TIP3    H173946   0.780   4.955  15.305 -0.0385 -0.8738  0.4574
17485TIP3    H273947   0.814   4.867  15.187  0.0177 -0.1003 -0.1062
17486TIP3   OH273948   3.649   6.766  10.931 -0.1930  0.7632  0.2764
17486TIP3    H173949   3.701   6.827  10.984 -1.1723  0.7626  1.2547
17486TIP3    H273950   3.631   6.693  10.989  1.8765 -1.0536 -1.1897
17487TIP3   OH273951   6.282   3.330  14.097  0.4855 -0.0938  0.2239
17487TIP3    H173952   6.297   3.247  14.052  0.0674  0.1811 -0.4232
17487TIP3    H273953   6.235   3.306  14.177 -1.9875 -0.2575 -1.1902
17488TIP3   OH273954   1.041   4.513   4.913 -0.1758 -0.0308 -0.1096
17488TIP3    H173955   1.074   4.427   4.937  1.4722  0.4793 -0.4631
17488TIP3    H273956   1.032   4.559   4.997 -0.2493 -0.2554  0.0073
17489TIP3   OH273957   5.478   0.213   2.097 -0.7080 -0.5421 -0.7294
17489TIP3    H173958   5.561   0.165   2.097 -1.4404 -1.8694 -0.8683
17489TIP3    H273959   5.483   0.271   2.022  0.9228  0.9491  0.4651
17490TIP3   OH273960   2.748   3.544  16.311 -0.3465 -0.3332  0.6557
17490TIP3    H173961   2.731   3.455  16.342  0.2972  0.0107  2.0780
17490TIP3    H273962   2.839   3.543  16.283  0.3649  0.3706  2.7256
17491TIP3   OH273963   4.138   1.103   5.278 -0.4137  0.0254  0.2367
17491TIP3    H173964   4.103   1.113   5.366  3.1774  0.2850  1.7936
17491TIP3    H273965   4.171   1.190   5.254 -1.1910 -0.0718 -1.3364
17492TIP3   OH273966   6.131   2.145   3.614  0.4028 -0.1844  0.3819
17492TIP3    H173967   6.090   2.230   3.599 -0.8219 -0.6225  1.1044
17492TIP3    H273968   6.121   2.131   3.709  0.4527 -1.2062  0.2403
17493TIP3   OH273969   6.807   3.495  16.162  0.0535  0.4520  0.0261
17493TIP3    H173970   6.851   3.451  16.235 -1.8597 -0.8517  0.4934
17493TIP3    H273971   6.834   3.447  16.084  1.9394  1.7166 -0.1687
17494TIP3   OH273972   4.026   4.312  13.165 -0.2880  0.1299 -0.0357
17494TIP3    H173973   4.010   4.396  13.207  0.2050  0.9071 -1.3467
17494TIP3    H273974   4.079   4.333  13.088 -0.7086 -1.3022 -0.7563
17495TIP3   OH273975   3.123   0.328   3.615 -0.3928  0.0723  0.2627
17495TIP3    H173976   3.042   0.279   3.606 -0.7262  0.2842  1.8238
17495TIP3    H273977   3.175   0.278   3.679  0.7896 -0.1411 -0.8135
17496TIP3   OH273978   1.818   0.654   0.969  0.0153 -0.0818 -0.2827
17496TIP3    H173979   1.795   0.741   1.000 -1.8756 -0.2542 -1.0805
17496TIP3    H273980   1.864   0.614   1.043 -1.2791  0.7300  1.0189
17497TIP3   OH273981   2.197   5.619   3.770  0.1940 -0.0370 -0.6981
17497TIP3    H173982   2.241   5.703   3.763  0.5955 -0.2855 -1.1833
17497TIP3    H273983   2.257   5.556   3.731 -0.5848 -0.3769 -1.3937
17498TIP3   OH273984   4.771   4.601  16.471 -0.2209 -0.1000  0.0286
17498TIP3    H173985   4.844   4.570  16.525 -0.5901 -0.2612  0.4423
17498TIP3    H273986   4.727   4.520  16.442 -1.4121  0.0133  1.4175
17499TIP3   OH273987   1.565   1.053   4.188 -0.1474  0.0330  0.3467
17499TIP3    H173988   1.601   1.119   4.248 -0.3142 -1.6845  2.4521
17499TIP3    H273989   1.542   1.103   4.109  1.2408  2.1920  1.2061
17500TIP3   OH273990   2.092   1.424   5.382  0.1264 -0.0020  0.5673
17500TIP3    H173991   2.068   1.417   5.475 -1.2683  1.9910  0.4269
17500TIP3    H273992   2.010   1.410   5.335  0.6387 -0.0876 -0.3188
17501TIP3   OH273993   6.072   4.573  14.915  0.1420 -0.2928  0.0725
17501TIP3    H173994   6.126   4.562  14.993 -0.6933 -1.3184  0.5272
17501TIP3    H273995   6.018   4.494  14.911 -1.7663  0.9489 -0.0045
17502TIP3   OH273996   5.211   2.309   2.354 -0.5246 -0.0918  0.4614
17502TIP3    H173997   5.265   2.239   2.391  1.3837  1.0368 -0.0486
17502TIP3    H273998   5.134   2.264   2.319  0.9908 -2.0614 -0.5669
17503TIP3   OH273999   3.535   4.813  12.259  0.7151  0.1391  0.1908
17503TIP3    H174000   3.542   4.829  12.165 -1.1268 -2.6224 -0.5576
17503TIP3    H274001   3.618   4.772  12.283  0.4082 -1.1159 -0.7768
17504TIP3   OH274002   2.864   3.474  14.566 -0.6779 -0.2444  0.1746
17504TIP3    H174003   2.817   3.501  14.487 -0.4957  0.7318  0.3827
17504TIP3    H274004   2.905   3.391  14.543 -0.7479 -0.0370 -0.7144
17505TIP3   OH274005   6.125   0.885  13.894 -0.1960  0.0193  0.0687
17505TIP3    H174006   6.065   0.959  13.899 -2.2027 -1.4725 -0.4544
17505TIP3    H274007   6.083   0.816  13.946  1.5884 -0.7975  0.5225
17506TIP3   OH274008   6.254   1.169  13.008  0.1077 -0.1159  0.0571
17506TIP3    H174009   6.314   1.095  13.016 -2.6845 -2.4024  1.4720
17506TIP3    H274010   6.216   1.179  13.095 -1.0583  1.7188 -0.5939
17507TIP3   OH274011   0.832   4.371   3.266 -0.1113 -0.2381 -0.3144
17507TIP3    H174012   0.841   4.462   3.296 -0.5438 -0.5955  0.9512
17507TIP3    H274013   0.762   4.335   3.320  1.2582 -1.8514  0.4881
17508TIP3   OH274014   6.085   4.370   4.505 -0.1147  0.0327 -0.4248
17508TIP3    H174015   6.158   4.427   4.480 -0.8161  1.7525  1.2190
17508TIP3    H274016   6.126   4.284   4.517  1.6327  0.8985  0.2321
17509TIP3   OH274017   5.521   0.821   1.585  0.5962 -0.1776  0.4067
17509TIP3    H174018   5.453   0.856   1.642  0.1362 -1.0483  0.4048
17509TIP3    H274019   5.474   0.791   1.507  1.0375 -0.3835  0.2152
17510TIP3   OH274020   4.474   1.503   1.852  0.0479  0.2149  0.4047
17510TIP3    H174021   4.438   1.416   1.867  0.2446  0.2819  1.3519
17510TIP3    H274022   4.477   1.512   1.757 -0.6023 -0.5444  0.3010
17511TIP3   OH274023   4.349   4.035   3.363 -0.1091  0.1586  0.0791
17511TIP3    H174024   4.261   4.071   3.356  0.2388  1.0408  0.1032
17511TIP3    H274025   4.407   4.105   3.334  0.5346 -0.7990 -1.0316
17512TIP3   OH274026   4.633   0.660   2.761  0.1380  0.0668  0.3683
17512TIP3    H174027   4.561   0.696   2.708  1.0316  0.2799 -0.7395
17512TIP3    H274028   4.700   0.728   2.758  1.1002 -0.8793 -0.1517
17513TIP3   OH274029   2.244   6.095  12.293  0.0216  0.0570 -0.5957
17513TIP3    H174030   2.258   6.031  12.363 -1.2873 -0.2294 -0.5767
17513TIP3    H274031   2.168   6.145  12.321  0.6755  1.2528 -0.8940
17514TIP3   OH274032   2.533   5.010   4.651 -0.1872 -0.0425  0.3105
17514TIP3    H174033   2.570   4.975   4.732 -0.4199  0.3715  0.6009
17514TIP3    H274034   2.602   5.000   4.586  0.2122  0.1766  0.7024
17515TIP3   OH274035   3.748   6.707   2.758  0.3331  0.4202 -0.6756
17515TIP3    H174036   3.806   6.635   2.781 -1.0062 -0.5251 -0.1203
17515TIP3    H274037   3.670   6.692   2.811 -0.6090  1.3761 -1.7503
17516TIP3   OH274038   6.475   2.819  13.740  0.3119 -0.0453  0.1876
17516TIP3    H174039   6.467   2.910  13.771 -0.6001 -0.6854  1.9445
17516TIP3    H274040   6.384   2.787  13.737  0.5311 -0.5864 -1.4746
17517TIP3   OH274041   6.710   1.970  16.144  0.9533  0.3931  0.6390
17517TIP3    H174042   6.666   1.959  16.060  1.4376 -1.2773  0.5752
17517TIP3    H274043   6.651   2.026  16.195 -0.0450  0.2196 -0.2874
17518TIP3   OH274044   0.259   3.914  14.619  0.2713  0.2192  0.2782
17518TIP3    H174045   0.179   3.864  14.606 -0.7891  2.0002 -0.3964
17518TIP3    H274046   0.235   3.982  14.682 -0.1176  3.4893 -3.0939
17519TIP3   OH274047   5.512   4.922  11.825 -0.6739 -0.3423  0.2859
17519TIP3    H174048   5.590   4.885  11.784 -2.3971 -0.4463 -3.2688
17519TIP3    H274049   5.518   5.016  11.806 -2.4023 -0.6246 -2.2030
17520TIP3   OH274050   4.735   6.473  13.888  0.4104  0.1281  0.4569
17520TIP3    H174051   4.805   6.445  13.947 -2.2105 -0.9775  3.3513
17520TIP3    H274052   4.666   6.505  13.946 -1.3610  1.5682 -2.2292
17521TIP3   OH274053   6.586   4.545   3.988  0.0210 -0.0634  0.2531
17521TIP3    H174054   6.501   4.502   3.986  0.5610 -1.1359 -0.1104
17521TIP3    H274055   6.600   4.574   3.897  0.6323 -1.0836  0.0113
17522TIP3   OH274056   1.576   3.729   4.682 -0.1208  0.7974 -0.2851
17522TIP3    H174057   1.562   3.645   4.640 -0.5092  0.3426  0.7214
17522TIP3    H274058   1.505   3.785   4.649  0.1113  0.7193 -0.9161
17523TIP3   OH274059   6.118   1.984   1.298 -0.0655  0.7586  0.2922
17523TIP3    H174060   6.161   2.051   1.245 -0.9545  0.8127 -0.3744
17523TIP3    H274061   6.131   1.902   1.250 -1.0741  0.8433 -0.1552
17524TIP3   OH274062   1.183   4.602   3.058 -0.2451  0.0171  0.1303
17524TIP3    H174063   1.224   4.617   2.973 -1.8178 -0.6953 -0.8039
17524TIP3    H274064   1.241   4.540   3.102  0.7000  0.5572 -0.3219
17525TIP3   OH274065   3.842   4.340   2.042 -0.2438 -1.1108 -0.5639
17525TIP3    H174066   3.820   4.387   2.123  0.5194  0.1309 -1.0463
17525TIP3    H274067   3.767   4.354   1.985  0.9171  1.6634 -1.5830
17526TIP3   OH274068   2.507   4.478  14.927 -0.1196  0.4407  0.2374
17526TIP3    H174069   2.594   4.515  14.919  0.2855 -0.2159  1.3552
17526TIP3    H274070   2.516   4.409  14.993 -2.0199  2.1059  2.4277
17527TIP3   OH274071   5.333   0.426  12.246  0.6461  0.1954  0.0915
17527TIP3    H174072   5.354   0.502  12.300  1.4162  0.6509 -0.8228
17527TIP3    H274073   5.324   0.462  12.158 -0.6436 -0.5246 -0.0961
17528TIP3   OH274074   3.688   1.859   3.038  0.2142  0.1394  0.6963
17528TIP3    H174075   3.741   1.803   3.094  0.8224 -1.8235 -1.6488
17528TIP3    H274076   3.598   1.830   3.052  0.7006 -3.7780 -2.5674
17529TIP3   OH274077   5.745   5.824   5.137 -0.0442 -0.0530  0.5334
17529TIP3    H174078   5.769   5.762   5.206 -1.7972 -2.6064 -0.9887
17529TIP3    H274079   5.754   5.774   5.055  2.6794  3.0373 -1.3028
17530TIP3   OH274080   6.197   0.733  15.844 -0.1460  0.3472 -0.3360
17530TIP3    H174081   6.246   0.809  15.813  0.1187  0.9996  1.5458
17530TIP3    H274082   6.114   0.770  15.875 -0.7300 -0.3867 -0.9834
17531TIP3   OH274083   3.343   4.439   4.010 -0.2711 -0.3444  0.0531
17531TIP3    H174084   3.428   4.426   4.053 -0.5581 -0.4351  0.5989
17531TIP3    H274085   3.329   4.534   4.014  0.1904 -0.2358 -0.7861
17532TIP3   OH274086   1.028   0.636  15.784 -0.5593  0.1322 -0.2354
17532TIP3    H174087   0.937   0.654  15.809 -1.4623 -1.7732 -1.9079
17532TIP3    H274088   1.040   0.683  15.702 -0.6895 -1.1242 -1.0016
17533TIP3   OH274089   5.884   0.578   1.145  0.6752 -0.3892  0.1637
17533TIP3    H174090   5.870   0.484   1.135 -0.3947 -0.2440  0.1377
17533TIP3    H274091   5.796   0.616   1.141  0.7501  0.3474  2.9042
17534TIP3   OH274092   6.392   6.245  15.011 -0.2768  0.3032  0.2403
17534TIP3    H174093   6.485   6.228  15.029 -0.0475 -0.2610 -1.3589
17534TIP3    H274094   6.393   6.312  14.943 -0.9174 -1.8526 -2.0282
17535TIP3   OH274095   3.508   2.431   3.730 -0.2346 -0.1010 -0.1980
17535TIP3    H174096   3.449   2.374   3.680 -2.3972 -0.7055  2.7979
17535TIP3    H274097   3.556   2.371   3.787  0.2707  0.7630  0.3092
17536TIP3   OH274098   1.896   6.521  11.619 -0.4847 -0.0941 -0.1364
17536TIP3    H174099   1.964   6.569  11.574 -1.0029 -0.3569 -1.2328
17536TIP3    H274100   1.923   6.429  11.613 -0.8730 -0.1893 -0.4768
17537TIP3   OH274101   3.021   3.166   6.198 -0.2602  0.3355 -0.0648
17537TIP3    H174102   3.049   3.093   6.253  0.5528  1.0237  0.4716
17537TIP3    H274103   2.939   3.195   6.236 -0.5997 -0.3102 -0.2944
17538TIP3   OH274104   4.399   2.347   0.976 -0.0610  0.3077 -0.7813
17538TIP3    H174105   4.462   2.342   0.904  1.0254  0.8962  0.0915
17538TIP3    H274106   4.316   2.318   0.938  0.5724  0.2293 -2.1547
17539TIP3   OH274107   1.054   2.930  10.547 -0.3370 -0.1379 -0.2105
17539TIP3    H174108   1.001   2.850  10.551 -0.5996  0.0650  0.5154
17539TIP3    H274109   1.014   2.988  10.611  0.4244  0.2356 -0.0650
17540TIP3   OH274110   5.966   2.868  15.665 -0.0606 -0.3226 -0.0083
17540TIP3    H174111   5.987   2.894  15.576 -0.0243 -0.9347 -0.1846
17540TIP3    H274112   6.031   2.801  15.686 -0.5480 -0.7400  0.1942
17541TIP3   OH274113   5.565   1.032  15.403 -0.7832  0.1427  0.3915
17541TIP3    H174114   5.633   0.974  15.370 -0.9826  0.7161 -1.1136
17541TIP3    H274115   5.605   1.076  15.478  1.8308  2.9553 -2.3708
17542TIP3   OH274116   4.583   5.848  11.593 -0.0294 -0.0825 -0.3045
17542TIP3    H174117   4.574   5.918  11.658 -0.1843 -1.6488  1.4149
17542TIP3    H274118   4.499   5.802  11.596  0.6839 -1.3952 -0.1403
17543TIP3   OH274119   0.778   0.917  12.549  0.1312 -0.1474 -0.2513
17543TIP3    H174120   0.694   0.880  12.575  0.7980 -2.5036 -1.1813
17543TIP3    H274121   0.779   1.004  12.588 -3.5754  0.7883 -1.8290
17544TIP3   OH274122   2.543   0.467  15.350  0.0223 -0.0032 -0.1638
17544TIP3    H174123   2.636   0.453  15.364 -0.3387 -2.6349  0.1394
17544TIP3    H274124   2.518   0.400  15.286 -1.3425  1.8271 -1.6661
17545TIP3   OH274125   0.800   0.538   5.862 -0.5008  0.2564  0.2289
17545TIP3    H174126   0.863   0.569   5.797  0.3878 -0.6331  0.6448
17545TIP3    H274127   0.845   0.548   5.946 -1.5140  1.0937  0.6943
17546TIP3   OH274128   1.341   1.083   0.912 -0.3163 -0.0933 -0.0510
17546TIP3    H174129   1.375   1.003   0.872 -2.4465 -1.5785  0.8944
17546TIP3    H274130   1.408   1.110   0.974  1.0247 -0.3484 -1.3447
17547TIP3   OH274131   6.825   6.472  12.959  0.0002  0.0726 -0.0346
17547TIP3    H174132   6.798   6.433  13.042  0.6844  0.5537  0.4233
17547TIP3    H274133   6.766   6.546  12.946  1.6606  1.7627  1.4805
17548TIP3   OH274134   4.712   1.689   2.209  0.2172 -0.0235  0.1666
17548TIP3    H174135   4.748   1.685   2.298 -0.1368  0.2345  0.3238
17548TIP3    H274136   4.617   1.685   2.222  0.1352  0.8017 -0.1548
17549TIP3   OH274137   5.340   3.492  14.023  0.3709  0.2637 -0.3470
17549TIP3    H174138   5.262   3.486  14.078  0.1642  0.8424 -0.5766
17549TIP3    H274139   5.397   3.422  14.055 -1.2307 -1.8380 -1.7598
17550TIP3   OH274140   5.515   1.256   3.294  0.4488  0.4804  0.5221
17550TIP3    H174141   5.607   1.284   3.296  1.0875 -1.4888  0.8151
17550TIP3    H274142   5.501   1.217   3.380 -0.9676  1.5640  0.8140
17551TIP3   OH274143   3.723   4.216  15.266 -0.5112 -0.4443  0.0194
17551TIP3    H174144   3.667   4.149  15.228  0.1289 -0.9459 -0.0512
17551TIP3    H274145   3.785   4.239  15.196  0.1804 -0.8160  0.5033
17552TIP3   OH274146   4.481   4.876  14.183  0.5051 -0.2718 -0.4997
17552TIP3    H174147   4.534   4.797  14.198 -0.0556 -0.7594 -1.0321
17552TIP3    H274148   4.404   4.845  14.135  0.0368  0.5279 -0.2874
17553TIP3   OH274149   5.387   0.200  13.876 -0.5644 -0.6946 -0.1260
17553TIP3    H174150   5.435   0.281  13.888  0.9161 -1.6143  0.4617
17553TIP3    H274151   5.308   0.225  13.828  0.7953  0.7878 -1.7005
17554TIP3   OH274152   6.680   1.679   4.324  0.8078 -0.5415  0.5346
17554TIP3    H174153   6.588   1.654   4.329  0.8587 -0.4449  2.6086
17554TIP3    H274154   6.680   1.774   4.317  0.7480 -0.4378  1.7841
17555TIP3   OH274155   2.469   4.574  14.682 -0.6458  0.0234  0.6567
17555TIP3    H174156   2.485   4.531  14.765 -0.4284 -0.2604  0.4696
17555TIP3    H274157   2.477   4.504  14.617 -2.1749 -0.0608  0.5072
17556TIP3   OH274158   4.253   6.424   4.979 -0.1733  0.2315 -0.1914
17556TIP3    H174159   4.209   6.502   5.014 -1.6632  0.5444 -2.5793
17556TIP3    H274160   4.248   6.361   5.051 -3.0107  0.8558  0.2838
17557TIP3   OH274161   6.459   3.847  12.482 -0.0927 -0.0797 -0.1660
17557TIP3    H174162   6.436   3.803  12.564 -0.0148  0.2378  0.0259
17557TIP3    H274163   6.490   3.933  12.508 -0.7431  0.2850 -0.5823
17558TIP3   OH274164   1.889   1.932  16.209  0.0481 -0.3240  0.0476
17558TIP3    H174165   1.811   1.952  16.261 -0.3054 -0.5273 -0.3969
17558TIP3    H274166   1.946   1.883  16.268 -0.5455 -0.9494  0.1100
17559TIP3   OH274167   0.581   1.515  12.872  0.3979 -0.0659 -0.4439
17559TIP3    H174168   0.498   1.471  12.889  1.9663 -1.8599  3.8584
17559TIP3    H274169   0.634   1.451  12.825 -0.1770  0.6723 -2.1816
17560TIP3   OH274170   0.152   0.159  14.693  0.6835 -0.1517 -0.4691
17560TIP3    H174171   0.173   0.108  14.615  0.5719  0.4899 -0.9250
17560TIP3    H274172   0.066   0.128  14.719  1.1697 -1.1279  0.0363
17561TIP3   OH274173   1.518   5.882  12.049  0.4031 -0.6985 -0.3229
17561TIP3    H174174   1.494   5.797  12.013 -1.0400 -0.9184  1.0400
17561TIP3    H274175   1.551   5.862  12.137 -3.4776  0.2925  1.5884
17562TIP3   OH274176   0.925   6.565   3.355 -0.3548 -0.2730 -0.0041
17562TIP3    H174177   0.858   6.629   3.328  0.9223  2.1402  2.0643
17562TIP3    H274178   1.008   6.610   3.339  0.6474 -1.8142  0.6901
17563TIP3   OH274179   4.984   0.321  15.458 -0.4170 -0.2550 -0.2928
17563TIP3    H174180   5.050   0.386  15.432 -0.5004  0.1153  0.4172
17563TIP3    H274181   5.010   0.242  15.411  0.8386 -0.2575  0.3486
17564TIP3   OH274182   0.308   5.703  13.651 -0.5791  0.0831  0.1578
17564TIP3    H174183   0.334   5.637  13.586 -0.4922  0.8681 -0.6252
17564TIP3    H274184   0.289   5.652  13.730  0.0582 -0.8274 -0.2476
17565TIP3   OH274185   1.755   3.173   3.971  0.0177 -0.2761  0.1581
17565TIP3    H174186   1.708   3.257   3.967 -0.9109 -0.7676  0.2945
17565TIP3    H274187   1.812   3.173   3.895 -1.3425 -0.2922 -0.9026
17566TIP3   OH274188   2.435   5.287  15.586 -0.2043 -0.1719 -0.0828
17566TIP3    H174189   2.350   5.304  15.544 -0.1670  2.7633  0.8381
17566TIP3    H274190   2.433   5.338  15.666  2.1169 -0.7519  0.4113
17567TIP3   OH274191   5.648   0.084   0.089 -0.0820  0.6614  0.1577
17567TIP3    H174192   5.640   0.119   0.178  2.0563  1.0064  0.2867
17567TIP3    H274193   5.741   0.060   0.082 -0.2373  0.5113 -1.9427
17568TIP3   OH274194   0.077   1.833  16.182 -0.3663 -0.5207  0.3721
17568TIP3    H174195  -0.004   1.880  16.162  0.9827  0.8432 -2.2661
17568TIP3    H274196   0.053   1.740  16.174 -1.5953 -0.1391 -0.7051
17569TIP3   OH274197   3.708   5.443  15.416  0.2554 -0.0762 -0.3718
17569TIP3    H174198   3.696   5.465  15.324 -1.9939  2.8310  0.4513
17569TIP3    H274199   3.660   5.360  15.428 -2.6330  1.3529 -1.2035
17570TIP3   OH274200   4.407   0.732  11.599 -0.5185 -0.2418 -0.1285
17570TIP3    H174201   4.489   0.743  11.550  0.4312  1.8952  1.7434
17570TIP3    H274202   4.392   0.638  11.599  0.6981 -0.5184 -2.4344
17571TIP3   OH274203   6.390   5.860   5.815  0.5747  0.0586 -0.0355
17571TIP3    H174204   6.369   5.851   5.908  0.5749  1.7200  0.1616
17571TIP3    H274205   6.484   5.843   5.811  0.3211 -1.5059  0.0069
17572TIP3   OH274206   1.933   3.040   4.585  0.4378  0.2657  0.1755
17572TIP3    H174207   1.891   3.045   4.499  0.0780 -0.7661  0.2762
17572TIP3    H274208   2.024   3.020   4.566  0.3304 -0.1002  0.0292
17573TIP3   OH274209   1.995   5.354   5.082  0.2349  0.1748 -0.4146
17573TIP3    H174210   2.072   5.298   5.073  0.6488  0.4302  1.2343
17573TIP3    H274211   1.934   5.302   5.134 -0.6255  0.0820 -1.4748
17574TIP3   OH274212   2.302   3.544   4.185  0.1671  0.1031  0.1491
17574TIP3    H174213   2.243   3.512   4.116 -2.0522  1.5652  1.2279
17574TIP3    H274214   2.365   3.600   4.140 -2.1287  2.2189 -0.6458
17575TIP3   OH274215   0.603   4.733   1.901 -0.0825 -0.2572  0.1915
17575TIP3    H174216   0.684   4.755   1.854  0.4498  0.3820  1.3436
17575TIP3    H274217   0.592   4.639   1.888 -0.5146  0.0449 -2.0031
17576TIP3   OH274218   4.631   6.062   4.596 -0.1067 -0.1250 -0.0749
17576TIP3    H174219   4.688   5.990   4.567 -0.7994 -0.7611  0.1022
17576TIP3    H274220   4.692   6.129   4.628  0.5473 -0.9114  0.3909
17577TIP3   OH274221   3.123   6.174   4.469  0.0428 -0.5706  0.0731
17577TIP3    H174222   3.167   6.189   4.385 -1.8979 -0.1981 -0.9216
17577TIP3    H274223   3.112   6.262   4.506 -1.3761 -0.4776 -0.5128
17578TIP3   OH274224   0.588   4.036  16.347 -0.0361  0.0097  0.3649
17578TIP3    H174225   0.506   4.085  16.335  0.5286  0.8034 -0.4866
17578TIP3    H274226   0.619   4.020  16.258  1.1650  0.4923  0.6738
17579TIP3   OH274227   3.344   3.567   3.405  0.0267 -0.2335 -0.0043
17579TIP3    H174228   3.361   3.525   3.321 -0.6227 -0.4547 -0.0314
17579TIP3    H274229   3.428   3.564   3.451  0.3368 -0.2714 -0.5726
17580TIP3   OH274230   2.813   6.030   6.095 -0.3050  0.5505  0.0368
17580TIP3    H174231   2.845   5.958   6.041 -2.0885 -0.2503 -0.0185
17580TIP3    H274232   2.729   5.999   6.130 -1.0393  2.5008  0.1674
17581TIP3   OH274233   4.119   2.518  16.037 -0.0990  0.1677  0.1232
17581TIP3    H174234   4.114   2.552  16.127  1.9014  0.9976 -0.0309
17581TIP3    H274235   4.108   2.596  15.982  0.6407 -0.0343 -0.3137
17582TIP3   OH274236   5.680   6.807   0.618  0.5263  0.5154 -0.5970
17582TIP3    H174237   5.762   6.831   0.575 -0.0434  2.4416 -0.7278
17582TIP3    H274238   5.679   6.858   0.699  0.1313 -0.6544  0.1643
17583TIP3   OH274239   5.178   5.559  16.152 -0.0964  0.2021 -0.1464
17583TIP3    H174240   5.253   5.533  16.098 -0.9112 -0.3226 -1.0629
17583TIP3    H274241   5.111   5.584  16.089 -1.0552 -0.3453  0.6235
17584TIP3   OH274242   4.127   6.157   5.775 -0.4277  0.6805 -0.5046
17584TIP3    H174243   4.073   6.115   5.708 -1.5084 -0.7298  1.1510
17584TIP3    H274244   4.215   6.159   5.738 -0.4219 -2.5923 -0.9664
17585TIP3   OH274245   3.427   5.693   0.678  0.3356 -0.4541  0.1214
17585TIP3    H174246   3.361   5.690   0.748  0.9791 -3.5477  0.7365
17585TIP3    H274247   3.377   5.717   0.600 -1.3597 -1.6574  0.7701
17586TIP3   OH274248   3.762   5.064  10.978 -0.1120  0.5986  0.1297
17586TIP3    H174249   3.699   5.009  11.025  0.8695  0.7791  1.7465
17586TIP3    H274250   3.774   5.020  10.894 -1.1144 -0.3539  0.4546
17587TIP3   OH274251   2.667   3.347   0.165  0.1206  0.5766 -0.4369
17587TIP3    H174252   2.679   3.277   0.228  0.1113  2.9051  2.3870
17587TIP3    H274253   2.574   3.345   0.143  0.0530 -0.0344 -0.0968
17588TIP3   OH274254   2.723   1.546   1.421 -0.3272  0.4531 -0.3773
17588TIP3    H174255   2.682   1.626   1.451  0.5179  0.2627  1.3963
17588TIP3    H274256   2.678   1.476   1.469  2.4558  0.2910  2.2636
17589TIP3   OH274257   0.744   0.501  10.377  0.2338  0.1345  0.2178
17589TIP3    H174258   0.682   0.442  10.419 -0.3532  0.2963 -0.3952
17589TIP3    H274259   0.710   0.589  10.395 -1.1248  0.1777 -2.1292
17590TIP3   OH274260   5.766   4.637   4.565  0.1794  0.2915 -0.0261
17590TIP3    H174261   5.853   4.649   4.527  0.5272 -1.3154  0.1921
17590TIP3    H274262   5.746   4.721   4.607  1.6296  0.6870 -0.0837
17591TIP3   OH274263   4.017   1.421   5.042 -0.1286  0.3018 -0.2864
17591TIP3    H174264   4.090   1.460   5.090  1.2441 -0.2473 -1.8241
17591TIP3    H274265   3.987   1.492   4.984 -1.0136  0.6057  0.5245
17592TIP3   OH274266   5.213   6.130   3.725  0.3582  0.0885  0.3563
17592TIP3    H174267   5.168   6.184   3.659  2.5433  0.3747 -1.0041
17592TIP3    H274268   5.255   6.061   3.674 -2.8161 -3.4571  2.0860
17593TIP3   OH274269   4.438   2.434  16.726 -0.0352 -0.2984  0.2820
17593TIP3    H174270   4.386   2.423  16.646  0.7763  0.2238 -0.3429
17593TIP3    H274271   4.462   2.527  16.725  0.9319 -0.5372  0.5332
17594TIP3   OH274272   4.114   4.306   0.125  0.2498  0.1589 -0.4177
17594TIP3    H174273   4.105   4.361   0.203  1.2426 -0.9085  0.4768
17594TIP3    H274274   4.078   4.221   0.150 -1.4342  0.3993 -1.8485
17595TIP3   OH274275   5.152   6.561   4.888  0.5828 -0.0019  0.1887
17595TIP3    H174276   5.112   6.602   4.811 -0.6930 -1.2620  0.1307
17595TIP3    H274277   5.246   6.567   4.873  0.4338  2.2470 -0.1233
17596TIP3   OH274278   2.272   6.370   4.529 -0.1951  0.6292 -0.0227
17596TIP3    H174279   2.304   6.286   4.561 -2.2699  0.2127  1.0837
17596TIP3    H274280   2.312   6.379   4.443 -0.1297 -1.6081 -0.2828
17597TIP3   OH274281   2.247   5.349  13.416 -0.0075  0.8647  0.3229
17597TIP3    H174282   2.301   5.366  13.494 -0.1281 -1.2861  0.9171
17597TIP3    H274283   2.160   5.382  13.440  0.2287  1.2716  0.6415
17598TIP3   OH274284   4.981   0.159  13.760  0.2221 -0.0163  0.2673
17598TIP3    H174285   5.057   0.200  13.719 -0.0517 -0.9296 -1.2307
17598TIP3    H274286   5.019   0.100  13.826  0.5974  3.1169  3.1193
17599TIP3   OH274287   3.875   3.886  14.103 -0.1382  0.4651  0.7470
17599TIP3    H174288   3.803   3.851  14.156 -1.3814  1.1227 -0.4492
17599TIP3    H274289   3.907   3.810  14.054 -0.7508  0.3643  0.4900
17600TIP3   OH274290   6.145   3.418   3.505 -0.0904  0.6910  0.2381
17600TIP3    H174291   6.224   3.417   3.452  0.3654  1.5229  0.8718
17600TIP3    H274292   6.132   3.510   3.527 -1.3235  0.5818  0.0276
17601TIP3   OH274293   0.097   2.059   4.234 -0.5881  0.2369  0.7547
17601TIP3    H174294   0.106   2.115   4.311 -1.4098  1.5746 -0.0892
17601TIP3    H274295   0.154   2.099   4.169 -1.1075  0.0358  0.1731
17602TIP3   OH274296   6.371   4.921  10.709  0.0492 -0.1073  0.4473
17602TIP3    H174297   6.433   4.931  10.782  0.5377  0.2806 -0.0150
17602TIP3    H274298   6.285   4.925  10.751  0.2959  1.2400  0.8899
17603TIP3   OH274299   4.018   0.288   2.010  0.1828  0.5966 -0.4595
17603TIP3    H174300   4.085   0.242   2.060  0.1061 -0.7036 -1.5222
17603TIP3    H274301   4.040   0.381   2.021  1.4290  0.2461  0.1947
17604TIP3   OH274302   3.596   4.149   4.215  0.7538 -0.3418 -0.1382
17604TIP3    H174303   3.610   4.061   4.179 -1.7700 -1.3051  1.0206
17604TIP3    H274304   3.601   4.137   4.310 -1.0390  0.4422  0.0992
17605TIP3   OH274305   0.805   4.667   2.094  0.1919  0.5650 -0.4873
17605TIP3    H174306   0.790   4.752   2.135 -2.6253 -0.6260  1.2286
17605TIP3    H274307   0.728   4.653   2.040 -0.1049 -1.4868  0.3999
17606TIP3   OH274308   1.539   2.448  13.833 -0.0069 -0.3328  0.2954
17606TIP3    H174309   1.465   2.393  13.860 -1.6016  1.1330 -0.8528
17606TIP3    H274310   1.502   2.508  13.769  2.2375  0.4096 -0.4032
17607TIP3   OH274311   0.983   0.364  12.368 -0.2537  0.1163 -0.2171
17607TIP3    H174312   1.047   0.327  12.307  0.1376 -0.5312  0.5712
17607TIP3    H274313   0.963   0.450  12.332 -0.0540 -0.2693 -1.2738
17608TIP3   OH274314   5.710   0.532  11.254  0.1537  0.3571  0.0208
17608TIP3    H174315   5.676   0.615  11.286 -2.1423 -0.5115  0.0084
17608TIP3    H274316   5.683   0.468  11.319 -0.1371 -0.7057 -1.1175
17609TIP3   OH274317   2.708   3.997  16.090  0.1652  0.4051  0.4545
17609TIP3    H174318   2.743   4.016  16.177 -1.5589 -1.2418  1.5741
17609TIP3    H274319   2.738   3.908  16.070  0.4167  0.7059 -0.5879
17610TIP3   OH274320   4.957   1.515  14.062 -0.1362 -0.0392  0.4139
17610TIP3    H174321   4.914   1.448  14.115 -0.1023 -2.0968 -1.9798
17610TIP3    H274322   4.906   1.518  13.981  1.6322  0.6626 -0.7303
17611TIP3   OH274323   2.289   1.329  15.351  0.0102 -0.5002 -0.0976
17611TIP3    H174324   2.237   1.343  15.272  1.8363  0.7292 -1.1480
17611TIP3    H274325   2.342   1.251  15.332  0.5501 -0.1250 -0.1390
17612TIP3   OH274326   6.136   5.631   3.873  0.0081  1.0299  0.2084
17612TIP3    H174327   6.170   5.617   3.784  1.7045 -1.4567  1.1291
17612TIP3    H274328   6.047   5.596   3.871  0.9889 -1.7452  0.0606
17613TIP3   OH274329   3.831   1.180  15.435  0.0812  0.7050  0.6611
17613TIP3    H174330   3.824   1.184  15.339  0.5791  1.4021  0.6431
17613TIP3    H274331   3.881   1.101  15.452 -0.5500  0.2349  0.3813
17614TIP3   OH274332   6.376   3.440   0.146 -0.4367 -0.4555 -0.3490
17614TIP3    H174333   6.282   3.459   0.148 -0.5218 -0.5897 -1.8860
17614TIP3    H274334   6.412   3.488   0.221 -1.3895  1.4756 -1.0606
17615TIP3   OH274335   2.457   2.150  15.314 -0.0197  0.4208  0.7662
17615TIP3    H174336   2.519   2.122  15.247 -0.8510  1.3530 -0.4462
17615TIP3    H274337   2.510   2.163  15.393  0.9184 -1.0704  0.4099
17616TIP3   OH274338   3.627   2.750  11.197 -0.1872  0.0012  0.1938
17616TIP3    H174339   3.647   2.740  11.104  0.4166 -2.5118  0.5153
17616TIP3    H274340   3.531   2.745  11.202 -0.2112 -0.0008 -0.2783
17617TIP3   OH274341   0.674   0.064  15.389 -0.1732  0.0032 -0.0998
17617TIP3    H174342   0.753   0.016  15.366  0.0702  1.5021 -2.7759
17617TIP3    H274343   0.609  -0.004  15.405  0.7811 -1.2480 -1.2584
17618TIP3   OH274344   6.614   2.188  16.276 -0.0997  0.2167  0.1438
17618TIP3    H174345   6.575   2.187  16.363 -2.0429 -2.6592 -0.6222
17618TIP3    H274346   6.571   2.261  16.231 -0.5009  0.5132  0.9858
17619TIP3   OH274347   3.686   2.407  14.181 -0.0576  0.3406 -0.1808
17619TIP3    H174348   3.736   2.380  14.104 -1.4257 -1.1861 -0.5836
17619TIP3    H274349   3.747   2.397  14.254  0.4978 -0.6705 -0.7584
17620TIP3   OH274350   4.265   4.101  16.975 -0.8971  0.5255  0.0833
17620TIP3    H174351   4.290   4.192  16.986  0.1852  0.3731 -0.9269
17620TIP3    H274352   4.169   4.102  16.980 -0.8470  1.4416  1.8150
17621TIP3   OH274353   4.942   2.388   3.575 -0.1805 -0.0584 -0.5240
17621TIP3    H174354   4.881   2.314   3.564  0.1726 -0.3843 -0.3103
17621TIP3    H274355   4.916   2.428   3.659  0.8066 -1.0749  0.3001
17622TIP3   OH274356   3.982   3.271  15.480 -0.5610  0.1442  0.0389
17622TIP3    H174357   4.062   3.293  15.433 -1.3197  1.0277 -0.8936
17622TIP3    H274358   3.957   3.185  15.447 -1.4474  1.0416 -1.7233
17623TIP3   OH274359   0.473   0.514  15.214 -0.1142  0.2060 -0.2630
17623TIP3    H174360   0.475   0.436  15.158  1.1024 -1.8622  2.4442
17623TIP3    H274361   0.562   0.550  15.208 -0.1926  0.4125 -0.1947
17624TIP3   OH274362   4.443   3.573   4.961 -0.0734 -0.0759 -0.1543
17624TIP3    H174363   4.496   3.653   4.961 -0.0718 -0.0648 -1.0857
17624TIP3    H274364   4.483   3.517   5.028  1.2333 -0.1417 -0.9590
17625TIP3   OH274365   0.924   4.696  12.518  0.1186 -0.1382  0.2228
17625TIP3    H174366   0.952   4.786  12.535 -0.8055  0.1508  0.2759
17625TIP3    H274367   0.910   4.658  12.605 -1.9167  0.4726  0.2177
17626TIP3   OH274368   0.055   1.262   1.030 -0.0051  0.2381 -1.1517
17626TIP3    H174369   0.095   1.307   1.104  0.2019 -0.7148 -0.6650
17626TIP3    H274370   0.071   1.169   1.048 -0.7593 -0.0469 -1.9245
17627TIP3   OH274371   0.239   6.060   4.486  0.4205  0.5706 -0.4916
17627TIP3    H174372   0.332   6.073   4.470  0.1238  0.0178 -3.0859
17627TIP3    H274373   0.232   5.971   4.521  0.7467  0.0548 -1.7261
17628TIP3   OH274374   5.413   1.266   4.312 -0.1662 -0.4024 -0.1886
17628TIP3    H174375   5.463   1.186   4.293  0.4397  0.3574 -2.0650
17628TIP3    H274376   5.387   1.257   4.403  1.1374 -2.0651  0.0747
17629TIP3   OH274377   5.486   6.737   5.557  0.2678  0.0406  0.2765
17629TIP3    H174378   5.462   6.823   5.522 -0.3857 -0.3693 -0.2911
17629TIP3    H274379   5.440   6.675   5.501  2.2946 -0.7666 -0.5823
17630TIP3   OH274380   1.964   6.782  16.031  0.3027 -0.7595  0.6478
17630TIP3    H174381   1.950   6.707  15.974  0.6325 -0.1839 -0.2134
17630TIP3    H274382   2.059   6.790  16.037  0.4580  1.7796 -2.3574
17631TIP3   OH274383   3.860   5.079   5.773 -0.1516 -0.7976 -0.0704
17631TIP3    H174384   3.830   5.073   5.863 -0.0034 -0.9178 -0.0288
17631TIP3    H274385   3.894   5.168   5.765  1.3208 -1.2696  0.4641
17632TIP3   OH274386   2.229   3.935  12.069 -0.7332  0.1853 -0.0278
17632TIP3    H174387   2.292   3.977  12.010 -0.9546  2.0713  0.9880
17632TIP3    H274388   2.225   3.845  12.039  1.5229  0.2981 -0.9022
17633TIP3   OH274389   1.241   2.622  12.946  0.5467 -0.3777 -0.7790
17633TIP3    H174390   1.322   2.590  12.986  0.8892 -0.3204 -1.4124
17633TIP3    H274391   1.266   2.706  12.906 -0.3086  0.6623  0.7581
17634TIP3   OH274392   1.792   3.348  14.377  1.0925  0.0098  0.0988
17634TIP3    H174393   1.734   3.377  14.306  2.3610  0.9959 -0.5869
17634TIP3    H274394   1.769   3.404  14.451 -0.5652 -1.3400  0.6685
17635TIP3   OH274395   1.541   0.484   1.763  0.6187  0.0036 -0.1387
17635TIP3    H174396   1.580   0.492   1.850  1.4122  1.5042 -0.5871
17635TIP3    H274397   1.552   0.392   1.739  0.1314 -0.5002  1.4423
17636TIP3   OH274398   3.193   0.723  15.045 -0.7676  0.3188 -0.2116
17636TIP3    H174399   3.177   0.693  14.956 -1.2367 -1.0384  0.3019
17636TIP3    H274400   3.122   0.786  15.061 -0.9691  0.2067 -0.6333
17637TIP3   OH274401   2.552   1.204   5.367  0.0032  0.4586 -0.0495
17637TIP3    H174402   2.625   1.148   5.343  0.4895  0.6764  0.8769
17637TIP3    H274403   2.520   1.168   5.450  0.2730  1.4672  0.5243
17638TIP3   OH274404   4.968   4.489  16.243  0.6248 -0.0792 -0.4282
17638TIP3    H174405   4.888   4.477  16.295  0.3814 -2.8849 -1.2997
17638TIP3    H274406   5.038   4.493  16.307  0.1377 -1.4801  0.2201
17639TIP3   OH274407   4.677   3.586   0.881 -0.5489 -0.1181  0.5327
17639TIP3    H174408   4.661   3.494   0.861 -0.7409  0.0176  0.0523
17639TIP3    H274409   4.740   3.584   0.954  0.6537 -0.6159 -0.4885
17640TIP3   OH274410   2.256   4.602   1.046  0.3122  0.8768 -0.2885
17640TIP3    H174411   2.171   4.639   1.071 -0.4037 -0.1899 -1.0534
17640TIP3    H274412   2.244   4.575   0.955  1.0894 -0.3894 -0.0381
17641TIP3   OH274413   4.282   6.130  13.483 -0.4317  0.0632  0.1431
17641TIP3    H174414   4.211   6.130  13.419 -0.2266  1.1532 -0.0935
17641TIP3    H274415   4.332   6.209  13.464  2.6132 -2.0572 -1.6230
17642TIP3   OH274416   1.323   5.563  13.388  0.0001 -0.1380  0.3618
17642TIP3    H174417   1.416   5.542  13.396 -0.4587 -2.2181  0.6906
17642TIP3    H274418   1.305   5.620  13.463  1.2517  1.3436 -0.4142
17643TIP3   OH274419   2.955   0.836  15.667 -0.4299 -0.0518 -0.6553
17643TIP3    H174420   2.982   0.784  15.591  0.0119  0.7651 -1.0774
17643TIP3    H274421   2.861   0.847  15.655 -0.2320  0.8184 -1.5846
17644TIP3   OH274422   3.064   2.528   0.143 -0.3065 -0.3197 -0.1125
17644TIP3    H174423   3.100   2.482   0.067 -1.3153 -1.8014  0.2550
17644TIP3    H274424   2.992   2.472   0.173  0.6095 -0.2303  2.4758
17645TIP3   OH274425   2.942   4.400   0.026  0.3550 -0.0061 -0.1580
17645TIP3    H174426   2.935   4.482   0.076 -0.4851 -0.6820  0.8885
17645TIP3    H274427   2.905   4.421  -0.059  1.4962  1.0820 -0.4225
17646TIP3   OH274428   2.238   5.684   2.447  0.1284 -0.3451 -0.2465
17646TIP3    H174429   2.164   5.685   2.507  1.8374 -0.3790  1.9939
17646TIP3    H274430   2.203   5.718   2.365 -1.9774  1.1586  1.1807
17647TIP3   OH274431   6.414   1.892  14.451  0.4614 -0.5331  0.5516
17647TIP3    H174432   6.386   1.953  14.383  0.5514 -0.0096  0.9775
17647TIP3    H274433   6.433   1.810  14.403  0.9080 -0.0576 -0.1067
17648TIP3   OH274434   5.254   0.173  11.621 -0.0506 -0.4977 -0.2219
17648TIP3    H174435   5.244   0.128  11.537 -0.8529 -0.9873  0.1275
17648TIP3    H274436   5.307   0.250  11.600  0.5360 -1.0919 -1.0035
17649TIP3   OH274437   5.747   3.675   3.236  0.3000 -0.2849 -0.4893
17649TIP3    H174438   5.694   3.673   3.316  1.0299  0.2058  0.0245
17649TIP3    H274439   5.783   3.587   3.229  0.2807 -0.3145 -0.2401
17650TIP3   OH274440   2.196   0.581  15.797  0.3321  0.5651 -0.3573
17650TIP3    H174441   2.114   0.600  15.751 -1.4875 -2.9009  1.0765
17650TIP3    H274442   2.251   0.539  15.731 -1.0151 -1.4435 -0.3038
17651TIP3   OH274443   6.355   6.499  12.885 -0.1803  0.1653 -0.8901
17651TIP3    H174444   6.279   6.478  12.831 -1.2470  1.0134  0.2168
17651TIP3    H274445   6.355   6.595  12.889  0.0852  0.1215  0.3199
17652TIP3   OH274446   6.218   0.573  12.609 -0.3934  0.1144  0.1017
17652TIP3    H174447   6.179   0.525  12.682 -0.7958  1.0631  0.5175
17652TIP3    H274448   6.189   0.663  12.621  0.9084  0.6035 -0.2833
17653TIP3   OH274449   4.726   0.728  16.722 -0.2650 -0.5127 -0.4014
17653TIP3    H174450   4.806   0.741  16.773 -1.0021  1.6867  0.3142
17653TIP3    H274451   4.749   0.663  16.656  1.6422 -1.0750  0.7532
17654TIP3   OH274452   3.235   4.096  14.804  0.2638 -0.2825 -0.5737
17654TIP3    H174453   3.304   4.135  14.858  0.4349 -1.4793  0.1086
17654TIP3    H274454   3.204   4.022  14.855 -0.6343 -0.5404 -1.4634
17655TIP3   OH274455   5.601   2.549  10.999 -0.1161 -0.0168 -0.4372
17655TIP3    H174456   5.627   2.636  10.970 -0.7650 -0.1675 -1.5756
17655TIP3    H274457   5.643   2.489  10.936  1.1828 -0.6126  0.9503
17656TIP3   OH274458   3.578   3.069  12.387 -0.1269  0.0196  0.0497
17656TIP3    H174459   3.540   3.153  12.361 -0.8810 -0.8088 -1.6936
17656TIP3    H274460   3.513   3.004  12.361 -0.4898 -1.0410  3.2106
17657TIP3   OH274461   1.950   1.991  15.514 -0.5684 -0.3034 -0.9679
17657TIP3    H174462   1.975   1.918  15.458 -0.0093  0.1100 -1.2661
17657TIP3    H274463   1.991   1.971  15.599  1.0093  0.4854 -1.5185
17658TIP3   OH274464   5.377   5.131  10.933 -0.5119 -0.1066  0.2309
17658TIP3    H174465   5.422   5.196  10.987  1.8345 -0.9571 -0.5907
17658TIP3    H274466   5.423   5.132  10.849 -3.1767  0.1874 -1.3352
17659TIP3   OH274467   3.011   2.510   4.408  0.7317 -0.4208  0.2481
17659TIP3    H174468   3.007   2.454   4.330  0.0416  0.2365 -0.1990
17659TIP3    H274469   3.100   2.499   4.441  0.6960 -1.5695  0.0168
17660TIP3   OH274470   2.492   5.480   4.196 -0.1349 -0.1070 -0.2081
17660TIP3    H174471   2.421   5.415   4.191 -0.7997  0.6780 -1.1695
17660TIP3    H274472   2.519   5.494   4.106  1.0679 -0.1650  0.1180
17661TIP3   OH274473   0.343   2.308   4.308  0.3581 -0.2574  0.5445
17661TIP3    H174474   0.315   2.335   4.221  0.5731  0.8285  0.8019
17661TIP3    H274475   0.358   2.390   4.355  0.4821 -0.8293  1.5269
17662TIP3   OH274476   1.378   2.413   6.018 -0.6880  0.5224 -0.2355
17662TIP3    H174477   1.459   2.454   6.048 -1.2820 -0.2169  2.7053
17662TIP3    H274478   1.339   2.376   6.097 -3.7271  0.4851 -1.6107
17663TIP3   OH274479   1.775   4.549   0.458  0.0067 -0.2528 -0.0594
17663TIP3    H174480   1.683   4.574   0.469  0.5222  1.2113  1.3244
17663TIP3    H274481   1.817   4.627   0.420  0.4305 -1.4186 -2.1084
17664TIP3   OH274482   0.166   5.430   4.141  0.1821 -0.1038 -0.1748
17664TIP3    H174483   0.242   5.401   4.090 -0.2650  0.6611 -1.3181
17664TIP3    H274484   0.124   5.496   4.086 -1.0367 -0.1503  0.6582
17665TIP3   OH274485   3.744   5.351   5.466 -0.4678 -0.5429  0.1820
17665TIP3    H174486   3.822   5.399   5.493  1.0263 -0.0841 -4.0916
17665TIP3    H274487   3.778   5.278   5.413 -2.8540 -0.6676 -1.3633
17666TIP3   OH274488   3.558   3.916   0.634  0.0135  0.0954 -0.0248
17666TIP3    H174489   3.645   3.913   0.672  0.4261 -0.2509 -0.9448
17666TIP3    H274490   3.509   3.848   0.680  0.4452 -0.1941  0.0122
17667TIP3   OH274491   4.509   2.927   0.415 -0.5738 -0.4010 -0.1755
17667TIP3    H174492   4.453   2.863   0.460 -1.0341  0.0487 -0.1042
17667TIP3    H274493   4.597   2.891   0.422 -0.8912 -1.2858 -0.5748
17668TIP3   OH274494   5.886   2.618   5.690 -0.7270  0.1457 -0.5805
17668TIP3    H174495   5.982   2.617   5.697 -0.7564  0.7347  0.0473
17668TIP3    H274496   5.868   2.668   5.611 -0.5450  1.8915  0.4471
17669TIP3   OH274497   0.453   6.314   1.323  0.1732 -0.0513 -0.1399
17669TIP3    H174498   0.389   6.385   1.319 -1.3093 -1.3318 -0.3755
17669TIP3    H274499   0.400   6.234   1.314  2.0067 -1.1088 -2.3949
17670TIP3   OH274500   5.146   0.667   0.236  0.2082 -0.0315 -0.1489
17670TIP3    H174501   5.231   0.623   0.239  1.3816  2.0102 -1.5066
17670TIP3    H274502   5.152   0.736   0.302  0.1813  1.0026 -1.1834
17671TIP3   OH274503   3.600   3.090   4.903  0.1730  0.4154  0.2023
17671TIP3    H174504   3.509   3.110   4.884 -0.2355 -0.2705  1.3566
17671TIP3    H274505   3.607   2.995   4.890  0.7655  0.4886 -0.0475
17672TIP3   OH274506   6.432   0.796   1.369  0.2245  0.1432  0.3649
17672TIP3    H174507   6.521   0.829   1.383 -0.2323  2.3489 -1.4432
17672TIP3    H274508   6.378   0.848   1.429 -0.3013  1.7204 -1.3937
17673TIP3   OH274509   1.384   5.528   0.982 -0.3822  0.4782  0.2569
17673TIP3    H174510   1.474   5.516   0.954 -0.4523 -1.0092  0.6226
17673TIP3    H274511   1.377   5.479   1.064 -1.7333 -0.1367 -0.1901
17674TIP3   OH274512   3.950   4.961  16.237  0.1121  0.1003  0.1674
17674TIP3    H174513   3.877   4.990  16.292 -0.2748 -0.0276 -0.2820
17674TIP3    H274514   4.027   4.973  16.293 -0.2575  0.1458  0.6760
17675TIP3   OH274515   2.316   3.645  12.565  0.0194  0.4196  0.1630
17675TIP3    H174516   2.285   3.651  12.655  0.5370  1.2392  0.2921
17675TIP3    H274517   2.394   3.700  12.562 -0.4065  0.9925 -0.9707
17676TIP3   OH274518   3.212   0.859   3.731 -0.5870 -0.3233  0.4447
17676TIP3    H174519   3.234   0.950   3.755 -0.1381 -0.4166  0.4073
17676TIP3    H274520   3.211   0.860   3.635 -1.2242 -0.2146  0.4479
17677TIP3   OH274521   1.609   5.747   1.384 -0.1426 -0.6213 -0.0238
17677TIP3    H174522   1.662   5.739   1.305 -1.1402 -0.4113 -0.7368
17677TIP3    H274523   1.583   5.839   1.387  0.3674 -0.4901  0.8868
17678TIP3   OH274524   6.524   4.699   0.451  0.0154  0.4447 -0.4722
17678TIP3    H174525   6.504   4.784   0.489 -0.5869  1.0385 -2.0184
17678TIP3    H274526   6.588   4.718   0.383  0.6282 -0.4916 -0.1759
17679TIP3   OH274527   1.694   0.499   6.668  0.6705 -0.6212 -0.1837
17679TIP3    H174528   1.606   0.534   6.652  0.3306  0.1746  2.8137
17679TIP3    H274529   1.751   0.553   6.614 -0.3372  1.5996  0.8375
17680TIP3   OH274530   4.506   0.944   4.986 -0.7030 -0.0372  0.2782
17680TIP3    H174531   4.587   0.897   5.006 -0.3748  0.1009 -0.7017
17680TIP3    H274532   4.501   1.010   5.055  0.5282  0.5763 -0.1821
17681TIP3   OH274533   6.286   6.710  13.873 -0.1268  0.1849  0.0035
17681TIP3    H174534   6.340   6.784  13.900  1.2223 -1.5963  2.6705
17681TIP3    H274535   6.251   6.734  13.787 -0.1597  4.0677  0.9459
17682TIP3   OH274536   1.973   6.664  12.963 -0.3897  0.2679  0.0954
17682TIP3    H174537   1.923   6.583  12.970 -0.3241  0.2614  0.4974
17682TIP3    H274538   2.020   6.657  12.880 -1.4290  0.4831 -0.5309
17683TIP3   OH274539   1.385   1.116   3.099  0.4473 -0.5387  0.3555
17683TIP3    H174540   1.387   1.117   3.195 -0.4828 -0.0083  0.3801
17683TIP3    H274541   1.373   1.024   3.076  2.0999 -0.8748  0.6917
17684TIP3   OH274542   2.828   2.980   4.520  0.2448  0.1762  0.0607
17684TIP3    H174543   2.855   2.890   4.502 -0.5265 -0.4674  1.8562
17684TIP3    H274544   2.893   3.034   4.476  0.1074 -1.2238 -1.9699
17685TIP3   OH274545   0.590   6.438  13.164 -0.0730 -0.1875 -0.5827
17685TIP3    H174546   0.560   6.360  13.210 -2.0719  1.0492  0.3569
17685TIP3    H274547   0.551   6.431  13.076 -2.6360  1.0007  0.3670
17686TIP3   OH274548   2.934   1.869   5.172  0.3936  0.2907 -0.2244
17686TIP3    H174549   2.931   1.778   5.143 -0.7243  0.3520 -0.3417
17686TIP3    H274550   2.869   1.914   5.119  1.5273  1.3636 -0.7759
17687TIP3   OH274551   1.845   4.503  11.554 -0.3253 -0.2391  0.3178
17687TIP3    H174552   1.890   4.429  11.515  2.9409  1.6966  0.0194
17687TIP3    H274553   1.859   4.575  11.492 -3.1589  0.7583  0.6920
17688TIP3   OH274554   4.774   6.824   2.203 -0.2467 -0.3488  0.0866
17688TIP3    H174555   4.760   6.830   2.298 -0.6476 -0.4273  0.0334
17688TIP3    H274556   4.850   6.879   2.187 -1.0902  0.9005  0.2531
17689TIP3   OH274557   2.449   0.380   3.927  0.0885  0.2200  0.3239
17689TIP3    H174558   2.505   0.322   3.875  0.9047  1.1244  0.1460
17689TIP3    H274559   2.494   0.465   3.923 -1.1073  0.8773  0.5147
17690TIP3   OH274560   4.140   3.905  13.032  0.2774  0.1395 -0.4075
17690TIP3    H174561   4.170   3.968  13.098 -0.6263 -1.5501  1.7146
17690TIP3    H274562   4.207   3.909  12.963  1.9106  1.0978  1.1553
17691TIP3   OH274563   3.443   6.110  11.871 -0.0615  0.2649 -0.8357
17691TIP3    H174564   3.395   6.055  11.809 -0.5919 -0.8481  0.5020
17691TIP3    H274565   3.409   6.199  11.856 -0.9775 -0.1629 -1.3955
17692TIP3   OH274566   0.649   6.166  14.587  0.1064 -0.4295 -0.4516
17692TIP3    H174567   0.564   6.144  14.625 -0.2677  0.2166 -0.8813
17692TIP3    H274568   0.627   6.222  14.511  0.9372  0.2334 -0.2185
17693TIP3   OH274569   0.327   3.998  16.056 -0.9241  0.0301  0.2435
17693TIP3    H174570   0.325   4.093  16.065  2.7069  0.1175  1.7931
17693TIP3    H274571   0.293   3.965  16.139  0.0897  0.0670  0.6852
17694TIP3   OH274572   3.488   4.698  14.589 -0.0079  0.3711  0.7354
17694TIP3    H174573   3.469   4.611  14.624 -1.9357 -0.0613 -1.2241
17694TIP3    H274574   3.582   4.694  14.567 -0.0368 -1.1973  0.7405
17695TIP3   OH274575   5.614   4.718   3.051 -0.4696  0.0702 -0.9574
17695TIP3    H174576   5.696   4.687   3.012 -1.4759 -1.5732 -1.9067
17695TIP3    H274577   5.626   4.706   3.145  1.1570  1.9589 -0.8604
17696TIP3   OH274578   1.535   1.573  14.932  0.9578  0.1048 -0.1352
17696TIP3    H174579   1.452   1.615  14.910  1.3568  2.2465  2.0742
17696TIP3    H274580   1.531   1.557  15.026  2.5587 -0.9112 -0.1922
17697TIP3   OH274581   4.445   1.727  12.180  0.3072 -0.6008 -0.3658
17697TIP3    H174582   4.426   1.800  12.121 -0.2630 -0.0848  0.4418
17697TIP3    H274583   4.360   1.699  12.213  0.6309 -0.7303  0.3954
17698TIP3   OH274584   5.959   0.460  12.867  0.7389  0.2218  0.1218
17698TIP3    H174585   5.914   0.544  12.874  0.3958 -0.0348  1.3870
17698TIP3    H274586   5.902   0.406  12.811  0.1135  0.3129  0.6611
17699TIP3   OH274587   1.750   6.446  13.478  0.6252  0.0215  0.1973
17699TIP3    H174588   1.676   6.412  13.528 -0.2244 -2.2803 -2.4192
17699TIP3    H274589   1.813   6.374  13.476  0.6961  0.0886 -1.8464
17700TIP3   OH274590   0.611   1.592   4.748  0.7862  0.2225  0.0925
17700TIP3    H174591   0.531   1.643   4.734  2.0895  2.4706  0.4319
17700TIP3    H274592   0.656   1.596   4.664  0.3480 -1.5386 -0.2814
17701TIP3   OH274593   3.262   6.444  12.351  0.0675 -0.1466 -0.3212
17701TIP3    H174594   3.330   6.496  12.396 -0.4201  2.7454 -2.6422
17701TIP3    H274595   3.198   6.424  12.420  0.1201  2.7147  0.6944
17702TIP3   OH274596   2.331   3.624   1.300  0.3912 -0.2613 -0.5226
17702TIP3    H174597   2.297   3.575   1.375  0.5723  1.4132  0.7071
17702TIP3    H274598   2.255   3.672   1.267  1.2085  2.9802  1.8331
17703TIP3   OH274599   6.850   4.660   4.478 -0.0938  0.3700 -0.4877
17703TIP3    H174600   6.755   4.649   4.485 -0.2702  0.5965 -2.2466
17703TIP3    H274601   6.873   4.714   4.554 -1.4083  0.5725 -0.2143
17704TIP3   OH274602   2.045   0.408  14.478 -0.5799  0.1348 -0.6157
17704TIP3    H174603   2.059   0.502  14.469 -0.4539 -0.0713 -3.5647
17704TIP3    H274604   1.952   0.395  14.461  0.0134 -0.5081 -4.0311
17705TIP3   OH274605   1.672   0.199  12.396  0.5631 -0.4118  0.5021
17705TIP3    H174606   1.636   0.277  12.353  1.7695 -0.0106  0.1811
17705TIP3    H274607   1.596   0.152  12.429 -0.5289 -1.3221 -2.9575
17706TIP3   OH274608   1.954   0.605   1.197 -0.0106  0.2799 -0.3485
17706TIP3    H174609   1.909   0.682   1.231 -1.2326 -0.2702 -0.6208
17706TIP3    H274610   2.002   0.570   1.271 -1.4181 -0.0508  0.4523
17707TIP3   OH274611   6.263   0.162   3.139  0.1841  0.3734 -0.2109
17707TIP3    H174612   6.189   0.106   3.114  0.0196  0.3760  0.2552
17707TIP3    H274613   6.297   0.196   3.056 -0.9385  1.1375 -0.3708
17708TIP3   OH274614   0.002   0.023  15.929 -0.2772 -0.0838  0.2873
17708TIP3    H174615   0.069   0.088  15.951  0.2279 -0.3075 -0.5174
17708TIP3    H274616  -0.054   0.019  16.006  0.6949  0.0423  1.0223
17709TIP3   OH274617   0.890   4.271  15.175  0.4466 -0.2876 -0.0659
17709TIP3    H174618   0.902   4.365  15.186  1.1314 -0.3858  0.0924
17709TIP3    H274619   0.847   4.242  15.256  0.3293 -0.1282 -0.0715
17710TIP3   OH274620   3.200   6.596  16.092  0.3017 -0.2550 -0.3177
17710TIP3    H174621   3.138   6.662  16.061 -0.1104  0.5205  1.9667
17710TIP3    H274622   3.273   6.647  16.128  0.6406 -1.0930  0.2000
17711TIP3   OH274623   1.266   6.244   0.222 -0.4743 -0.5621 -0.0011
17711TIP3    H174624   1.313   6.162   0.236 -1.4751 -1.2459 -0.5255
17711TIP3    H274625   1.332   6.312   0.237  0.2046 -1.4289  1.0736
17712TIP3   OH274626   4.785   5.400   4.341 -0.3063  0.3050 -0.4292
17712TIP3    H174627   4.765   5.418   4.249 -0.9535  2.1707  0.0363
17712TIP3    H274628   4.708   5.430   4.389  1.6262  3.4598  1.0529
17713TIP3   OH274629   2.007   2.334   0.409 -0.2519 -0.1162  0.4710
17713TIP3    H174630   1.954   2.339   0.329  1.6475  1.8094 -0.7817
17713TIP3    H274631   2.058   2.253   0.399 -1.5942 -1.0585  0.8665
17714TIP3   OH274632   5.544   0.312  12.661  0.3750 -0.1477 -0.2191
17714TIP3    H174633   5.472   0.327  12.722 -0.3446  0.8436 -1.2675
17714TIP3    H274634   5.523   0.367  12.585  2.6414  0.8384 -0.2309
17715TIP3   OH274635   4.587   6.338   4.488  0.4681  0.2317  0.7254
17715TIP3    H174636   4.627   6.272   4.544  1.4824  1.5214  1.6031
17715TIP3    H274637   4.494   6.334   4.507  0.3245 -1.7225 -0.1309
17716TIP3   OH274638   3.980   4.225   3.563  0.3119 -0.2887  0.0449
17716TIP3    H174639   3.946   4.242   3.651  1.0630  1.0984  0.0961
17716TIP3    H274640   3.907   4.242   3.505 -0.1099 -0.9331  0.3777
17717TIP3   OH274641   6.206   1.656   1.450 -0.3456  0.1378  0.1227
17717TIP3    H174642   6.251   1.657   1.366 -1.7478 -2.3015 -0.7575
17717TIP3    H274643   6.276   1.651   1.515  0.8033 -2.5355 -1.1491
17718TIP3   OH274644   3.633   4.662  13.827  0.1304  0.0653 -0.6610
17718TIP3    H174645   3.577   4.665  13.750  0.1040 -0.0298 -0.6442
17718TIP3    H274646   3.572   4.655  13.901 -0.1409  3.7930 -0.3091
17719TIP3   OH274647   5.790   6.546   5.351  0.1736 -0.4320  0.0601
17719TIP3    H174648   5.716   6.485   5.360  0.3216 -0.7552 -0.8310
17719TIP3    H274649   5.762   6.625   5.398 -0.0348 -1.1609  1.2187
17720TIP3   OH274650   2.692   3.161   0.344  0.3676  0.0830 -0.0460
17720TIP3    H174651   2.787   3.155   0.353  0.5611  0.7247 -1.5277
17720TIP3    H274652   2.659   3.099   0.409  1.7160  1.3556  1.9941
17721TIP3   OH274653   0.426   2.950  13.905 -0.2938  0.5311  0.4509
17721TIP3    H174654   0.445   2.935  13.812 -0.6273  0.4800  0.3879
17721TIP3    H274655   0.330   2.949  13.910 -0.2727 -0.2747  0.9261
17722TIP3   OH274656   6.046   1.150  14.560 -0.1802 -0.4475  0.7818
17722TIP3    H174657   6.120   1.092  14.547 -0.4661 -1.1131  1.9808
17722TIP3    H274658   6.084   1.238  14.566  0.3476 -0.6105 -0.0541
17723TIP3   OH274659   2.894   6.665   5.957  0.0079  0.1549 -0.2647
17723TIP3    H174660   2.951   6.741   5.944  1.0721 -0.2860  1.4850
17723TIP3    H274661   2.928   6.599   5.897 -0.5930  0.8520 -1.4104
17724TIP3   OH274662   3.432   1.370   0.478  0.0361  0.3570 -0.3954
17724TIP3    H174663   3.344   1.367   0.514  0.0178  1.6152 -0.2579
17724TIP3    H274664   3.476   1.294   0.514 -1.1632 -0.6289 -0.9587
17725TIP3   OH274665   3.995   0.984  14.163  0.2485  0.1900  0.4479
17725TIP3    H174666   3.933   1.012  14.095 -0.2945 -1.4911  0.2144
17725TIP3    H274667   3.979   0.890  14.173  0.5652  0.3214  2.6534
17726TIP3   OH274668   6.378   3.622   2.216  0.2800  0.7988 -0.5776
17726TIP3    H174669   6.335   3.699   2.253  0.5473  0.3329  0.7745
17726TIP3    H274670   6.433   3.656   2.145  0.2762  1.8346 -0.0990
17727TIP3   OH274671   4.784   5.538  11.210 -0.2920 -0.1895 -0.1513
17727TIP3    H174672   4.840   5.598  11.160  0.8621  0.9266  2.3117
17727TIP3    H274673   4.736   5.595  11.271 -3.0916 -1.2829 -1.1491
17728TIP3   OH274674   5.524   0.679   5.394  0.4627 -0.0892  0.2291
17728TIP3    H174675   5.570   0.709   5.316  1.1532 -0.8482  0.3216
17728TIP3    H274676   5.466   0.610   5.363 -0.5699  0.8081  0.1274
17729TIP3   OH274677   5.976   6.283  10.808 -0.1150 -0.1643 -0.2153
17729TIP3    H174678   5.962   6.279  10.902 -0.7163  1.5823 -0.1861
17729TIP3    H274679   5.892   6.256  10.770  0.0149 -0.5210 -0.2549
17730TIP3   OH274680   6.015   3.778   0.832 -0.0674  0.5605 -0.1112
17730TIP3    H174681   6.013   3.735   0.918 -0.1876  0.2038 -0.2917
17730TIP3    H274682   6.107   3.801   0.818  0.0555  0.0233 -0.1825
17731TIP3   OH274683   4.351   1.153  17.063 -0.9960  0.4433 -0.8040
17731TIP3    H174684   4.333   1.234  17.112  0.2886  0.7097 -0.7269
17731TIP3    H274685   4.438   1.167  17.025 -0.5935 -1.0435 -0.4973
17732TIP3   OH274686   3.281   3.468   3.724 -0.4911  0.3397  0.0773
17732TIP3    H174687   3.288   3.454   3.630 -1.8298  1.0639 -0.1511
17732TIP3    H274688   3.192   3.503   3.737 -0.1722  0.6757  1.5494
17733TIP3   OH274689   0.436   4.391  12.082 -0.2571  0.6904  0.8021
17733TIP3    H174690   0.372   4.325  12.111  0.6940 -0.8685 -0.4656
17733TIP3    H274691   0.435   4.386  11.987 -0.5043  2.9207  0.6297
17734TIP3   OH274692   0.649   2.307   3.074  0.0820  0.2718 -0.5726
17734TIP3    H174693   0.730   2.343   3.039 -0.5285  1.0085 -1.2488
17734TIP3    H274694   0.593   2.383   3.087 -0.4483 -0.2171  0.0502
17735TIP3   OH274695   1.518   6.414   5.054 -0.8067 -0.6291 -0.1139
17735TIP3    H174696   1.451   6.433   5.120 -0.9037 -1.5302  0.0645
17735TIP3    H274697   1.468   6.398   4.974 -0.6472  1.3344 -0.6603
17736TIP3   OH274698   2.924   3.721  14.484 -0.1084  0.0243  0.7902
17736TIP3    H174699   2.917   3.647  14.544 -0.1869 -0.6352 -0.0310
17736TIP3    H274700   2.956   3.793  14.539 -0.1000 -0.5926  1.6050
17737TIP3   OH274701   3.488   5.180  10.841 -0.1332  0.3413  0.1474
17737TIP3    H174702   3.506   5.199  10.749  1.4951 -1.0465  0.1390
17737TIP3    H274703   3.500   5.085  10.849 -2.5977  0.0562  1.3160
17738TIP3   OH274704   0.849   4.397  14.134  0.1706  0.0175 -0.2589
17738TIP3    H174705   0.773   4.357  14.091 -0.8685  0.7911  0.7958
17738TIP3    H274706   0.865   4.477  14.084  0.9099 -0.6170 -1.0628
17739TIP3   OH274707   0.536   0.882   1.310  0.2443  0.0505  0.1851
17739TIP3    H174708   0.546   0.806   1.367  1.1220 -0.1691 -0.2439
17739TIP3    H274709   0.611   0.938   1.331  0.6123 -0.0596 -0.7702
17740TIP3   OH274710   2.398   3.934  15.071 -0.4875 -0.8452  0.3263
17740TIP3    H174711   2.326   3.917  15.132 -1.2607  1.3749  0.1239
17740TIP3    H274712   2.355   3.951  14.987  0.4020 -1.3003 -0.2356
17741TIP3   OH274713   6.583   4.774   4.166 -0.4649 -0.0773  0.0612
17741TIP3    H174714   6.624   4.699   4.124 -0.1066 -0.4550  1.0681
17741TIP3    H274715   6.597   4.846   4.104  1.0036 -0.3821  0.0036
17742TIP3   OH274716   3.119   2.276  10.585 -0.1249 -0.3086  0.3167
17742TIP3    H174717   3.151   2.223  10.658 -0.6703  0.3258  1.0328
17742TIP3    H274718   3.197   2.303  10.538  0.1892 -1.3663  0.2041
17743TIP3   OH274719   3.509   1.557   2.872  0.3095  0.1627 -0.3920
17743TIP3    H174720   3.524   1.532   2.781 -1.3755 -0.1698 -0.6192
17743TIP3    H274721   3.467   1.480   2.911 -1.4517  1.2312 -0.0798
17744TIP3   OH274722   2.309   5.136  10.331  0.0876 -0.1330 -0.2400
17744TIP3    H174723   2.220   5.171  10.327  0.4737  0.7378 -1.8447
17744TIP3    H274724   2.349   5.180  10.406 -0.6622 -0.1476  0.1764
17745TIP3   OH274725   1.299   1.315  12.210 -0.0505 -0.4487 -0.2164
17745TIP3    H174726   1.358   1.242  12.226  1.2319  0.5434 -0.3073
17745TIP3    H274727   1.312   1.337  12.117  0.1728  0.3890  0.0043
17746TIP3   OH274728   5.950   2.245  15.293 -0.1163 -0.2656 -0.3818
17746TIP3    H174729   5.871   2.212  15.250  0.2197 -0.9383 -0.4980
17746TIP3    H274730   6.004   2.279  15.223  0.3874 -1.2706 -0.5034
17747TIP3   OH274731   3.270   6.748   5.130  0.0742  0.6502 -0.5866
17747TIP3    H174732   3.293   6.841   5.128 -0.6898  0.9395  1.4007
17747TIP3    H274733   3.305   6.717   5.214 -4.3903  0.5630  1.5360
17748TIP3   OH274734   2.497   1.448  12.137 -0.4636  0.2374  0.0362
17748TIP3    H174735   2.483   1.520  12.076  0.8807  1.3160  0.9189
17748TIP3    H274736   2.535   1.378  12.084  0.2449  0.9875 -0.4726
17749TIP3   OH274737   5.411   2.685   4.418  0.0639 -0.1010 -0.0172
17749TIP3    H174738   5.472   2.703   4.489 -0.6800  1.0046  0.3730
17749TIP3    H274739   5.453   2.722   4.340  0.2363 -0.0378  0.1050
17750TIP3   OH274740   0.567   1.916  11.889 -0.6221 -0.0951  0.2057
17750TIP3    H174741   0.546   1.988  11.949  0.8623  1.5708 -1.1508
17750TIP3    H274742   0.508   1.929  11.815 -1.8351 -1.6107  0.8682
17751TIP3   OH274743   4.561   5.148  14.793 -0.8639 -0.0926  0.0756
17751TIP3    H174744   4.574   5.131  14.886 -0.3048 -0.5409 -0.0780
17751TIP3    H274745   4.650   5.154  14.757 -1.0582  1.1430 -0.2421
17752TIP3   OH274746   6.850   4.275  13.715  0.1857 -0.0263 -0.6860
17752TIP3    H174747   6.932   4.234  13.689  0.1234 -0.5669 -0.0482
17752TIP3    H274748   6.835   4.246  13.805 -0.4294  0.5013 -0.6045
17753TIP3   OH274749   6.305   4.902  12.468  0.3966  0.6048 -0.1951
17753TIP3    H174750   6.310   4.976  12.528  2.9931  0.8473 -0.5875
17753TIP3    H274751   6.354   4.931  12.390 -0.6585 -0.6401 -1.3770
17754TIP3   OH274752   0.930   4.461  13.220 -0.1633 -0.0222  0.1191
17754TIP3    H174753   0.843   4.476  13.257  0.0709 -0.2386  0.7680
17754TIP3    H274754   0.938   4.527  13.150 -1.2596 -0.7008 -0.6704
17755TIP3   OH274755   0.898   1.691  11.206 -0.0582 -0.0657  0.0885
17755TIP3    H174756   0.872   1.638  11.281  2.6611 -0.0159  1.1548
17755TIP3    H274757   0.880   1.781  11.233 -2.3017 -0.1746 -0.7568
17756TIP3   OH274758   3.879   0.352  11.543 -0.1181  0.0716  0.1023
17756TIP3    H174759   3.832   0.433  11.560 -1.4608  0.0917 -3.0031
17756TIP3    H274760   3.815   0.283  11.563 -1.2745  0.0692 -3.0663
17757TIP3   OH274761   5.666   4.987  15.595  0.5576  0.5575  0.0940
17757TIP3    H174762   5.685   5.022  15.508 -0.4502  2.3578  0.5328
17757TIP3    H274763   5.572   4.970  15.594  0.2021  2.2105  1.3187
17758TIP3   OH274764   5.125   5.744  15.009  0.2193  0.0028  0.0045
17758TIP3    H174765   5.131   5.661  14.963 -0.9548 -0.0018 -0.1784
17758TIP3    H274766   5.105   5.720  15.099 -0.4949  0.0835 -0.1254
17759TIP3   OH274767   3.442   1.723  10.426 -0.4605 -0.1593  0.1531
17759TIP3    H174768   3.503   1.784  10.385 -0.4427  0.2850  0.8267
17759TIP3    H274769   3.362   1.729  10.373  0.3649 -1.4668 -1.3335
17760TIP3   OH274770   3.560   6.202   3.208 -0.1866  0.4386  0.0975
17760TIP3    H174771   3.482   6.255   3.189 -0.1089  0.8938  0.9782
17760TIP3    H274772   3.605   6.194   3.124 -0.7712  0.8460 -0.2650
17761TIP3   OH274773   0.316   1.084   6.131 -0.1404 -0.1301  0.0229
17761TIP3    H174774   0.390   1.079   6.192  0.0624 -0.6807 -0.2608
17761TIP3    H274775   0.262   1.156   6.164  0.7979  0.6363 -0.0629
17762TIP3   OH274776   2.398   2.990  11.823  0.0791  0.0182 -0.1816
17762TIP3    H174777   2.320   3.045  11.820 -0.0353  0.3122  3.6313
17762TIP3    H274778   2.368   2.903  11.799 -0.9092  0.5493 -0.9218
17763TIP3   OH274779   3.468   2.775   1.400 -0.3357  0.3040 -0.6730
17763TIP3    H174780   3.433   2.864   1.409  0.5932  0.6188  0.0112
17763TIP3    H274781   3.563   2.787   1.401 -0.1740 -0.8171  0.8462
17764TIP3   OH274782   0.593   5.712   6.132  0.0640  0.7440 -0.2339
17764TIP3    H174783   0.553   5.798   6.142 -1.0600  0.2040  0.0570
17764TIP3    H274784   0.642   5.699   6.213  2.3490  2.1409 -1.2995
17765TIP3   OH274785   3.129   3.515   1.693  0.1365  0.1473 -0.0058
17765TIP3    H174786   3.177   3.451   1.745 -1.3547 -1.0163  0.0110
17765TIP3    H274787   3.196   3.574   1.659  1.3474 -0.2498  1.5913
17766TIP3   OH274788   3.338   6.812  16.247  0.2724 -0.1450 -0.3917
17766TIP3    H174789   3.295   6.807  16.333  0.3308  0.6706 -0.3065
17766TIP3    H274790   3.411   6.872  16.260  1.2180 -1.1983 -0.6393
17767TIP3   OH274791   0.232   0.663   0.445  0.6984  0.2644 -0.6321
17767TIP3    H174792   0.324   0.687   0.459  0.8636  1.5471 -3.3615
17767TIP3    H274793   0.209   0.703   0.362 -2.2291 -0.4559 -0.2770
17768TIP3   OH274794   3.982   3.942   5.075 -0.2157 -0.4913  0.3012
17768TIP3    H174795   3.906   3.906   5.028  0.6837 -0.5170 -1.2015
17768TIP3    H274796   3.974   3.907   5.164 -1.1053 -1.7670 -0.2491
17769TIP3   OH274797   4.436   1.611   6.464 -0.5321 -0.1664  0.8914
17769TIP3    H174798   4.381   1.559   6.405 -0.4300  0.2821  0.3980
17769TIP3    H274799   4.382   1.623   6.542 -0.8537 -0.3507  0.7019
17770TIP3   OH274800   1.062   1.067  15.769 -0.0087 -0.3094  0.6037
17770TIP3    H174801   1.070   1.051  15.863 -2.4625 -2.9788  0.4929
17770TIP3    H274802   1.007   0.995  15.737  0.1765  0.8840 -2.7788
17771TIP3   OH274803   2.983   5.737   0.991  0.0714 -0.4987 -0.1108
17771TIP3    H174804   3.040   5.713   1.065  1.7878 -0.0419 -1.2244
17771TIP3    H274805   3.042   5.742   0.916 -1.4667  0.0091 -1.3455
17772TIP3   OH274806   1.819   6.612  16.385 -0.3033 -0.2250  0.0891
17772TIP3    H174807   1.814   6.543  16.451 -0.6642 -0.4189 -0.1390
17772TIP3    H274808   1.773   6.686  16.424 -1.2934 -0.6235 -0.2880
17773TIP3   OH274809   5.478   1.207  13.006  0.2200 -0.3303  0.1337
17773TIP3    H174810   5.541   1.158  12.954 -0.8934 -2.7288  0.8714
17773TIP3    H274811   5.413   1.238  12.943  0.5062 -0.5463 -0.2677
17774TIP3   OH274812   1.241   2.865  10.869 -0.2071 -0.3586  0.1665
17774TIP3    H174813   1.256   2.891  10.960 -3.6321  0.7614  0.5814
17774TIP3    H274814   1.296   2.924  10.818 -0.6892  1.3132  1.4728
17775TIP3   OH274815   3.998   3.249   0.041  0.0769 -0.3305  0.3355
17775TIP3    H174816   4.078   3.281  -0.000  1.0671 -3.0420 -0.0502
17775TIP3    H274817   4.018   3.249   0.135  0.4372 -0.6717  0.2639
17776TIP3   OH274818   0.510   2.080   4.232  0.7268 -0.4562 -0.1669
17776TIP3    H174819   0.599   2.115   4.232  0.4739  0.1917 -0.1269
17776TIP3    H274820   0.457   2.150   4.269 -0.2787  0.3964 -2.9897
17777TIP3   OH274821   3.837   2.969  13.731 -0.3704  0.2166 -0.4260
17777TIP3    H174822   3.849   3.045  13.676 -0.1512  0.2731 -0.3026
17777TIP3    H274823   3.903   2.978  13.800 -0.7958  0.2733 -0.0169
17778TIP3   OH274824   1.992   1.402  16.861 -0.4673 -0.3566  0.0033
17778TIP3    H174825   2.023   1.380  16.948 -1.0452 -0.2227  0.2516
17778TIP3    H274826   2.063   1.453  16.822  0.1835 -1.2222  0.0379
17779TIP3   OH274827   0.536   2.547  10.926 -0.0537  0.4385  0.7764
17779TIP3    H174828   0.580   2.464  10.945 -0.2269 -0.4634 -2.2325
17779TIP3    H274829   0.603   2.599  10.881 -0.3792  1.3769  1.3633
17780TIP3   OH274830   0.864   4.242   2.149 -0.7315  0.5821 -0.0747
17780TIP3    H174831   0.837   4.319   2.199 -0.6923  0.8543 -0.4690
17780TIP3    H274832   0.815   4.169   2.188 -1.4883  0.9588 -0.3123
17781TIP3   OH274833   1.958   5.171  14.746 -0.3037 -0.2160  0.3372
17781TIP3    H174834   1.868   5.199  14.760 -0.3057 -0.5231  0.9578
17781TIP3    H274835   1.989   5.143  14.832 -0.3505 -2.2926 -0.2761
17782TIP3   OH274836   4.535   0.369   0.356  0.2729 -0.2416  0.5277
17782TIP3    H174837   4.575   0.377   0.269  0.8503 -1.1526  0.6963
17782TIP3    H274838   4.532   0.275   0.372 -1.5923 -0.1841  0.7009
17783TIP3   OH274839   6.000   5.943   4.801 -0.2216 -0.1086 -0.4165
17783TIP3    H174840   6.043   5.861   4.824 -1.7497 -0.5243  1.2461
17783TIP3    H274841   5.956   5.925   4.718  1.1310 -0.2789 -1.1252
17784TIP3   OH274842   6.470   0.798   0.762 -0.5196 -0.0931 -0.6257
17784TIP3    H174843   6.441   0.854   0.690  0.6648 -0.2669 -1.2764
17784TIP3    H274844   6.531   0.736   0.722  2.1587  1.3550  0.8386
17785TIP3   OH274845   6.580   3.317  15.282  0.3351 -0.1141  0.0858
17785TIP3    H174846   6.614   3.405  15.297  0.0784 -0.2063  1.2675
17785TIP3    H274847   6.546   3.289  15.367 -3.4619  0.2802 -1.1163
17786TIP3   OH274848   6.269   3.466   3.826  0.2040  0.1226 -0.1485
17786TIP3    H174849   6.299   3.524   3.756  0.3828  1.4071  0.9483
17786TIP3    H274850   6.232   3.525   3.892  1.6523 -0.8751  1.6569
17787TIP3   OH274851   4.204   3.169  11.139 -0.0654  0.3142 -0.5572
17787TIP3    H174852   4.249   3.095  11.181  1.0637  1.8304  1.0416
17787TIP3    H274853   4.115   3.137  11.123 -0.1440 -0.8532  1.7342
17788TIP3   OH274854   3.955   6.163   1.972 -0.2433 -0.5272  0.2941
17788TIP3    H174855   3.868   6.136   1.942  0.7170 -1.5541 -1.7732
17788TIP3    H274856   3.960   6.256   1.948  0.5764 -1.3392 -3.3561
17789TIP3   OH274857   6.792   6.200  15.704 -0.1095 -0.1096  0.0361
17789TIP3    H174858   6.807   6.189  15.798  0.0608 -2.5029 -0.1979
17789TIP3    H274859   6.879   6.190  15.665 -0.6053 -2.8554 -0.5689
17790TIP3   OH274860   4.560   6.027  15.154 -0.1316 -0.0427  0.3751
17790TIP3    H174861   4.501   5.952  15.150 -0.8900  0.5511  0.1330
17790TIP3    H274862   4.599   6.033  15.067  1.0605 -1.0218  0.8106
17791TIP3   OH274863   5.436   6.746   0.180 -0.1752  0.1922 -0.5744
17791TIP3    H174864   5.464   6.668   0.132 -1.6249 -1.3684  0.9649
17791TIP3    H274865   5.513   6.803   0.180  1.3873 -1.7951 -0.6107
17792TIP3   OH274866   5.460   4.212  14.008 -0.1090  0.0598  0.2133
17792TIP3    H174867   5.468   4.278  14.077 -0.3223 -1.5654  1.8745
17792TIP3    H274868   5.398   4.148  14.043  0.0762 -1.0257 -1.3342
17793TIP3   OH274869   4.531   4.742  16.538 -0.0638  0.1434  0.0859
17793TIP3    H174870   4.617   4.706  16.521 -1.3172 -1.6258 -3.5800
17793TIP3    H274871   4.486   4.676  16.590 -0.5089 -1.0896 -1.7582
17794TIP3   OH274872   4.751   4.051  11.485  0.0128 -0.3277  0.2803
17794TIP3    H174873   4.667   4.075  11.446 -1.4894 -1.8731  2.3292
17794TIP3    H274874   4.748   3.955  11.491  1.1476 -0.3048  2.0118
17795TIP3   OH274875   1.151   3.079   2.037 -0.0674 -0.4542 -0.3525
17795TIP3    H174876   1.156   3.168   2.071 -0.7097 -0.9636  1.1722
17795TIP3    H274877   1.232   3.067   1.988  1.1885  0.1591  1.4696
17796TIP3   OH274878   6.783   0.091  12.368  0.4937 -0.3962 -0.4680
17796TIP3    H174879   6.706   0.037  12.350 -0.2472  0.4161  0.1831
17796TIP3    H274880   6.849   0.029  12.401 -0.6665 -0.8034  1.2270
17797TIP3   OH274881   4.497   0.937   3.191  0.3853 -0.3606  0.5750
17797TIP3    H174882   4.437   0.870   3.225  0.8613 -1.0799  0.0112
17797TIP3    H274883   4.558   0.953   3.262  1.4365 -1.9309  0.0686
17798TIP3   OH274884   2.926   4.929   4.705 -0.3897 -0.1247 -0.5514
17798TIP3    H174885   2.840   4.941   4.664 -1.0051  0.4115  0.7967
17798TIP3    H274886   2.944   4.836   4.696 -1.5702 -0.4293 -0.0700
17799TIP3   OH274887   1.450   5.688   0.400 -0.6638 -0.3777  0.3410
17799TIP3    H174888   1.538   5.699   0.436  0.0696 -0.5265 -1.3074
17799TIP3    H274889   1.392   5.692   0.476  0.5645  1.9409  1.2660
17800TIP3   OH274890   1.543   0.406  12.278 -0.1402  0.5787 -0.0592
17800TIP3    H174891   1.458   0.446  12.296  0.7923  2.7860 -0.2893
17800TIP3    H274892   1.573   0.449  12.198  0.5435 -1.2864 -0.8571
17801TIP3   OH274893   3.543   5.575   5.964 -0.2676 -0.0823  0.1361
17801TIP3    H174894   3.599   5.499   5.945 -2.0429 -1.6027  0.6679
17801TIP3    H274895   3.515   5.605   5.877 -1.3003 -1.4580 -0.0485
17802TIP3   OH274896   4.079   0.461  15.504  0.3756 -0.0464 -0.8146
17802TIP3    H174897   4.056   0.438  15.594 -0.5371 -1.3497 -1.3618
17802TIP3    H274898   4.001   0.506  15.470  0.4778 -0.1110 -1.1410
17803TIP3   OH274899   1.990   5.506  15.798  0.6999 -0.1142 -0.5935
17803TIP3    H174900   1.984   5.590  15.844 -0.4594 -0.9288  0.8377
17803TIP3    H274901   2.040   5.525  15.719  0.6335  1.8777 -0.2009
17804TIP3   OH274902   2.244   2.038  13.881  0.6334 -0.1134  0.3931
17804TIP3    H174903   2.198   2.083  13.810  1.9534  0.5839 -0.0438
17804TIP3    H274904   2.331   2.019  13.846  1.6295  1.0661  2.0948
17805TIP3   OH274905   1.342   4.825  13.549 -0.1143  0.3406 -0.0339
17805TIP3    H174906   1.392   4.873  13.483 -1.3594  2.7218  0.6331
17805TIP3    H274907   1.288   4.764  13.499  1.2213 -0.1563 -0.9412
17806TIP3   OH274908   3.215   1.017  14.010  0.2361  0.0861  0.3822
17806TIP3    H174909   3.155   0.957  14.054 -1.6119  0.7920 -1.0297
17806TIP3    H274910   3.294   1.015  14.063 -0.6304 -1.7350  1.7163
17807TIP3   OH274911   5.392   4.798   0.619 -0.1690 -0.5490  0.0937
17807TIP3    H174912   5.449   4.868   0.588 -0.1724 -1.0149 -1.0315
17807TIP3    H274913   5.304   4.829   0.600 -0.1598 -2.3760 -4.2491
17808TIP3   OH274914   4.110   0.603   1.611 -0.0306  0.2933  0.0169
17808TIP3    H174915   4.190   0.616   1.560 -0.2301  0.7369 -0.1837
17808TIP3    H274916   4.039   0.615   1.549 -0.2580 -1.0512 -0.0286
17809TIP3   OH274917   5.645   4.916   0.341  0.1011 -0.2079  0.3927
17809TIP3    H174918   5.613   4.946   0.426 -1.6660  0.3408 -0.4120
17809TIP3    H274919   5.589   4.842   0.319  0.9883 -0.7810 -0.0145
17810TIP3   OH274920   4.325   2.097   4.449 -0.3362  0.5452 -0.6786
17810TIP3    H174921   4.257   2.103   4.382 -0.6159  1.2793 -0.3484
17810TIP3    H274922   4.322   2.182   4.493  0.9576  0.6798 -0.8149
17811TIP3   OH274923   0.939   0.239  14.854  0.8132 -0.3143  0.5970
17811TIP3    H174924   0.871   0.307  14.852 -1.4463 -2.3682  1.6200
17811TIP3    H274925   1.006   0.274  14.913  0.3715  1.5506  0.0527
17812TIP3   OH274926   1.733   5.530   4.761 -0.3971 -0.0437  0.1892
17812TIP3    H174927   1.737   5.500   4.852  0.9748 -0.0446  0.1535
17812TIP3    H274928   1.705   5.621   4.767  0.1135  0.0875  0.6546
17813TIP3   OH274929   4.740   5.678  12.925 -0.1966 -0.5130  0.0595
17813TIP3    H174930   4.834   5.681  12.907 -0.2695 -2.4224 -0.7968
17813TIP3    H274931   4.700   5.714  12.845 -0.2175  0.7299  0.6016
17814TIP3   OH274932   2.400   0.798  13.061  0.0653  0.2683  0.4054
17814TIP3    H174933   2.306   0.786  13.071 -0.0092  0.6498  0.1709
17814TIP3    H274934   2.439   0.747  13.132 -0.1870 -2.3735 -1.2176
17815TIP3   OH274935   3.804   4.471   2.288 -0.5867  0.7593 -0.1950
17815TIP3    H174936   3.888   4.488   2.330 -0.2766 -2.4736  0.7195
17815TIP3    H274937   3.739   4.507   2.349  0.0126 -0.6548  1.3510
17816TIP3   OH274938   0.693   1.520  16.944 -0.1723  0.2443 -0.2685
17816TIP3    H174939   0.690   1.614  16.963  0.7594  0.2022  0.1754
17816TIP3    H274940   0.721   1.481  17.027 -1.2401 -0.5006 -0.2473
17817TIP3   OH274941   5.022   0.890  16.344  0.2062 -0.3263 -0.3469
17817TIP3    H174942   4.973   0.852  16.271  0.1465  0.8951 -0.9587
17817TIP3    H274943   5.049   0.814  16.396 -0.4277 -1.1644 -1.1981
17818TIP3   OH274944   1.706   1.412   4.634  0.1822 -0.4242  0.2207
17818TIP3    H174945   1.719   1.401   4.728 -0.3851 -0.7695  0.2614
17818TIP3    H274946   1.773   1.357   4.594 -2.0711 -3.5166  0.4238
17819TIP3   OH274947   4.366   6.705  13.209 -0.2682 -0.7901  0.3554
17819TIP3    H174948   4.271   6.712  13.199 -0.0605  3.6067 -0.7394
17819TIP3    H274949   4.398   6.681  13.122 -0.2996 -1.2171  0.4587
17820TIP3   OH274950   1.713   6.280   4.912  0.5434 -0.0871 -0.0406
17820TIP3    H174951   1.727   6.218   4.983  1.6864  0.5471  0.3075
17820TIP3    H274952   1.665   6.352   4.952  0.2837 -0.1910 -0.1609
17821TIP3   OH274953   3.961   5.147   5.049 -0.2529 -0.3428  0.3454
17821TIP3    H174954   4.051   5.179   5.037 -0.1572  0.0771  1.8920
17821TIP3    H274955   3.949   5.081   4.981  0.2216  1.5859 -1.7426
17822TIP3   OH274956   3.058   5.439   4.983 -0.5886 -0.1980 -0.2822
17822TIP3    H174957   2.982   5.483   5.022 -1.4881 -1.7561 -0.1835
17822TIP3    H274958   3.021   5.389   4.910  0.7107  0.7825 -1.6862
17823TIP3   OH274959   5.375   3.707  13.861 -0.6610 -0.1501 -0.1227
17823TIP3    H174960   5.291   3.687  13.821 -0.5370 -0.7479 -0.0892
17823TIP3    H274961   5.385   3.642  13.931 -0.8661  0.8491  0.8786
17824TIP3   OH274962   4.024   5.262   0.715  0.5669  0.3680 -0.4085
17824TIP3    H174963   3.948   5.249   0.771  1.1361 -2.2789 -0.1403
17824TIP3    H274964   3.988   5.292   0.632 -0.6552  0.1536  0.0267
17825TIP3   OH274965   3.593   3.017  13.855  0.0995  0.4750 -0.5039
17825TIP3    H174966   3.579   3.110  13.837  0.9627  0.6075 -0.5365
17825TIP3    H274967   3.677   2.997  13.813  0.7155  0.0688  0.8782
17826TIP3   OH274968   0.494   5.611  11.564 -0.3276 -0.1263  0.6447
17826TIP3    H174969   0.457   5.677  11.505 -0.9365 -0.9511  0.0865
17826TIP3    H274970   0.482   5.648  11.651 -2.0800 -0.1504  0.4540
17827TIP3   OH274971   0.555   5.464  13.529 -0.4636 -0.2988  0.0453
17827TIP3    H174972   0.565   5.468  13.624 -1.6190  1.0303  0.1327
17827TIP3    H274973   0.638   5.497  13.494 -0.4806  0.3333  0.6017
17828TIP3   OH274974   5.363   2.127   5.075  0.3223  0.4725 -0.0702
17828TIP3    H174975   5.323   2.076   5.146 -0.8433  0.5131 -0.6689
17828TIP3    H274976   5.388   2.209   5.115 -1.3736  0.9517  0.0833
17829TIP3   OH274977   4.123   6.697  14.915 -0.2653  0.1708 -0.3206
17829TIP3    H174978   4.068   6.674  14.990  1.3770 -1.8338  0.3607
17829TIP3    H274979   4.171   6.775  14.944 -3.9956  3.2533 -1.6727
17830TIP3   OH274980   6.158   4.904   2.581 -0.5632  0.3480 -0.1101
17830TIP3    H174981   6.079   4.856   2.555 -0.9976  0.4417  0.9715
17830TIP3    H274982   6.200   4.848   2.646  0.9690 -0.2828 -1.5632
17831TIP3   OH274983   5.018   5.085   0.209  1.1508 -0.1311 -0.5633
17831TIP3    H174984   4.985   5.000   0.237  1.6628 -0.0514  0.3403
17831TIP3    H274985   4.941   5.132   0.177  0.6118 -0.4103  0.2951
17832TIP3   OH274986   5.999   1.816   3.587 -0.6488 -0.6354  0.0912
17832TIP3    H174987   6.090   1.845   3.595 -1.0186  0.6323 -0.0439
17832TIP3    H274988   5.959   1.839   3.670 -0.8978 -0.9842  0.0677
17833TIP3   OH274989   0.290   1.807   4.946  0.2073 -0.5604 -0.1102
17833TIP3    H174990   0.212   1.820   5.000 -0.8451 -2.3479 -1.1459
17833TIP3    H274991   0.350   1.876   4.976 -1.3470  0.2209  1.4219
17834TIP3   OH274992   1.056   6.505   1.670 -0.0379 -0.3246 -0.3654
17834TIP3    H174993   1.120   6.564   1.631 -1.5109  2.3272  0.9481
17834TIP3    H274994   1.002   6.476   1.597 -0.2830  1.3362 -0.8812
17835TIP3   OH274995   2.787   1.119   5.279 -0.1035 -0.2426 -0.3307
17835TIP3    H174996   2.837   1.190   5.319  0.5115 -1.3507  0.9319
17835TIP3    H274997   2.845   1.083   5.213  0.8493 -1.5582  1.1652
17836TIP3   OH274998   5.908   0.941   1.066 -0.2499  0.4162  0.2841
17836TIP3    H174999   5.832   0.887   1.086 -0.2891 -0.3593 -1.7756
17836TIP3    H275000   5.918   0.935   0.971  3.5631 -1.1527  0.5873
17837TIP3   OH275001   2.048   3.230   3.886 -0.4106  0.0746  0.0174
17837TIP3    H175002   2.095   3.306   3.853 -0.4376  0.1356  0.1199
17837TIP3    H275003   2.011   3.188   3.808 -0.8359  0.4572  0.0124
17838TIP3   OH275004   5.577   1.627   5.691  0.1690  0.1713 -0.3910
17838TIP3    H175005   5.582   1.647   5.785  1.3452  1.3981 -0.6842
17838TIP3    H275006   5.546   1.536   5.688 -0.5665  0.3279  1.1565
17839TIP3   OH275007   6.472   0.087  12.122  0.3936 -0.4773 -0.1586
17839TIP3    H175008   6.520   0.165  12.095 -0.5111  1.6875  3.6684
17839TIP3    H275009   6.380   0.106  12.100  0.4756 -1.9345 -1.9951
17840TIP3   OH275010   1.590   5.947  13.738 -0.4448 -0.0756 -0.3971
17840TIP3    H175011   1.513   5.977  13.786 -1.0254 -0.3570 -1.1272
17840TIP3    H275012   1.633   5.885  13.797 -0.4001  0.5953  0.2836
17841TIP3   OH275013   1.156   6.573   3.747  0.0700  0.3152  0.0112
17841TIP3    H175014   1.178   6.665   3.760  1.6135  0.2273 -1.5260
17841TIP3    H275015   1.065   6.566   3.775  0.4545  1.8775  1.8944
17842TIP3   OH275016   4.376   4.952   4.987 -0.2486 -0.3566 -0.3081
17842TIP3    H175017   4.376   4.895   4.910  1.0910  1.8246 -2.0967
17842TIP3    H275018   4.337   4.900   5.056  0.2517 -3.1534 -1.9550
17843TIP3   OH275019   4.744   2.490  12.894  0.0361 -0.2423 -0.2844
17843TIP3    H175020   4.720   2.568  12.844  1.5422 -0.2136 -1.0081
17843TIP3    H275021   4.711   2.507  12.983  0.2028  1.1396 -0.4696
17844TIP3   OH275022   1.915   5.248  15.311  0.0298  0.1742 -0.5811
17844TIP3    H175023   1.854   5.315  15.339 -0.0544  0.1363 -0.6723
17844TIP3    H275024   1.877   5.166  15.344  0.3334  0.2123 -0.1302
17845TIP3   OH275025   2.374   5.907   4.203  0.1437  0.0682 -0.1158
17845TIP3    H175026   2.434   5.859   4.147  0.8035  1.8096 -0.9676
17845TIP3    H275027   2.430   5.955   4.264 -0.5536 -1.8059  2.1403
17846TIP3   OH275028   6.653   5.943  14.378 -0.0363 -0.6060 -0.1725
17846TIP3    H175029   6.641   5.848  14.384 -0.6322 -0.5398 -0.3112
17846TIP3    H275030   6.566   5.978  14.360 -0.0168  0.0735  0.9692
17847TIP3   OH275031   0.987   4.858  13.975  0.0048 -0.0771 -0.2494
17847TIP3    H175032   0.927   4.900  13.913 -1.4861  0.0034  1.1844
17847TIP3    H275033   1.048   4.927  14.000 -0.2188  0.2523 -0.5958
17848TIP3   OH275034   1.929   3.063   0.139  0.1093  0.2053  0.4799
17848TIP3    H175035   1.875   2.996   0.181  2.4460 -1.7755  0.6181
17848TIP3    H275036   1.923   3.139   0.196 -1.9608 -0.1645  0.8075
17849TIP3   OH275037   5.216   0.840  12.130  0.5777 -0.3415  0.4548
17849TIP3    H175038   5.245   0.848  12.221  3.4378  2.4849 -0.4916
17849TIP3    H275039   5.121   0.854  12.133  0.7493  0.9049  2.9298
17850TIP3   OH275040   0.240   4.523  15.921 -0.1017  0.2822 -0.1225
17850TIP3    H175041   0.311   4.586  15.937  0.4517 -0.3717  0.0276
17850TIP3    H275042   0.166   4.558  15.971  0.8456 -0.3371  1.7998
17851TIP3   OH275043   4.436   0.968   4.716 -0.2995  0.5890  0.6479
17851TIP3    H175044   4.349   1.002   4.695 -1.0853 -1.2658  0.6995
17851TIP3    H275045   4.442   0.975   4.811  0.5511  2.7443  0.5051
17852TIP3   OH275046   3.474   5.150  13.235  0.2214 -0.0182  0.0451
17852TIP3    H175047   3.523   5.204  13.297  0.4272 -0.5416  0.3436
17852TIP3    H275048   3.541   5.102  13.186  0.0947  0.9809 -1.1411
17853TIP3   OH275049   4.273   2.809  12.074 -0.4077 -0.1925  0.1615
17853TIP3    H175050   4.292   2.887  12.127  0.6517 -0.2146 -0.1638
17853TIP3    H275051   4.350   2.799  12.018 -2.1107  0.7691 -2.5467
17854TIP3   OH275052   6.489   4.789  15.127 -0.0359 -0.0823  0.1524
17854TIP3    H175053   6.556   4.851  15.155  1.5387 -1.2830 -0.7641
17854TIP3    H275054   6.527   4.748  15.049 -0.6729 -2.7404  1.1691
17855TIP3   OH275055   1.504   0.562   2.223  0.3999  0.1437 -0.4893
17855TIP3    H175056   1.558   0.556   2.144 -1.7625 -0.8579 -1.9710
17855TIP3    H275057   1.419   0.528   2.197 -0.3805 -0.3064  2.3307
17856TIP3   OH275058   5.798   5.738  15.132  0.0100 -0.2455 -0.2029
17856TIP3    H175059   5.858   5.692  15.073 -0.1142  0.1878 -0.6777
17856TIP3    H275060   5.719   5.751  15.080 -0.5515 -0.9234  0.4610
17857TIP3   OH275061   1.027   4.743  11.120  0.4254  0.2348  0.1372
17857TIP3    H175062   0.981   4.770  11.200  0.3585  0.8135 -0.0933
17857TIP3    H275063   1.056   4.825  11.080 -0.5550  0.0389 -1.0436
17858TIP3   OH275064   0.504   4.311   0.303  0.4977  0.4173 -0.3566
17858TIP3    H175065   0.474   4.222   0.323 -1.3101  1.2024  0.6340
17858TIP3    H275066   0.502   4.316   0.207  3.9330 -1.6254 -0.7138
17859TIP3   OH275067   0.319   5.451  15.779  0.1728  0.4984  0.0097
17859TIP3    H175068   0.374   5.458  15.858 -1.1826  1.9651  0.8824
17859TIP3    H275069   0.261   5.527  15.783 -0.6122  0.0630 -1.9065
17860TIP3   OH275070   0.684   5.545  16.095  0.2173 -0.5210  0.6017
17860TIP3    H175071   0.692   5.641  16.097 -0.7565 -0.4405  1.0579
17860TIP3    H275072   0.719   5.520  16.009 -0.3138  0.3259  0.1205
17861TIP3   OH275073   0.615   0.659  16.217  0.3430  0.0543  0.1462
17861TIP3    H175074   0.544   0.596  16.228  0.0305 -0.5466 -3.8555
17861TIP3    H275075   0.579   0.742  16.250 -1.5612 -0.6109 -0.1402
17862TIP3   OH275076   4.662   5.618   6.270 -0.6989  0.4698 -0.5414
17862TIP3    H175077   4.726   5.572   6.216  1.5367  0.7128  1.6992
17862TIP3    H275078   4.705   5.700   6.294 -0.8754 -0.2327  2.7133
17863TIP3   OH275079   4.088   2.509  14.484  0.5284  0.2121 -0.3950
17863TIP3    H175080   4.147   2.553  14.546 -0.8092 -0.5264  1.5094
17863TIP3    H275081   4.024   2.576  14.461 -0.1143 -0.0146  0.6300
17864TIP3   OH275082   2.214   3.414   5.856  0.3340  0.5061  0.0149
17864TIP3    H175083   2.180   3.497   5.889 -2.2947 -0.6486  0.4644
17864TIP3    H275084   2.286   3.392   5.916 -0.3445  1.4334  1.2164
17865TIP3   OH275085   6.170   5.566   2.611 -0.3347 -0.0235  1.0414
17865TIP3    H175086   6.112   5.643   2.615 -1.4530 -0.7660 -0.1134
17865TIP3    H275087   6.234   5.581   2.681 -0.1917  2.2006  0.5015
17866TIP3   OH275088   4.987   5.833  12.807 -0.2647  0.0521 -0.0312
17866TIP3    H175089   4.929   5.874  12.742  1.5380  0.1669 -1.6360
17866TIP3    H275090   5.049   5.782  12.756  1.7873  0.8559  1.5269
17867TIP3   OH275091   0.495   5.659   5.898  0.6876  0.4088 -0.0122
17867TIP3    H175092   0.518   5.695   5.984  0.4818  0.3510  0.0693
17867TIP3    H275093   0.554   5.584   5.886 -0.9730 -1.2039  1.2439
17868TIP3   OH275094   5.753   2.616  12.656  1.1208 -0.4181  0.2265
17868TIP3    H175095   5.848   2.626  12.642  0.4515  3.8176 -3.4781
17868TIP3    H275096   5.718   2.591  12.571 -1.3337  2.2819  0.2757
17869TIP3   OH275097   5.764   5.346   0.344  0.4372  0.1025  0.3699
17869TIP3    H175098   5.774   5.405   0.270  1.2733  0.7069  0.9433
17869TIP3    H275099   5.692   5.384   0.396  1.0464  0.7005  0.7955
17870TIP3   OH275100   5.251   5.947  12.812 -0.1111 -0.2574 -0.4511
17870TIP3    H175101   5.335   5.910  12.783 -0.4439 -0.7845 -0.7441
17870TIP3    H275102   5.211   5.980  12.732 -0.3832 -0.4011 -0.3735
17871TIP3   OH275103   0.397   3.962  12.934  0.1665  0.1630 -0.5044
17871TIP3    H175104   0.314   4.000  12.903  0.1764  0.4985 -0.1264
17871TIP3    H275105   0.448   4.037  12.963  1.0969  0.0829 -1.8574
17872TIP3   OH275106   0.228   3.540   1.002  0.0095  0.7000 -0.5919
17872TIP3    H175107   0.164   3.538   0.930  0.5920 -1.8397 -1.1101
17872TIP3    H275108   0.177   3.519   1.080 -0.0109 -0.0223 -0.7999
17873TIP3   OH275109   5.447   4.336   0.656  0.0102  0.2324 -0.5410
17873TIP3    H175110   5.496   4.412   0.686 -0.3913 -0.2095  1.3454
17873TIP3    H275111   5.510   4.264   0.656 -0.2450 -0.0064  0.3917
17874TIP3   OH275112   4.254   5.607  14.359 -0.4618  0.7221 -0.1495
17874TIP3    H175113   4.191   5.582  14.426  1.2617 -0.3649  1.1440
17874TIP3    H275114   4.237   5.547  14.287 -1.3512  0.9095 -0.1033
17875TIP3   OH275115   3.627   0.788   1.127 -0.6042 -1.0157  0.0698
17875TIP3    H175116   3.678   0.751   1.199 -0.1386  1.6472  1.2259
17875TIP3    H275117   3.680   0.860   1.095 -2.5495  0.3189 -0.3021
17876TIP3   OH275118   4.689   0.482   5.263  0.0908 -0.0326 -0.2095
17876TIP3    H175119   4.769   0.533   5.255  0.4065 -0.3776  0.7169
17876TIP3    H275120   4.696   0.416   5.194  0.2413  0.4118 -0.6264
17877TIP3   OH275121   4.212   6.708   1.613 -0.1622  0.0045  0.2084
17877TIP3    H175122   4.269   6.753   1.550 -1.6432  2.4532  0.4806
17877TIP3    H275123   4.256   6.718   1.697  0.5574 -1.0158 -0.0244
17878TIP3   OH275124   0.324   5.534   1.167 -0.0924 -0.4348  0.3610
17878TIP3    H175125   0.369   5.484   1.098  1.7927  0.7560  0.6717
17878TIP3    H275126   0.295   5.467   1.229 -0.2342 -1.3789 -0.6803
17879TIP3   OH275127   6.509   6.646   0.550  0.2565  0.2952 -0.8054
17879TIP3    H175128   6.575   6.704   0.512  2.1711 -0.7444  0.7292
17879TIP3    H275129   6.532   6.559   0.517  0.6167 -0.2896  0.8664
17880TIP3   OH275130   1.626   2.163   2.083  0.1967 -0.1854 -0.0247
17880TIP3    H175131   1.664   2.117   2.158 -0.0554 -0.1795  0.1080
17880TIP3    H275132   1.695   2.163   2.017  0.2282 -0.6788  0.0075
17881TIP3   OH275133   5.801   4.736   6.438 -0.0195 -0.6214 -0.2824
17881TIP3    H175134   5.808   4.826   6.407 -0.2135 -0.0740  1.1874
17881TIP3    H275135   5.731   4.698   6.387 -2.2520  1.0848  1.3104
17882TIP3   OH275136   5.561   1.660  14.537 -0.4068 -0.1404 -0.3745
17882TIP3    H175137   5.505   1.695  14.468  0.0172 -1.2193 -1.2804
17882TIP3    H275138   5.509   1.671  14.617 -1.4919 -0.1984 -1.0528
17883TIP3   OH275139   0.898   0.246  11.432 -0.0413 -0.1151  0.5531
17883TIP3    H175140   0.908   0.222  11.340 -0.3174 -1.8501  0.9444
17883TIP3    H275141   0.842   0.178  11.469  0.3656  0.3353  2.0881
17884TIP3   OH275142   6.638   3.652   5.302 -0.2411 -0.4485  0.0000
17884TIP3    H175143   6.686   3.724   5.262  1.1691 -1.7362 -0.7698
17884TIP3    H275144   6.551   3.656   5.262  0.6376 -0.7443 -2.1359
17885TIP3   OH275145   5.343   1.605   2.942 -0.1869  0.5389  0.2293
17885TIP3    H175146   5.420   1.629   2.994  0.6535  0.0694 -0.7809
17885TIP3    H275147   5.359   1.644   2.856 -1.3656  0.9377  0.1769
17886TIP3   OH275148   5.511   1.100  10.786  0.3135 -0.4478  0.2352
17886TIP3    H175149   5.523   1.195  10.776  1.4004 -0.7044 -1.5228
17886TIP3    H275150   5.581   1.062  10.733  1.0588 -2.2751  2.3615
17887TIP3   OH275151   2.622   2.584   1.622  0.3384 -0.3223 -0.1089
17887TIP3    H175152   2.567   2.552   1.550  0.3050  0.2126 -0.3236
17887TIP3    H275153   2.682   2.646   1.580  0.5244 -0.2460  0.2713
17888TIP3   OH275154   0.814   5.925  15.314 -0.4549  0.4560 -0.0428
17888TIP3    H175155   0.800   5.902  15.406  1.4638 -1.6791 -0.2173
17888TIP3    H275156   0.887   5.988  15.316 -0.5780  0.6014 -0.0966
17889TIP3   OH275157   5.310   0.371  15.148 -0.1443  0.2038  0.0904
17889TIP3    H175158   5.282   0.463  15.143  1.9602  1.0540  2.1508
17889TIP3    H275159   5.401   0.372  15.120 -0.3030 -1.4156 -0.5641
17890TIP3   OH275160   0.263   5.891  14.451  0.2294  0.0670 -0.0558
17890TIP3    H175161   0.253   5.804  14.490 -1.1636 -0.3583 -1.2641
17890TIP3    H275162   0.339   5.883  14.394  0.0397 -0.4158 -0.2531
17891TIP3   OH275163   3.802   2.390  15.194  0.7081 -0.2790 -0.6560
17891TIP3    H175164   3.877   2.445  15.171 -0.3706  1.3654 -0.3888
17891TIP3    H275165   3.743   2.397  15.120 -1.0730  1.9689  0.8465
17892TIP3   OH275166   4.739   1.406  12.168 -0.4278  0.2280  0.5143
17892TIP3    H175167   4.719   1.491  12.128 -1.6197  1.1589  2.8699
17892TIP3    H275168   4.733   1.344  12.095 -2.0066  1.8431 -0.8507
17893TIP3   OH275169   2.202   1.732  12.574 -0.1629  0.5475 -0.2086
17893TIP3    H175170   2.262   1.761  12.505 -0.5391  0.4736 -0.5711
17893TIP3    H275171   2.183   1.641  12.552 -0.1735  0.4814  0.0749
17894TIP3   OH275172   6.255   4.301   2.173 -0.3534 -0.2266  0.6595
17894TIP3    H175173   6.313   4.336   2.241 -0.8942  3.0671 -0.3883
17894TIP3    H275174   6.179   4.268   2.221  0.6920 -1.0848  1.8066
17895TIP3   OH275175   5.702   5.464  13.299  0.1016 -0.2474  0.6867
17895TIP3    H175176   5.659   5.384  13.269  0.3083  0.0992 -0.5795
17895TIP3    H275177   5.764   5.434  13.366 -0.3963 -1.0403  0.8067
17896TIP3   OH275178   4.416   0.890   4.032  0.4973  1.0315  0.2617
17896TIP3    H175179   4.476   0.954   4.069  0.9321  0.3423  0.7614
17896TIP3    H275180   4.419   0.906   3.937  2.3031  0.3165  0.1638
17897TIP3   OH275181   5.007   2.993  13.755  0.8474  0.3322  0.0809
17897TIP3    H175182   4.912   2.991  13.750  0.6365 -0.6112  3.0172
17897TIP3    H275183   5.027   3.041  13.835  2.6482 -2.5249  1.5394
17898TIP3   OH275184   4.973   4.802  11.101 -0.0581 -0.0998  0.2103
17898TIP3    H175185   4.974   4.782  11.195  1.4120  0.9576  0.4504
17898TIP3    H275186   5.042   4.746  11.065  0.5138  0.7089  0.0430
17899TIP3   OH275187   2.489   4.663  16.278 -0.2162  0.0149 -0.1232
17899TIP3    H175188   2.507   4.612  16.357  0.2771  0.8996  0.3486
17899TIP3    H275189   2.485   4.598  16.208  0.1560 -0.6949  0.5011
17900TIP3   OH275190   2.441   3.000  13.074  0.3299  0.5329 -0.0821
17900TIP3    H175191   2.396   3.083  13.058  3.2018  2.2842  0.2532
17900TIP3    H275192   2.488   2.982  12.992 -1.1389 -1.4541 -0.5746
17901TIP3   OH275193   4.466   3.620  13.871  0.3291 -0.2950 -0.2453
17901TIP3    H175194   4.389   3.565  13.887  0.2671 -0.0562  0.2812
17901TIP3    H275195   4.430   3.702  13.836  0.3512 -0.2238 -0.1028
17902TIP3   OH275196   2.717   2.767   4.883  0.6123  0.0798 -0.8193
17902TIP3    H175197   2.699   2.852   4.841  1.1805  0.5724 -0.0776
17902TIP3    H275198   2.801   2.779   4.926 -0.2037 -0.2356  0.9353
17903TIP3   OH275199   3.950   3.538   5.404 -0.5397  0.1407  0.1961
17903TIP3    H175200   3.885   3.485   5.358 -1.4713  1.3045  0.1307
17903TIP3    H275201   3.963   3.494   5.488  1.1973 -2.0285 -1.1149
17904TIP3   OH275202   3.805   5.209  16.656  0.1672 -0.0370 -0.6209
17904TIP3    H175203   3.791   5.300  16.682  2.6497 -0.1379  1.4747
17904TIP3    H275204   3.731   5.162  16.694  0.6456  0.6862  1.3676
17905TIP3   OH275205   2.845   1.805   1.242 -0.1491  0.0350  0.1975
17905TIP3    H175206   2.885   1.892   1.248  1.4834 -0.7286  1.5672
17905TIP3    H275207   2.817   1.786   1.332 -2.2810 -0.0981 -0.4507
17906TIP3   OH275208   1.563   3.929  16.226 -0.4079  0.3329  0.1408
17906TIP3    H175209   1.541   3.840  16.198  1.3891 -0.1229  0.0403
17906TIP3    H275210   1.537   3.931  16.318  2.9756 -1.7144  1.3470
17907TIP3   OH275211   1.984   5.924   4.760 -0.1903  0.0605  0.2287
17907TIP3    H175212   1.926   5.909   4.685 -0.4403  0.0942  0.4141
17907TIP3    H275213   1.978   6.019   4.776 -0.0983  0.0615  0.2588
17908TIP3   OH275214   5.944   5.593   1.672 -0.2520  0.2081 -0.2082
17908TIP3    H175215   6.001   5.560   1.602  0.7014  0.0610  0.6086
17908TIP3    H275216   5.976   5.681   1.689 -0.2075  0.0989  0.3054
17909TIP3   OH275217   3.714   3.915  11.192  0.1361  0.2256  0.6412
17909TIP3    H175218   3.760   3.978  11.136 -1.0336 -0.3038 -0.9839
17909TIP3    H275219   3.686   3.966  11.267 -1.7017  2.0068 -1.1110
17910TIP3   OH275220   4.771   0.484   3.735  0.1768 -0.2370 -0.3347
17910TIP3    H175221   4.752   0.566   3.781 -1.5374  0.5448 -2.3254
17910TIP3    H275222   4.714   0.419   3.777  1.1722 -0.3617  0.9020
17911TIP3   OH275223   2.256   0.781  15.560  0.4205 -0.3605 -0.5161
17911TIP3    H175224   2.251   0.865  15.514  0.1532  1.1173  2.0535
17911TIP3    H275225   2.167   0.763  15.588  0.6939 -0.8338  0.0712
17912TIP3   OH275226   4.712   5.866  15.959  0.6316 -0.1947  0.0259
17912TIP3    H175227   4.660   5.858  15.879  1.8398  1.0798 -0.9285
17912TIP3    H275228   4.802   5.847  15.932  1.1935  1.1196  0.8706
17913TIP3   OH275229   6.195   2.700  14.664 -0.3428  0.2976 -0.3728
17913TIP3    H175230   6.284   2.718  14.694 -0.1825 -0.5628 -0.3025
17913TIP3    H275231   6.139   2.732  14.735 -0.0631  0.3668 -0.1804
17914TIP3   OH275232   1.880   2.661  12.353 -0.3226  0.6098 -0.9823
17914TIP3    H175233   1.820   2.681  12.281 -0.9217  0.4795 -0.5228
17914TIP3    H275234   1.835   2.693  12.432  0.2235  0.5365 -0.6353
17915TIP3   OH275235   3.265   3.941   1.252  0.3822  0.0165  0.0725
17915TIP3    H175236   3.290   3.991   1.174  0.5743  1.4775  1.0257
17915TIP3    H275237   3.188   3.891   1.224  0.2957  0.6896 -0.9856
17916TIP3   OH275238   3.792   1.629   4.782  0.5238 -0.2403  0.1694
17916TIP3    H175239   3.886   1.624   4.800  0.5108  0.4007  0.4436
17916TIP3    H275240   3.784   1.699   4.717  0.3158 -0.8526 -0.4716
17917TIP3   OH275241   1.123   6.120  13.102 -0.5316 -0.2939  0.3906
17917TIP3    H175242   1.175   6.175  13.161 -0.2378 -1.1230  0.9114
17917TIP3    H275243   1.180   6.105  13.027 -1.4800  2.1088 -0.9091
17918TIP3   OH275244   2.491   2.181  14.346  0.3579 -0.1969 -0.7241
17918TIP3    H175245   2.489   2.172  14.250 -1.8010  1.3487 -0.8952
17918TIP3    H275246   2.570   2.233  14.363  1.1360 -1.0481 -1.5616
17919TIP3   OH275247   1.403   2.671   4.473  0.7456  0.0674 -0.2289
17919TIP3    H175248   1.413   2.606   4.543 -0.7543  1.9525  1.8499
17919TIP3    H275249   1.456   2.636   4.401  1.6010 -2.4433  1.4793
17920TIP3   OH275250   4.748   4.470   3.585  0.4306 -0.5117 -0.0175
17920TIP3    H175251   4.827   4.488   3.535  0.6024  2.2721  1.0753
17920TIP3    H275252   4.696   4.550   3.579 -1.9692 -1.9428  0.0189
17921TIP3   OH275253   0.249   1.207  13.258 -0.2770  0.0024  0.1391
17921TIP3    H175254   0.163   1.169  13.273  0.1528 -0.8260  0.5568
17921TIP3    H275255   0.311   1.142  13.292  0.7785 -1.6017 -4.1717
17922TIP3   OH275256   6.562   2.499   3.887 -0.2972  0.1500  0.6195
17922TIP3    H175257   6.647   2.455   3.895  0.6840  1.7582 -0.1834
17922TIP3    H275258   6.516   2.450   3.819  0.9027  0.4872 -0.4998
17923TIP3   OH275259   4.080   5.202   4.685 -0.1477  0.5506 -0.5943
17923TIP3    H175260   4.081   5.125   4.742  0.1797  0.5528 -0.5943
17923TIP3    H275261   4.079   5.167   4.597 -0.4792  0.5473 -0.5907
17924TIP3   OH275262   6.598   4.571  14.285 -0.0514 -0.1876  0.1458
17924TIP3    H175263   6.608   4.545  14.193 -0.4587 -1.0051  0.3223
17924TIP3    H275264   6.681   4.549  14.326 -0.2160 -0.7641  0.1818
17925TIP3   OH275265   6.522   4.661   1.157 -0.0480  0.3004 -0.1413
17925TIP3    H175266   6.428   4.679   1.150 -0.3961 -1.4650 -0.4117
17925TIP3    H275267   6.542   4.611   1.079  0.6805 -1.0512  0.8784
17926TIP3   OH275268   5.630   0.157   6.313 -0.1085 -0.2989 -0.1012
17926TIP3    H175269   5.706   0.165   6.255 -0.6057 -1.4378 -0.9458
17926TIP3    H275270   5.576   0.089   6.273 -1.6246  0.5379  0.4411
17927TIP3   OH275271   4.652   2.623  14.287 -0.8836 -0.0978 -0.0411
17927TIP3    H175272   4.704   2.545  14.269 -0.6782 -0.0814  0.4768
17927TIP3    H275273   4.593   2.630  14.212 -1.0805 -0.8996  0.0352
17928TIP3   OH275274   3.939   6.439  10.635 -0.0088  0.2889  0.3828
17928TIP3    H175275   3.979   6.525  10.621  2.3955 -0.7545  0.2837
17928TIP3    H275276   4.004   6.377  10.601 -1.8844 -1.5615  0.0066
17929TIP3   OH275277   0.084   5.415  11.413  0.0518 -0.3287  0.0943
17929TIP3    H175278   0.152   5.385  11.352 -0.0627  0.6011 -0.5278
17929TIP3    H275279   0.075   5.509  11.393 -1.6387 -0.4977 -0.0651
17930TIP3   OH275280   4.295   2.311  16.543  0.0878  0.7096  0.9114
17930TIP3    H175281   4.289   2.243  16.610 -1.1027  0.2752  0.3904
17930TIP3    H275282   4.205   2.339  16.528  0.6056  3.0640  1.7377
17931TIP3   OH275283   3.388   2.755  11.693  0.2747 -0.3290 -0.2706
17931TIP3    H175284   3.353   2.789  11.611 -1.1967  0.0194  0.4815
17931TIP3    H275285   3.476   2.793  11.698  0.5003 -0.5718 -1.7973
17932TIP3   OH275286   3.834   0.825  11.692 -0.0735  0.5018  0.0203
17932TIP3    H175287   3.844   0.856  11.601  0.3484  0.9850  0.2263
17932TIP3    H275288   3.739   0.831  11.708 -0.5148 -1.9524 -1.1914
17933TIP3   OH275289   3.057   1.786  11.506  0.6303 -0.4714  0.0171
17933TIP3    H175290   3.124   1.782  11.575  0.8134  1.2891 -0.0199
17933TIP3    H275291   3.106   1.774  11.425  0.7732 -0.0942  0.0463
17934TIP3   OH275292   6.379   3.500  16.799  0.0868  0.1962 -0.2593
17934TIP3    H175293   6.437   3.575  16.813 -0.5437  0.4389  1.2287
17934TIP3    H275294   6.423   3.448  16.731  0.9153  1.4987 -0.7587
17935TIP3   OH275295   4.730   5.739  14.918 -0.4508 -0.0689 -0.2793
17935TIP3    H175296   4.647   5.773  14.884  0.2522  0.9190 -1.0413
17935TIP3    H275297   4.757   5.674  14.854 -1.4032 -1.5791  0.7830
17936TIP3   OH275298   4.899   5.112  11.983  0.0437 -1.1380  0.1728
17936TIP3    H175299   4.930   5.137  12.069 -1.4305 -1.1701  0.7438
17936TIP3    H275300   4.862   5.024  11.995 -2.1677 -0.2869  0.0453
17937TIP3   OH275301   1.731   4.629  11.764  0.0354 -0.3897  0.0590
17937TIP3    H175302   1.783   4.600  11.839 -0.4914 -1.1755  0.1328
17937TIP3    H275303   1.772   4.587  11.689 -0.2038 -0.6266  0.0602
17938TIP3   OH275304   1.718   4.812   3.813 -0.1377  0.2445 -0.0488
17938TIP3    H175305   1.712   4.716   3.805 -0.4693  0.2000  0.7033
17938TIP3    H275306   1.628   4.843   3.802 -0.2937  0.3369  1.3220
17939TIP3   OH275307   3.855   3.009  15.390  0.2192 -0.0935  0.3350
17939TIP3    H175308   3.762   2.989  15.383 -0.6168  3.4998 -1.4370
17939TIP3    H275309   3.890   2.992  15.302  0.7086  0.6290  0.3776
17940TIP3   OH275310   3.274   4.145  13.705  0.4013 -0.2539  0.4395
17940TIP3    H175311   3.339   4.176  13.768 -0.3915 -0.7456  1.5274
17940TIP3    H275312   3.230   4.073  13.749 -0.1727 -0.6193 -0.6912
17941TIP3   OH275313   3.101   0.898  12.498  0.2318  0.5672 -0.1995
17941TIP3    H175314   3.112   0.891  12.403  1.5016 -1.1307  0.0339
17941TIP3    H275315   3.031   0.837  12.519 -0.2171  1.1232 -0.0525
17942TIP3   OH275316   5.685   1.204  10.440  0.0061 -0.8398  0.3831
17942TIP3    H175317   5.777   1.222  10.458 -0.1482 -0.4333  0.7778
17942TIP3    H275318   5.667   1.122  10.487  0.5403 -1.7229 -0.8952
17943TIP3   OH275319   6.150   4.207  12.499  0.1466 -0.4590  0.5440
17943TIP3    H175320   6.177   4.158  12.421 -1.8085 -1.0834  0.1911
17943TIP3    H275321   6.066   4.247  12.474  0.3191  0.7587  1.7767
17944TIP3   OH275322   2.351   3.895   5.163 -0.0202 -0.2710  0.5945
17944TIP3    H175323   2.321   3.986   5.162  0.5391 -0.0838  0.5417
17944TIP3    H275324   2.278   3.845   5.199 -0.1871  0.2528  0.9751
17945TIP3   OH275325   4.391   0.466  11.588  0.0309  0.4853  0.4565
17945TIP3    H175326   4.347   0.392  11.548  2.3721 -0.2291 -0.9839
17945TIP3    H275327   4.408   0.439  11.678 -2.0777  0.6697  0.9555
17946TIP3   OH275328   2.241   2.468  15.531  0.4418 -0.5754  0.3206
17946TIP3    H175329   2.211   2.402  15.593  0.9032 -0.7787  0.3339
17946TIP3    H275330   2.229   2.552  15.577  1.7321 -0.7909  1.0917
17947TIP3   OH275331   2.125   1.340   5.117 -0.1282  0.7939  0.8443
17947TIP3    H175332   2.178   1.391   5.056  1.3906  1.1295  2.3464
17947TIP3    H275333   2.138   1.384   5.202 -0.5129 -0.8187  1.7826
17948TIP3   OH275334   5.084   5.153  12.387  0.2873  0.1611  0.2896
17948TIP3    H175335   4.988   5.157  12.384  0.2536 -0.7567 -0.2374
17948TIP3    H275336   5.105   5.063  12.362  1.2736  0.1946  0.9443
17949TIP3   OH275337   6.510   3.970   1.031 -0.3142  0.2077 -0.1840
17949TIP3    H175338   6.504   3.902   1.098 -1.0302  0.1054 -0.3514
17949TIP3    H275339   6.583   4.026   1.061  0.4383 -0.7579 -0.1726
17950TIP3   OH275340   0.297   5.243  13.076 -0.0429  0.4582  0.0595
17950TIP3    H175341   0.246   5.281  13.148 -2.4029  1.0426 -1.7407
17950TIP3    H275342   0.348   5.317  13.042 -0.0265  0.5432  0.2682
17951TIP3   OH275343   4.529   1.841  16.977 -0.0883  0.0543  0.1913
17951TIP3    H175344   4.577   1.787  16.914 -1.2121 -1.8930  0.9347
17951TIP3    H275345   4.439   1.810  16.972 -1.1210  2.8377 -0.3261
17952TIP3   OH275346   5.796   1.647   3.479 -0.2120 -0.3555 -0.5189
17952TIP3    H175347   5.874   1.593   3.492 -1.2759 -2.4673 -2.3203
17952TIP3    H275348   5.803   1.714   3.546  2.4629 -1.2488  0.2477
17953TIP3   OH275349   1.846   6.498   5.808  0.1358 -0.0669  0.2797
17953TIP3    H175350   1.894   6.459   5.735  1.8052  1.4176  0.5192
17953TIP3    H275351   1.826   6.425   5.866  0.1541 -1.0354 -0.8847
17954TIP3   OH275352   1.551   3.073   5.014 -0.4277 -0.6565 -0.5333
17954TIP3    H175353   1.483   3.131   5.049  0.2051 -0.2799  0.0983
17954TIP3    H275354   1.574   3.111   4.930 -0.6361 -0.4979 -0.5204
17955TIP3   OH275355   4.859   5.421   3.161 -0.4885  0.2736 -0.1184
17955TIP3    H175356   4.880   5.427   3.068  0.6643 -0.6330  0.0575
17955TIP3    H275357   4.776   5.373   3.164 -0.9882  1.0701 -0.6971
17956TIP3   OH275358   6.359   2.251  12.954 -0.2445 -0.1308  0.2141
17956TIP3    H175359   6.307   2.259  13.034  0.0156  1.2568  0.2632
17956TIP3    H275360   6.366   2.156  12.940 -2.2905 -0.3586  0.5045
17957TIP3   OH275361   5.876   2.173  13.343  0.2416  0.1222  0.0608
17957TIP3    H175362   5.863   2.248  13.401 -0.6894  1.0589 -1.2954
17957TIP3    H275363   5.795   2.123  13.349  1.1068 -1.2113  1.4735
17958TIP3   OH275364   5.852   0.023  16.239  0.2416  0.1900  0.3233
17958TIP3    H175365   5.941  -0.011  16.228 -0.5823 -2.0842  0.0303
17958TIP3    H275366   5.815   0.021  16.150 -0.2950  0.4993  0.5363
17959TIP3   OH275367   4.460   4.283  11.531  0.6063 -1.4685 -0.3259
17959TIP3    H175368   4.376   4.295  11.486  0.6795 -1.7535 -0.5493
17959TIP3    H275369   4.483   4.369  11.563  0.9909 -1.0548 -1.6325
17960TIP3   OH275370   4.990   5.092  16.236  0.1257 -0.0911  0.2004
17960TIP3    H175371   4.948   5.079  16.321  0.1774 -0.6548  0.1433
17960TIP3    H275372   4.995   5.187  16.226  0.5494 -0.0201  1.0392
17961TIP3   OH275373   2.255   3.993  14.820  0.1910 -0.0825 -0.5762
17961TIP3    H175374   2.325   3.997  14.756  0.4429  0.3694 -0.2795
17961TIP3    H275375   2.229   4.084  14.833  3.0466  0.4675  3.1042
17962TIP3   OH275376   3.388   4.397   6.442 -0.1719  0.7504  0.2443
17962TIP3    H175377   3.367   4.461   6.374 -1.5784 -0.7105 -0.7683
17962TIP3    H275378   3.356   4.437   6.523 -0.7047  1.4845 -0.3078
17963TIP3   OH275379   4.149   1.139   1.548  0.3761 -0.1712  0.2596
17963TIP3    H175380   4.130   1.119   1.639 -0.7852  0.6846  0.2256
17963TIP3    H275381   4.194   1.223   1.550 -0.0692  0.0742  0.0116
17964TIP3   OH275382   0.089   3.398   2.950 -0.4197 -0.0010 -0.0199
17964TIP3    H175383   0.082   3.402   3.045 -0.6492  1.8309 -0.0777
17964TIP3    H275384   0.047   3.315   2.926  2.9972 -2.4925  1.6948
17965TIP3   OH275385   3.307   3.154   5.145  0.2023  0.3478  0.0740
17965TIP3    H175386   3.254   3.094   5.198  1.1618 -0.7627 -0.1679
17965TIP3    H275387   3.254   3.170   5.067  0.1868 -0.7473 -0.1625
17966TIP3   OH275388   6.548   1.026   2.319  0.6239 -0.0495  0.6606
17966TIP3    H175389   6.582   1.088   2.254 -0.9788  0.9985  0.7528
17966TIP3    H275390   6.508   1.082   2.386 -2.1850 -1.1295  0.0301
17967TIP3   OH275391   6.145   5.118  13.249 -0.1109 -0.1631  0.2636
17967TIP3    H175392   6.161   5.085  13.338  1.7130 -1.1238 -0.3584
17967TIP3    H275393   6.196   5.199  13.244  0.0310 -0.2653  0.0149
17968TIP3   OH275394   4.834   2.522   1.358 -0.3791  0.2939 -0.2333
17968TIP3    H175395   4.899   2.458   1.329 -1.0330  0.1463 -1.3989
17968TIP3    H275396   4.847   2.598   1.302 -1.4396  0.1304 -0.7227
17969TIP3   OH275397   2.952   0.741  13.795  0.2395  0.5039 -0.0893
17969TIP3    H175398   3.008   0.672  13.761 -1.3289 -0.3282 -1.0966
17969TIP3    H275399   2.944   0.803  13.723  0.4438  0.9942  0.3027
17970TIP3   OH275400   0.101   4.917  14.755 -0.2611  0.1400  0.4594
17970TIP3    H175401   0.114   4.823  14.750  0.4279  0.2425  0.1496
17970TIP3    H275402   0.113   4.948  14.665 -0.0540  0.5698  0.6311
17971TIP3   OH275403   1.975   5.811  12.929  0.4760 -0.0599 -0.5746
17971TIP3    H175404   1.892   5.797  12.882  0.3345 -0.7603 -0.1306
17971TIP3    H275405   1.998   5.725  12.963  1.5396  0.0717 -0.9218
17972TIP3   OH275406   2.960   4.608   1.749  0.0142 -0.1477  0.1123
17972TIP3    H175407   3.052   4.630   1.730 -0.3502  0.8239 -0.6324
17972TIP3    H275408   2.952   4.622   1.844  0.3042  1.1222 -0.0308
17973TIP3   OH275409   2.005   2.521   2.905 -0.2292 -0.9373 -0.0856
17973TIP3    H175410   2.042   2.437   2.933  1.3009 -0.5586 -0.8594
17973TIP3    H275411   1.989   2.569   2.986  0.6275 -1.2714  0.2842
17974TIP3   OH275412   1.419   4.918   1.521 -0.1092 -0.4513 -0.2413
17974TIP3    H175413   1.420   5.010   1.543  1.2563  0.1057 -2.3034
17974TIP3    H275414   1.339   4.884   1.561 -0.8673  1.7107  0.1939
17975TIP3   OH275415   3.547   2.881  16.153  0.5307  0.2960 -0.1251
17975TIP3    H175416   3.499   2.805  16.118 -1.1927  1.2695  0.0286
17975TIP3    H275417   3.490   2.916  16.222  2.1523  0.6548  1.1102
17976TIP3   OH275418   1.070   6.319  10.894 -0.0430 -0.6373  0.2681
17976TIP3    H175419   1.008   6.392  10.897 -2.2709 -2.3153  5.1452
17976TIP3    H275420   1.040   6.265  10.821 -0.5159  1.4506 -1.1825
17977TIP3   OH275421   4.227   2.424   4.088 -0.1184  0.3544  0.2546
17977TIP3    H175422   4.261   2.489   4.149 -2.7471  0.7014  1.4754
17977TIP3    H275423   4.219   2.471   4.005 -0.1163  0.9899  0.6085
17978TIP3   OH275424   1.925   3.378   4.757  0.0695 -0.0518  0.6752
17978TIP3    H175425   2.017   3.399   4.775  0.3090 -0.9042  0.5162
17978TIP3    H275426   1.877   3.456   4.782  0.9332  0.7744 -0.1484
17979TIP3   OH275427   3.178   5.604  12.329 -0.1143  0.5501  0.4881
17979TIP3    H175428   3.119   5.670  12.364 -1.2643 -0.3709  0.3478
17979TIP3    H275429   3.197   5.547  12.403 -1.1603 -0.4027  0.0491
17980TIP3   OH275430   6.656   2.621   5.452  0.3977  0.3996  0.0621
17980TIP3    H175431   6.738   2.671   5.452  1.5892 -1.4315 -0.0733
17980TIP3    H275432   6.623   2.629   5.542  2.0328 -0.7654  0.8185
17981TIP3   OH275433   3.839   0.730  13.917 -0.2721  0.2778 -0.6255
17981TIP3    H175434   3.928   0.720  13.949 -0.4117 -0.7999 -0.5129
17981TIP3    H275435   3.789   0.760  13.993  0.0153  1.0370 -0.7307
17982TIP3   OH275436   1.852   3.098  14.168  0.3202  0.0510  0.2353
17982TIP3    H175437   1.946   3.085  14.177  0.6391  1.5727 -0.4981
17982TIP3    H275438   1.836   3.185  14.206 -0.7083  0.0163 -0.0831
17983TIP3   OH275439   6.424   5.304   4.972 -0.5533  0.2233 -0.0814
17983TIP3    H175440   6.416   5.248   5.050  0.2549 -0.7504 -0.6687
17983TIP3    H275441   6.487   5.258   4.916  0.2881  1.8244 -0.5130
17984TIP3   OH275442   4.139   0.227   5.174 -0.1192  0.4759  0.3529
17984TIP3    H175443   4.108   0.253   5.087 -0.1356  2.2057  0.8395
17984TIP3    H275444   4.059   0.206   5.222 -0.1423 -0.0841  0.0694
17985TIP3   OH275445   4.336   1.678   2.878  0.0282  0.2245  0.0461
17985TIP3    H175446   4.246   1.646   2.884 -0.5288  1.9198  2.2356
17985TIP3    H275447   4.390   1.607   2.912 -0.3308 -1.0986 -1.9753
17986TIP3   OH275448   4.553   6.106  15.735  0.0340  0.4344  0.0738
17986TIP3    H175449   4.518   6.125  15.649 -3.2204 -0.3319  1.1064
17986TIP3    H275450   4.570   6.012  15.734 -1.9935  0.0181  0.8404
17987TIP3   OH275451   3.046   2.151   0.887  0.3579 -0.3183  0.7722
17987TIP3    H175452   2.970   2.208   0.902 -0.0291 -0.0281 -1.8015
17987TIP3    H275453   3.120   2.211   0.879  0.2024 -0.2726 -0.4485
17988TIP3   OH275454   2.931   6.008  14.145 -1.0057 -0.0208 -0.4361
17988TIP3    H175455   3.021   5.984  14.124 -0.6459 -1.1269  2.0039
17988TIP3    H275456   2.929   6.104  14.137 -0.1069 -0.1076 -2.1167
17989TIP3   OH275457   3.197   1.533   2.171  0.1151  0.3914 -0.0242
17989TIP3    H175458   3.187   1.598   2.241 -0.0570  0.7798 -0.4015
17989TIP3    H275459   3.272   1.480   2.198  0.3455  0.8360  0.2311
17990TIP3   OH275460   3.094   5.940   6.487 -0.3291  0.4229  0.0220
17990TIP3    H175461   3.039   5.867   6.457  0.7187 -0.1964 -0.4514
17990TIP3    H275462   3.039   6.017   6.477 -1.0936 -0.1742 -0.4920
17991TIP3   OH275463   0.311   0.007  16.040 -0.2467 -0.0368 -0.4035
17991TIP3    H175464   0.309  -0.054  15.965  1.8957 -0.2778 -0.3222
17991TIP3    H275465   0.389   0.061  16.025  0.2518 -0.1110  1.6689
17992TIP3   OH275466   3.732   1.774  13.542  0.2172 -0.0028  0.3654
17992TIP3    H175467   3.705   1.862  13.515 -0.8133 -0.5889 -0.6423
17992TIP3    H275468   3.672   1.751  13.613  0.2645 -0.0158  0.4010
17993TIP3   OH275469   0.829   6.504  15.079 -0.3524  0.1667  0.1710
17993TIP3    H175470   0.757   6.444  15.098 -0.4783  0.8191  1.8816
17993TIP3    H275471   0.902   6.471  15.132  0.2101  0.3367 -0.4777
17994TIP3   OH275472   3.132   1.881   3.931 -0.0129  0.0611  0.3766
17994TIP3    H175473   3.111   1.911   4.019 -0.8176  1.8525 -0.3871
17994TIP3    H275474   3.194   1.945   3.897  0.0763 -0.4516 -0.4738
17995TIP3   OH275475   4.900   5.322  11.340 -0.1762  0.2198  0.0848
17995TIP3    H175476   4.843   5.385  11.296  0.3666  1.4294  1.0801
17995TIP3    H275477   4.966   5.375  11.384 -0.2353 -0.9657  1.7041
17996TIP3   OH275478   6.263   5.294   3.379 -0.1877  0.1647 -0.3221
17996TIP3    H175479   6.272   5.338   3.463 -1.0594  0.7720 -0.5274
17996TIP3    H275480   6.170   5.268   3.376  0.1644 -1.1435 -0.4726
17997TIP3   OH275481   4.897   1.453  10.822 -0.5127  0.2789  0.2809
17997TIP3    H175482   4.870   1.366  10.794 -1.6141  0.4605  0.7496
17997TIP3    H275483   4.843   1.513  10.771  1.7253  0.7997 -1.6492
17998TIP3   OH275484   4.531   3.880   1.448  0.1024  0.0572 -0.4619
17998TIP3    H175485   4.606   3.926   1.486  0.2961 -0.2285 -0.4990
17998TIP3    H275486   4.483   3.847   1.524 -0.6577  1.2766 -0.3800
17999TIP3   OH275487   2.240   4.964   1.509 -0.1549  0.5850  0.3555
17999TIP3    H175488   2.217   4.974   1.602  2.0421 -0.4285  1.0787
17999TIP3    H275489   2.314   4.904   1.509  0.5149  1.3037 -2.0021
18000TIP3   OH275490   2.422   2.890   0.205  0.3276  0.8413 -0.4477
18000TIP3    H175491   2.452   2.963   0.151  0.9072 -0.7416 -2.4079
18000TIP3    H275492   2.336   2.867   0.169  0.3281  0.3109 -0.1359
18001TIP3   OH275493   6.063   3.579  12.826  0.0078  0.4275 -0.1078
18001TIP3    H175494   6.104   3.664  12.839 -0.4413  0.2646  3.3584
18001TIP3    H275495   5.976   3.589  12.863 -0.5343 -1.1981 -0.8722
18002TIP3   OH275496   2.777   1.008   0.215 -0.1509 -0.0090 -0.0993
18002TIP3    H175497   2.729   0.955   0.279 -0.2019 -0.1182 -0.2251
18002TIP3    H275498   2.849   0.951   0.187 -0.2560 -0.0444 -0.2989
18003TIP3   OH275499   2.724   2.307  14.394 -0.2701 -0.4466 -0.0747
18003TIP3    H175500   2.753   2.397  14.383 -0.1664 -0.6078 -1.3569
18003TIP3    H275501   2.720   2.294  14.489 -0.7180  1.0269  0.1359
18004TIP3   OH275502   0.306   6.127  13.665 -0.4811  0.2965 -0.0410
18004TIP3    H175503   0.264   6.044  13.640 -0.7262  0.0060  1.2622
18004TIP3    H275504   0.242   6.194  13.639 -0.7628  0.0030 -0.1204
18005TIP3   OH275505   1.870   5.777   3.755  0.3219  0.1363 -0.6079
18005TIP3    H175506   1.829   5.695   3.729 -2.1757  1.0814  0.1197
18005TIP3    H275507   1.799   5.831   3.789  2.4200  1.2470  2.5097
18006TIP3   OH275508   0.515   4.961  14.979 -0.3863 -0.1583 -0.4155
18006TIP3    H175509   0.469   4.973  14.895  0.0532  0.5121 -0.5702
18006TIP3    H275510   0.568   5.040  14.988  0.6510 -0.8673 -0.1815
18007TIP3   OH275511   6.047   4.550   0.762  0.2854 -0.3754 -0.9012
18007TIP3    H175512   5.968   4.571   0.712  0.3230  1.1067 -0.3930
18007TIP3    H275513   6.070   4.462   0.734 -0.7980 -0.3306 -2.0449
18008TIP3   OH275514   4.605   3.442  17.043 -0.2643 -0.5164  0.2115
18008TIP3    H175515   4.686   3.410  17.081  0.1418 -0.2921 -0.4478
18008TIP3    H275516   4.620   3.439  16.948  0.3447  2.8658  0.0759
18009TIP3   OH275517   3.916   4.005  14.656  0.3273  0.3344  0.1030
18009TIP3    H175518   3.981   4.053  14.707  1.1081  0.5727 -1.0781
18009TIP3    H275519   3.857   4.073  14.622 -0.2101  0.1747  0.7155
18010TIP3   OH275520   5.930   3.235   5.593 -0.1440  0.2827 -0.8526
18010TIP3    H175521   5.960   3.311   5.642  0.6176 -0.9574  0.7016
18010TIP3    H275522   6.010   3.200   5.551  0.3511 -1.7957  1.5653
18011TIP3   OH275523   6.656   3.137   0.463  0.2017 -0.1202  0.5410
18011TIP3    H175524   6.570   3.116   0.498  1.5947 -2.8625  2.7545
18011TIP3    H275525   6.672   3.227   0.490 -1.8862  0.4224  0.1283
18012TIP3   OH275526   3.213   3.003   0.905 -0.1131 -0.0467  0.2777
18012TIP3    H175527   3.132   2.982   0.858  0.4690  0.6041 -1.0558
18012TIP3    H275528   3.205   2.955   0.988 -0.0590 -3.3861 -1.4644
18013TIP3   OH275529   0.570   4.620   5.366  0.0249 -0.5151 -0.1209
18013TIP3    H175530   0.540   4.542   5.318 -1.1187 -0.2672  0.1555
18013TIP3    H275531   0.647   4.591   5.414 -0.8524 -1.7151  0.6174
18014TIP3   OH275532   4.953   5.873  13.751 -0.0543  0.6551 -0.8774
18014TIP3    H175533   4.890   5.913  13.811 -1.3538 -1.4258 -0.7683
18014TIP3    H275534   4.914   5.882  13.665 -0.2932 -0.2268 -0.8679
18015TIP3   OH275535   6.527   6.562  13.850 -0.0956  0.1936  0.8177
18015TIP3    H175536   6.602   6.606  13.890 -1.1164 -1.0971  4.5564
18015TIP3    H275537   6.454   6.622  13.863 -0.0697  0.8693 -1.6253
18016TIP3   OH275538   3.953   4.955  11.346  0.3964 -0.2446 -0.5599
18016TIP3    H175539   4.029   4.976  11.291  0.6677  1.8626  0.5095
18016TIP3    H275540   3.911   4.881  11.302  1.0929  0.7697 -3.1195
18017TIP3   OH275541   1.940   2.296   1.750 -0.5148  0.3912 -0.1799
18017TIP3    H175542   1.934   2.392   1.751  0.5836  0.4686  0.4635
18017TIP3    H275543   2.022   2.277   1.796  0.2470 -0.7819 -1.9091
18018TIP3   OH275544   4.675   6.318  15.204  0.6285 -0.8992 -0.1123
18018TIP3    H175545   4.696   6.352  15.291  0.0055 -0.0877 -0.2738
18018TIP3    H275546   4.641   6.230  15.221 -1.6781  0.0846  0.6967
18019TIP3   OH275547   4.840   2.580  13.557 -0.2953 -0.2719 -0.1373
18019TIP3    H175548   4.750   2.609  13.576 -0.5809 -2.0181  1.5180
18019TIP3    H275549   4.889   2.600  13.637  0.6232 -0.0587 -0.7390
18020TIP3   OH275550   0.939   4.535   5.776 -0.5729 -0.3075  0.3719
18020TIP3    H175551   0.955   4.550   5.870  1.8217  0.1601 -0.0346
18020TIP3    H275552   0.934   4.622   5.738 -1.3220 -0.4993  0.0095
18021TIP3   OH275553   4.911   0.486   3.391 -0.0074 -0.1286  0.3315
18021TIP3    H175554   4.972   0.542   3.344  0.4424 -0.2327  0.7823
18021TIP3    H275555   4.936   0.495   3.483 -0.9672  0.1831  0.5687
18022TIP3   OH275556   5.847   2.081   5.671 -0.7521 -0.0789  0.3065
18022TIP3    H175557   5.899   2.008   5.637 -1.3941 -1.5343  2.2581
18022TIP3    H275558   5.901   2.118   5.741 -1.4041 -0.1832  0.8721
18023TIP3   OH275559   3.265   5.395  15.761 -0.1734  0.2963  0.0678
18023TIP3    H175560   3.239   5.485  15.742  1.7679  1.4257  2.2957
18023TIP3    H275561   3.196   5.341  15.721 -0.5089  2.6203 -2.8467
18024TIP3   OH275562   0.475   6.213   4.477  0.8782 -0.0257 -0.1731
18024TIP3    H175563   0.529   6.278   4.522  1.5192  0.2502 -1.2915
18024TIP3    H275564   0.536   6.165   4.421  0.5369 -2.0652  1.0956
18025TIP3   OH275565   6.670   4.053   1.467  0.4102  0.6620 -0.1686
18025TIP3    H175566   6.696   3.976   1.518  0.6426  0.9691  0.1897
18025TIP3    H275567   6.747   4.075   1.415 -0.1846 -0.3007 -1.4945
18026TIP3   OH275568   0.996   6.451   2.431 -0.3094  0.4012  0.3198
18026TIP3    H175569   0.928   6.466   2.496  0.5459  1.3993  1.0235
18026TIP3    H275570   0.960   6.485   2.349 -0.6999  0.8207  0.6638
18027TIP3   OH275571   0.115   1.728  14.967  0.0054  0.0655  0.1023
18027TIP3    H175572   0.186   1.783  14.935 -0.0611  1.5559  2.3434
18027TIP3    H275573   0.136   1.640  14.934  2.0816  0.7442 -0.5029
18028TIP3   OH275574   1.182   2.403  10.999  0.4549 -0.1815  0.4398
18028TIP3    H175575   1.165   2.390  11.092  0.3081 -1.8928  0.2143
18028TIP3    H275576   1.261   2.457  10.997  1.2319 -1.1999  1.5935
18029TIP3   OH275577   2.857   6.382  15.179 -0.1624  0.2040 -0.0353
18029TIP3    H175578   2.932   6.359  15.124  0.1932 -0.2784  0.6363
18029TIP3    H275579   2.823   6.298  15.209 -0.4907  0.4585  0.3040
18030TIP3   OH275580   6.562   5.999   1.912  0.9727 -0.0290  0.1892
18030TIP3    H175581   6.553   5.983   1.819 -2.0872 -0.7210  0.4942
18030TIP3    H275582   6.541   5.916   1.954 -0.2573  0.8607  1.4862
18031TIP3   OH275583   5.329   5.187  15.951  0.0012  0.0544 -0.0270
18031TIP3    H175584   5.261   5.235  15.904 -0.7152  0.2641  1.1827
18031TIP3    H275585   5.305   5.095  15.941  0.4722  0.0238 -0.9797
18032TIP3   OH275586   1.847   0.893  16.465  0.1095 -0.6383 -0.1572
18032TIP3    H175587   1.808   0.966  16.514  1.5208  0.5469 -0.7245
18032TIP3    H275588   1.799   0.891  16.383 -0.5667 -0.9828  0.2352
18033TIP3   OH275589   2.762   0.032  16.090 -0.7962  0.6766 -0.4528
18033TIP3    H175590   2.737   0.050  16.180  0.3748 -1.9926  0.5217
18033TIP3    H275591   2.679   0.019  16.044 -1.4075  2.1833  0.1872
18034TIP3   OH275592   0.504   4.234  11.559 -0.3548  0.0434  0.3084
18034TIP3    H175593   0.548   4.319  11.550  0.0967  0.0265  2.0244
18034TIP3    H275594   0.463   4.219  11.473  0.6180  1.3848 -0.4309
18035TIP3   OH275595   6.266   4.139  11.492 -0.2213 -0.2499  0.6178
18035TIP3    H175596   6.310   4.091  11.563 -1.5258  0.1514  1.7434
18035TIP3    H275597   6.322   4.216  11.478  0.7502 -0.9917  0.2648
18036TIP3   OH275598   2.159   2.888   0.090  0.5742 -0.4642 -0.1743
18036TIP3    H175599   2.126   2.841   0.013  0.3870 -1.4453  0.4958
18036TIP3    H275600   2.108   2.970   0.091  1.5391  0.2014 -1.8641
18037TIP3   OH275601   5.536   4.925   1.844 -0.3325 -0.1521  0.0323
18037TIP3    H175602   5.560   4.837   1.814 -0.0862  0.0469 -0.3551
18037TIP3    H275603   5.457   4.946   1.793 -2.2897 -1.4083  2.3504
18038TIP3   OH275604   4.818   5.652  16.876 -0.2145 -0.0011 -0.2932
18038TIP3    H175605   4.836   5.618  16.789 -2.0564  0.3636 -0.8593
18038TIP3    H275606   4.737   5.702  16.867  0.3979  1.4282  1.2916
18039TIP3   OH275607   5.634   2.394   0.321 -0.3415  0.5154  0.0337
18039TIP3    H175608   5.584   2.324   0.278  4.0717 -1.9690 -1.6989
18039TIP3    H275609   5.627   2.469   0.261 -1.9030  0.2728 -0.1303
18040TIP3   OH275610   6.294   0.517   2.542 -0.4044  0.0686  0.0556
18040TIP3    H175611   6.283   0.609   2.517  1.3352  0.1768 -0.4032
18040TIP3    H275612   6.246   0.468   2.475  2.8778  0.4376 -2.8543
18041TIP3   OH275613   3.087   1.882  12.973 -0.4926  0.9658  0.7377
18041TIP3    H175614   3.173   1.859  12.938  0.6116  2.4267  2.3170
18041TIP3    H275615   3.047   1.797  12.995  1.1347  0.2969  1.2862
18042TIP3   OH275616   3.951   3.222   0.888  0.0991 -0.0180  0.5062
18042TIP3    H175617   4.011   3.288   0.923 -0.0890 -0.9752  2.8264
18042TIP3    H275618   3.866   3.265   0.889  0.4944  0.9714 -1.7607
18043TIP3   OH275619   0.373   2.494  15.155 -0.1272 -0.2498 -0.1479
18043TIP3    H175620   0.360   2.474  15.248  0.8790  0.9990  0.3034
18043TIP3    H275621   0.344   2.416  15.109 -0.6916 -0.8810  1.2203
18044TIP3   OH275622   3.386   5.589  10.513  0.1374 -0.1730  0.2859
18044TIP3    H175623   3.431   5.634  10.441 -0.5108  1.3715  0.7915
18044TIP3    H275624   3.377   5.499  10.483 -2.5740  0.9301 -2.8757
18045TIP3   OH275625   3.085   5.767   3.649  0.0362  0.1591 -0.1747
18045TIP3    H175626   2.994   5.746   3.667  0.3424 -1.3228 -0.2220
18045TIP3    H275627   3.098   5.741   3.557  0.5058  0.3053 -0.1524
18046TIP3   OH275628   4.875   2.939  15.779 -0.2457 -0.5124 -0.2339
18046TIP3    H175629   4.908   3.003  15.715  1.2458 -0.7027  0.3027
18046TIP3    H275630   4.783   2.929  15.757 -0.7337  2.3502  0.1116
18047TIP3   OH275631   3.758   4.566  13.315  0.2445  0.1667 -0.1520
18047TIP3    H175632   3.728   4.629  13.249 -0.2372 -0.0598 -0.1612
18047TIP3    H275633   3.684   4.506  13.325  1.1802 -1.2119 -1.1547
18048TIP3   OH275634   2.507   1.681   5.582 -0.1473 -0.0637 -0.3751
18048TIP3    H175635   2.415   1.657   5.589 -0.4369  1.1183  0.1109
18048TIP3    H275636   2.554   1.598   5.591 -1.0959 -0.4759  1.1166
18049TIP3   OH275637   3.566   3.308   2.978  0.2419  0.2288  0.1656
18049TIP3    H175638   3.644   3.341   2.933  0.0250 -0.0697 -0.4323
18049TIP3    H275639   3.580   3.332   3.070  0.9255  0.3942  0.0258
18050TIP3   OH275640   2.451   0.681  14.008 -0.9573  0.3855 -0.0628
18050TIP3    H175641   2.539   0.662  13.975 -1.8360 -2.4443 -1.0151
18050TIP3    H275642   2.463   0.757  14.065  2.2691 -0.5682  0.7055
18051TIP3   OH275643   3.741   0.939  13.488  0.3446 -0.5789  0.2292
18051TIP3    H175644   3.746   0.923  13.394  2.8781  0.4064  0.1164
18051TIP3    H275645   3.827   0.973  13.511 -0.0571 -1.2049  3.0064
18052TIP3   OH275646   1.377   3.982   2.358 -0.7496  0.0689  0.1067
18052TIP3    H175647   1.343   4.061   2.399  0.6989  0.7128  0.1280
18052TIP3    H275648   1.308   3.955   2.297 -2.3633 -0.1414  1.9386
18053TIP3   OH275649   1.490   1.419   5.415  0.2240  0.1497 -0.0559
18053TIP3    H175650   1.402   1.409   5.377 -0.4548  2.5205  0.7144
18053TIP3    H275651   1.492   1.355   5.486 -0.8011 -0.0953 -0.2262
18054TIP3   OH275652   1.677   5.616   3.070 -0.4194 -0.1569  0.4837
18054TIP3    H175653   1.614   5.688   3.078 -0.1091 -0.0395  2.4130
18054TIP3    H275654   1.622   5.538   3.061 -0.7581  0.2790 -1.9042
18055TIP3   OH275655   5.706   6.107  12.875 -0.2233 -0.5043 -0.9832
18055TIP3    H175656   5.635   6.096  12.938 -0.1505  1.3750 -0.5129
18055TIP3    H275657   5.784   6.078  12.921 -0.3665 -0.4138 -0.6789
18056TIP3   OH275658   3.827   4.120  13.066 -0.2691  0.4338  0.7784
18056TIP3    H175659   3.811   4.140  12.974  0.8440 -1.3900  0.1238
18056TIP3    H275660   3.908   4.166  13.087 -1.7088  2.7672  1.6060
18057TIP3   OH275661   5.011   5.409   3.554  0.0092 -0.0858 -0.0552
18057TIP3    H175662   4.978   5.387   3.467  0.4109 -0.6416 -0.0693
18057TIP3    H275663   5.106   5.412   3.544 -0.0110  1.5252 -0.0137
18058TIP3   OH275664   2.996   6.681  14.708 -0.2591 -0.3940  0.0620
18058TIP3    H175665   3.009   6.747  14.640  1.6402  0.2650  0.9789
18058TIP3    H275666   3.047   6.713  14.782  1.1423 -3.1001  0.4089
18059TIP3   OH275667   5.268   4.073  15.485 -0.4435  0.2309 -0.8901
18059TIP3    H175668   5.208   3.999  15.474 -1.9723  1.3416 -0.4286
18059TIP3    H275669   5.280   4.107  15.396  0.1251 -0.4304 -1.0800
18060TIP3   OH275670   5.402   5.581  12.267  0.3485  0.0896  0.4263
18060TIP3    H175671   5.380   5.510  12.327 -0.8946  1.1499  1.2799
18060TIP3    H275672   5.415   5.538  12.182 -1.8517 -1.0087  0.5821
18061TIP3   OH275673   1.506   1.557  10.139 -0.1072  0.0551 -0.5829
18061TIP3    H175674   1.544   1.622  10.198 -0.9385  1.1554 -1.2257
18061TIP3    H275675   1.549   1.475  10.164  0.0301  0.5998  1.1085
18062TIP3   OH275676   6.810   0.429  12.834 -0.2201  0.0992  0.3638
18062TIP3    H175677   6.871   0.456  12.902  0.2805  0.9768 -0.4208
18062TIP3    H275678   6.849   0.351  12.795  0.0657  0.2697  0.3103
18063TIP3   OH275679   5.843   0.144   2.401  0.1461  0.3594 -0.1344
18063TIP3    H175680   5.838   0.131   2.306  1.8440  2.2216 -0.5423
18063TIP3    H275681   5.934   0.168   2.417 -0.1798  0.3609  1.9386
18064TIP3   OH275682   4.503   3.228   6.560  0.6813 -0.8444 -0.3491
18064TIP3    H175683   4.556   3.214   6.639  0.3322  0.5436  0.1495
18064TIP3    H275684   4.531   3.313   6.527 -0.9243 -0.2749 -0.3120
18065TIP3   OH275685   2.965   2.842   3.213 -0.2581 -0.1589  0.4750
18065TIP3    H175686   3.000   2.760   3.178 -0.0041  0.1435  0.0119
18065TIP3    H275687   2.881   2.852   3.167  0.5219  0.7432 -0.8336
18066TIP3   OH275688   3.413   0.565   3.396 -0.0520 -0.0799  0.0939
18066TIP3    H175689   3.420   0.656   3.427  1.3998  0.1377 -0.7817
18066TIP3    H275690   3.339   0.529   3.445 -1.0957  1.7713 -0.0418
18067TIP3   OH275691   2.440   1.274   6.467  0.1751 -0.1690 -0.5420
18067TIP3    H175692   2.400   1.356   6.496 -0.4814 -0.8566  0.5557
18067TIP3    H275693   2.386   1.205   6.506  2.6598 -1.1547  1.4494
18068TIP3   OH275694   2.744   2.923   1.253 -0.4599  0.2611  0.0741
18068TIP3    H175695   2.678   2.926   1.183  0.1127  1.1714 -0.4458
18068TIP3    H275696   2.773   3.014   1.262  0.1334  0.0030  0.8712
18069TIP3   OH275697   1.335   1.808   4.150  0.2105 -0.1857 -0.2193
18069TIP3    H175698   1.284   1.783   4.228 -2.2048 -0.9862 -1.9338
18069TIP3    H275699   1.376   1.891   4.173 -2.3071  0.7736  1.1539
18070TIP3   OH275700   4.396   1.324  15.815 -0.1573  0.5118  0.4495
18070TIP3    H175701   4.458   1.299  15.747 -2.0209  0.4388 -1.2880
18070TIP3    H275702   4.334   1.252  15.821 -0.3153  0.7241  1.9169
18071TIP3   OH275703   1.681   4.035  14.207 -0.3504 -0.3874 -0.1501
18071TIP3    H175704   1.674   3.984  14.127 -0.3650  0.4759 -0.7150
18071TIP3    H275705   1.765   4.009  14.245  0.5833  0.5936 -1.4544
18072TIP3   OH275706   6.368   4.020  10.930  0.6847 -0.5328  0.3865
18072TIP3    H175707   6.451   4.059  10.902  0.3591 -0.9330 -1.2247
18072TIP3    H275708   6.342   4.072  11.006  1.6022  0.6503 -0.0780
18073TIP3   OH275709   1.129   4.486  14.558 -0.4830 -0.2675  0.3862
18073TIP3    H175710   1.155   4.556  14.498  0.0300 -0.5470  0.2718
18073TIP3    H275711   1.068   4.432  14.508 -0.0419 -0.5115  0.1039
18074TIP3   OH275712   4.433   1.119   1.252 -0.0732  0.1125  0.0117
18074TIP3    H175713   4.339   1.125   1.232  0.0266 -0.8773 -0.7930
18074TIP3    H275714   4.474   1.179   1.190 -0.3098  2.1271  1.6986
18075TIP3   OH275715   1.641   4.835   1.658 -0.1447  0.0219  0.0327
18075TIP3    H175716   1.578   4.871   1.595 -1.6608 -1.2407  0.7503
18075TIP3    H275717   1.588   4.783   1.718  1.2743  0.8917  2.1897
18076TIP3   OH275718   1.399   0.373   5.167  0.1775 -0.0655 -0.1182
18076TIP3    H175719   1.416   0.282   5.141 -0.6393 -0.9035  2.0701
18076TIP3    H275720   1.321   0.398   5.116 -0.4972 -1.1242  0.3705
18077TIP3   OH275721   5.834   6.682   1.467 -0.1415 -0.0212 -0.3369
18077TIP3    H175722   5.768   6.665   1.534 -1.2175 -0.4678 -1.4789
18077TIP3    H275723   5.900   6.614   1.480 -0.5522 -0.3528  0.0050
18078TIP3   OH275724   0.609   6.634   4.338 -0.2502 -0.7324 -0.5021
18078TIP3    H175725   0.575   6.549   4.365 -2.0136 -0.1256 -0.6885
18078TIP3    H275726   0.580   6.644   4.247 -0.3958  0.2264 -0.3596
18079TIP3   OH275727   2.443   4.175   4.335 -0.2103 -0.0431 -0.1205
18079TIP3    H175728   2.509   4.112   4.303  1.0784  1.0040  0.3990
18079TIP3    H275729   2.491   4.257   4.342 -1.9157  1.0696 -0.9653
18080TIP3   OH275730   5.402   5.795  15.268 -0.0173 -0.0450 -0.1491
18080TIP3    H175731   5.351   5.876  15.276  0.9536  0.6349 -0.5827
18080TIP3    H275732   5.492   5.821  15.287  0.1239 -1.3196  1.0729
18081TIP3   OH275733   5.882   3.227   2.849  0.2242 -0.0671 -0.0385
18081TIP3    H175734   5.974   3.205   2.835 -0.0329 -0.1421 -1.8124
18081TIP3    H275735   5.871   3.313   2.810 -0.2846  0.3258  0.9315
18082TIP3   OH275736   5.656   0.976   3.389  0.5181 -0.4312 -0.7807
18082TIP3    H175737   5.567   0.947   3.411  0.7466  0.4031  1.4797
18082TIP3    H275738   5.713   0.920   3.441  1.2739 -0.2089 -1.3551
18083TIP3   OH275739   6.407   1.053   2.941 -0.2821 -0.1271  0.3430
18083TIP3    H175740   6.341   1.026   3.005  0.0493 -0.5519  0.5155
18083TIP3    H275741   6.371   1.027   2.856  0.2326 -1.5784  0.5430
18084TIP3   OH275742   2.855   5.125   2.417  0.5156 -0.2490 -0.1712
18084TIP3    H175743   2.888   5.199   2.467  0.7262 -0.1623 -0.4355
18084TIP3    H275744   2.837   5.057   2.482 -1.8027  0.7748  0.3589
18085TIP3   OH275745   0.930   5.529  13.181 -0.1000 -0.6571 -0.3703
18085TIP3    H175746   0.846   5.575  13.174  0.5174  0.2579 -2.3490
18085TIP3    H275747   0.976   5.574  13.252 -0.6780 -0.1322 -0.3219
18086TIP3   OH275748   6.759   1.704   5.448  0.0451 -0.1584  0.2406
18086TIP3    H175749   6.712   1.638   5.396  1.5079 -1.5545  0.5876
18086TIP3    H275750   6.703   1.781   5.446 -1.5536 -1.2849 -0.5325
18087TIP3   OH275751   3.854   1.408  13.008  0.0890 -0.8570 -0.6880
18087TIP3    H175752   3.798   1.335  13.035  0.9858 -1.2296  0.2645
18087TIP3    H275753   3.871   1.456  13.089  1.3660 -0.9242 -0.8970
18088TIP3   OH275754   0.166   4.386  16.270  0.2709 -0.3162 -0.1257
18088TIP3    H175755   0.119   4.347  16.196  0.5242  0.2700 -0.6011
18088TIP3    H275756   0.251   4.341  16.270  0.8070  0.6476 -1.0669
18089TIP3   OH275757   1.190   5.562   0.289  0.3089 -0.3429 -0.0137
18089TIP3    H175758   1.282   5.587   0.298  0.2753  0.1673 -0.9349
18089TIP3    H275759   1.191   5.469   0.268  0.5265 -0.7328  1.5923
18090TIP3   OH275760   0.807   1.134   0.332  0.5408 -0.5158  0.4239
18090TIP3    H175761   0.795   1.041   0.352  2.5149 -0.9266 -0.1605
18090TIP3    H275762   0.786   1.142   0.239 -2.9405  0.3385  1.1093
18091TIP3   OH275763   6.476   0.755   0.235 -0.3386 -0.1098  0.3973
18091TIP3    H175764   6.408   0.819   0.257  0.4647  1.0288 -0.2872
18091TIP3    H275765   6.518   0.791   0.156  2.3273  0.3025  1.8638
18092TIP3   OH275766   0.188   1.513   4.966 -0.4821  0.5536  0.1330
18092TIP3    H175767   0.154   1.451   5.031 -0.8925 -0.1497 -0.7307
18092TIP3    H275768   0.112   1.562   4.937 -0.4567  0.2752 -0.4272
18093TIP3   OH275769   6.804   0.838  12.507 -0.5179  0.0136  0.1844
18093TIP3    H175770   6.873   0.785  12.547 -0.3629  0.8898  1.1194
18093TIP3    H275771   6.821   0.832  12.413  1.3558  0.8817  0.4185
18094TIP3   OH275772   2.188   2.574  13.964  0.5308 -0.4664 -0.1229
18094TIP3    H175773   2.160   2.585  13.873  2.1873 -0.9929 -0.7472
18094TIP3    H275774   2.118   2.524  14.005 -1.0117  1.1609 -0.6493
18095TIP3   OH275775   1.237   2.889  12.778  0.4042  0.1917 -0.1076
18095TIP3    H175776   1.211   2.877  12.686 -1.1545 -1.2644  0.4811
18095TIP3    H275777   1.154   2.889  12.826  1.3040 -1.5512  1.5555
18096TIP3   OH275778   5.566   1.513  15.013  0.3918 -1.2106 -0.0004
18096TIP3    H175779   5.559   1.565  15.093 -2.4619  2.5416 -2.3730
18096TIP3    H275780   5.494   1.449  15.021 -0.7180 -0.0085 -0.0472
18097TIP3   OH275781   4.264   6.235   6.597  0.0519  0.3972  0.5566
18097TIP3    H175782   4.285   6.308   6.654 -0.7269  1.7572 -0.8116
18097TIP3    H275783   4.211   6.176   6.651 -0.5094  1.5549  1.3064
18098TIP3   OH275784   3.841   5.069  13.587 -0.3568  0.2145 -0.3231
18098TIP3    H175785   3.829   5.012  13.512  0.3987  1.1010 -1.1478
18098TIP3    H275786   3.927   5.044  13.623 -0.9209 -0.5306  0.5582
18099TIP3   OH275787   2.447   4.469   1.193 -0.4921 -0.0125 -0.3020
18099TIP3    H175788   2.397   4.470   1.274 -0.1317  1.1360 -0.0898
18099TIP3    H275789   2.395   4.522   1.132  0.3643  1.0609 -0.1258
18100TIP3   OH275790   5.607   5.524  13.893 -0.2493 -0.0328  0.3625
18100TIP3    H175791   5.612   5.454  13.828  1.6322 -1.8564  2.3501
18100TIP3    H275792   5.665   5.593  13.858 -3.1836  1.3503 -2.2970
18101TIP3   OH275793   6.032   4.989  14.990  0.1876  0.3900  0.1517
18101TIP3    H175794   6.120   4.964  15.019 -1.1505 -1.6753  2.6842
18101TIP3    H275795   6.010   4.925  14.923  0.2453  0.3938  0.1284
18102TIP3   OH275796   3.955   4.406  15.385  0.2451  0.4037 -0.1693
18102TIP3    H175797   3.868   4.421  15.421  1.2732  2.4135  1.7999
18102TIP3    H275798   3.995   4.341  15.443  0.8839  1.4075  0.5576
18103TIP3   OH275799   4.010   1.807   1.035  0.0456 -0.2459 -0.2603
18103TIP3    H175800   4.100   1.825   1.008 -0.6380 -0.1226 -2.6520
18103TIP3    H275801   4.004   1.846   1.122  2.2964 -0.2957 -0.0090
18104TIP3   OH275802   1.285   2.842   2.934 -0.3788 -0.8743  0.2514
18104TIP3    H175803   1.363   2.827   2.987  0.4963 -1.0298 -1.0408
18104TIP3    H275804   1.301   2.926   2.891 -0.5483 -1.2708 -0.6197
18105TIP3   OH275805   2.566   1.979   0.581  0.1493 -0.0726 -0.0755
18105TIP3    H175806   2.567   1.960   0.487 -0.4837 -0.2752 -0.0451
18105TIP3    H275807   2.624   2.055   0.591 -1.3295  1.2016 -0.9109
18106TIP3   OH275808   3.088   6.346   3.144  0.0021 -0.4682 -0.4636
18106TIP3    H175809   3.017   6.373   3.203  0.6038 -0.0669  0.0908
18106TIP3    H275810   3.146   6.422   3.141  1.9186 -1.7451  1.3935
18107TIP3   OH275811   4.044   0.523  16.983 -0.1241  0.3457 -0.9105
18107TIP3    H175812   4.007   0.571  16.909  1.2718  4.3364  0.7027
18107TIP3    H275813   4.138   0.541  16.979  0.1941 -0.6478  0.9505
18108TIP3   OH275814   2.225   1.155  13.018  0.4086  0.3632 -0.3394
18108TIP3    H175815   2.168   1.186  12.947 -1.3277  1.5016  1.4625
18108TIP3    H275816   2.287   1.227  13.032 -0.0918  0.7020  0.1600
18109TIP3   OH275817   0.487   0.556  12.962 -0.8505 -0.2293  0.4292
18109TIP3    H175818   0.474   0.566  13.056 -0.6143 -2.2270  0.7264
18109TIP3    H275819   0.524   0.468  12.953 -0.3100  0.1585 -1.4911
18110TIP3   OH275820   4.122   1.763   3.872 -0.4510  0.0508  0.7636
18110TIP3    H175821   4.150   1.672   3.869  0.1608  0.2264  0.9017
18110TIP3    H275822   4.115   1.789   3.780  2.0971  0.6467  0.6492
18111TIP3   OH275823   0.800   3.474   6.138  0.5950 -0.2818 -0.4102
18111TIP3    H175824   0.890   3.502   6.119 -0.0151  1.7303 -0.6092
18111TIP3    H275825   0.753   3.556   6.153 -1.5584 -1.1609 -1.9152
18112TIP3   OH275826   1.261   3.400  13.029  0.2451 -0.2680  0.3807
18112TIP3    H175827   1.352   3.389  13.001 -0.4347 -0.7878 -1.8355
18112TIP3    H275828   1.239   3.489  13.002 -0.1315 -0.4341  0.1258
18113TIP3   OH275829   0.259   5.927   3.480  0.2930  0.2409 -0.1676
18113TIP3    H175830   0.339   5.884   3.450  0.0973  0.3844 -0.9056
18113TIP3    H275831   0.189   5.865   3.458  0.0366  0.8124 -1.0036
18114TIP3   OH275832   3.923   4.485   4.086  0.3182  0.0505 -0.6274
18114TIP3    H175833   3.927   4.580   4.075  0.4195  0.1603  0.2600
18114TIP3    H275834   3.871   4.455   4.012 -0.4238  0.8855 -0.4653
18115TIP3   OH275835   3.058   6.742   5.663 -0.3722  0.0050  0.6598
18115TIP3    H175836   3.130   6.729   5.725 -0.4233  0.2939  0.7785
18115TIP3    H275837   3.010   6.817   5.697 -1.5701 -1.0445  1.3831
18116TIP3   OH275838   4.033   3.592  16.562 -0.5295  0.2895 -0.0397
18116TIP3    H175839   4.029   3.577  16.467 -2.1510  2.9117 -0.4807
18116TIP3    H275840   4.127   3.604  16.579 -0.2875  0.9335 -1.5645
18117TIP3   OH275841   4.533   6.689   4.716 -0.0450 -0.1897  0.2698
18117TIP3    H175842   4.587   6.677   4.639 -0.4051 -1.9274  0.2521
18117TIP3    H275843   4.445   6.706   4.682  0.0360  0.3537  0.3129
18118TIP3   OH275844   0.557   2.482   1.797 -0.1028 -0.5506 -0.0851
18118TIP3    H175845   0.646   2.515   1.809  0.2039 -0.4749 -2.2551
18118TIP3    H275846   0.537   2.437   1.879  2.1878 -1.1798  0.1951
18119TIP3   OH275847   0.662   1.486  12.308 -0.1019  0.2468 -0.2898
18119TIP3    H175848   0.593   1.465  12.245 -0.5857  0.3334  0.2065
18119TIP3    H275849   0.664   1.410  12.367 -3.5588  2.4050  3.0481
18120TIP3   OH275850   4.028   4.552  13.309  0.2447 -0.5942 -0.2204
18120TIP3    H175851   4.070   4.590  13.386 -2.7001 -1.3325  1.9427
18120TIP3    H275852   3.934   4.560  13.327 -0.6360 -0.2106 -4.0892
18121TIP3   OH275853   6.356   4.413   4.010 -0.2423  0.0949 -0.3615
18121TIP3    H175854   6.284   4.473   4.030 -0.8063 -0.6917 -0.0121
18121TIP3    H275855   6.328   4.329   4.044  1.1373 -0.0872  0.3774
18122TIP3   OH275856   4.243   2.393  12.485  0.0381 -0.4713  0.0462
18122TIP3    H175857   4.287   2.446  12.419  1.0132  1.0042  1.7708
18122TIP3    H275858   4.201   2.458  12.542 -0.0545 -1.6318  1.3369
18123TIP3   OH275859   2.303   1.647  11.620  0.7180  0.5675 -0.3389
18123TIP3    H175860   2.272   1.558  11.600 -0.7542  1.3057 -1.5646
18123TIP3    H275861   2.237   1.704  11.581  1.3731  2.2116  0.8604
18124TIP3   OH275862   1.909   3.292  16.761 -0.4381 -0.2437 -0.1835
18124TIP3    H175863   1.921   3.271  16.669 -0.9772  0.0641 -0.3290
18124TIP3    H275864   1.859   3.219  16.796  0.8973 -1.0137  0.1821
18125TIP3   OH275865   5.755   1.353   3.351 -0.2958  0.6639  0.5730
18125TIP3    H175866   5.809   1.291   3.401  1.5564 -1.0845 -3.2101
18125TIP3    H275867   5.810   1.431   3.343  0.3384  0.1287 -0.4776
18126TIP3   OH275868   2.336   0.638   0.344  0.0994 -0.3542  0.2318
18126TIP3    H175869   2.245   0.654   0.368  0.5999  0.8586  1.4212
18126TIP3    H275870   2.375   0.599   0.422  1.1133  1.1930  0.5477
18127TIP3   OH275871   3.438   4.601  13.048  0.1610  0.4855 -0.1579
18127TIP3    H175872   3.390   4.615  12.967  0.3561  1.1109 -0.1686
18127TIP3    H275873   3.427   4.508  13.066 -0.5780  0.5069 -0.4590
18128TIP3   OH275874   4.808   1.860   1.190 -0.3007 -0.2454  0.3444
18128TIP3    H175875   4.894   1.862   1.147 -0.6588 -0.5092 -0.4025
18128TIP3    H275876   4.785   1.767   1.194 -0.3716 -0.2059  0.9134
18129TIP3   OH275877   6.816   0.087  15.325 -0.5331  0.2573  0.5405
18129TIP3    H175878   6.744   0.091  15.263 -0.4324  1.0956  0.4671
18129TIP3    H275879   6.787   0.024  15.391 -0.0668 -1.6909 -1.0393
18130TIP3   OH275880   0.158   5.142   1.969  0.0991 -0.6943  0.0927
18130TIP3    H175881   0.135   5.201   1.896  0.4153  0.1400  0.6586
18130TIP3    H275882   0.097   5.165   2.039  0.5646 -0.6826  0.4984
18131TIP3   OH275883   5.292   2.357  16.193 -0.1872  0.0408 -0.0666
18131TIP3    H175884   5.288   2.360  16.098  1.0424  0.3949 -0.1169
18131TIP3    H275885   5.311   2.266  16.214  0.5533  0.1527 -0.2182
18132TIP3   OH275886   6.142   4.865   1.796  0.1480  0.1534 -0.1264
18132TIP3    H175887   6.122   4.817   1.877 -0.1792 -0.0156 -0.3089
18132TIP3    H275888   6.155   4.797   1.730  0.3283  0.2954 -0.2405
18133TIP3   OH275889   3.157   4.810  15.737 -0.4524 -0.5544 -0.1116
18133TIP3    H175890   3.173   4.734  15.792 -1.6517 -0.1246  0.8764
18133TIP3    H275891   3.165   4.885  15.795  1.6231  0.1940 -1.2635
18134TIP3   OH275892   0.529   3.880   3.796  0.0759 -0.0063  0.1373
18134TIP3    H175893   0.533   3.946   3.727 -1.2119 -0.0417  0.0128
18134TIP3    H275894   0.617   3.843   3.799  0.9491  1.9384  0.4374
18135TIP3   OH275895   4.463   2.331  16.963  0.1863  0.2011  0.2530
18135TIP3    H175896   4.445   2.382  16.884 -0.8090 -1.3432 -0.5617
18135TIP3    H275897   4.500   2.249  16.931  0.5960 -0.1121  1.4588
18136TIP3   OH275898   5.262   5.363   4.057  0.0816 -0.0949  0.4491
18136TIP3    H175899   5.223   5.449   4.038 -1.5551 -1.0971 -1.0842
18136TIP3    H275900   5.227   5.340   4.143 -0.2691  0.3508  0.4342
18137TIP3   OH275901   0.574   3.551   0.487 -0.3451  0.0256  0.0317
18137TIP3    H175902   0.545   3.530   0.576 -2.1736  1.2222 -0.2356
18137TIP3    H275903   0.515   3.502   0.431 -0.5587  0.9200 -0.5355
18138TIP3   OH275904   3.900   2.497  10.312 -0.1251  0.0219  0.0862
18138TIP3    H175905   3.995   2.502  10.306 -0.2533  0.9614 -2.4414
18138TIP3    H275906   3.883   2.422  10.368  2.1251 -1.9350 -1.6456
18139TIP3   OH275907   5.743   6.302   5.627  0.2245  0.0150 -0.4511
18139TIP3    H175908   5.685   6.270   5.695 -0.5675  0.8893 -0.7020
18139TIP3    H275909   5.764   6.224   5.575  1.5460 -0.8455  1.2533
18140TIP3   OH275910   2.219   3.151   0.286 -0.2480  0.1625 -0.1246
18140TIP3    H175911   2.267   3.181   0.209 -1.5421 -0.1251 -1.0808
18140TIP3    H275912   2.129   3.180   0.271 -0.6920 -0.6514  0.8653
18141TIP3   OH275913   4.406   2.707  16.813 -0.3448 -0.3451 -0.4095
18141TIP3    H175914   4.410   2.775  16.746  1.0484  1.0333  0.9622
18141TIP3    H275915   4.371   2.752  16.890  0.5879 -1.1702  0.5296
18142TIP3   OH275916   0.722   1.584   3.387 -0.7454  0.4678  0.4444
18142TIP3    H175917   0.719   1.645   3.461  0.0338  0.1080  0.7793
18142TIP3    H275918   0.739   1.640   3.312  1.2938  0.5560  0.9246
18143TIP3   OH275919   6.303   0.899   5.652  0.2666  0.2969 -0.3263
18143TIP3    H175920   6.251   0.826   5.618  0.4035  0.4850 -0.9536
18143TIP3    H275921   6.324   0.874   5.742 -0.4505 -0.0248 -0.2419
18144TIP3   OH275922   6.452   4.560  11.736 -0.0446 -0.5374 -0.5065
18144TIP3    H175923   6.487   4.613  11.807  0.7344 -1.3494 -0.2717
18144TIP3    H275924   6.428   4.624  11.669  1.2555  0.1007 -0.3965
18145TIP3   OH275925   3.080   6.837  12.985  0.3220  0.1427 -0.3396
18145TIP3    H175926   3.044   6.765  13.036  0.7200 -0.0606 -0.3379
18145TIP3    H275927   3.134   6.886  13.047  2.4724 -1.2614 -0.9709
18146TIP3   OH275928   4.728   3.693  15.273 -0.1421  0.2612 -0.1758
18146TIP3    H175929   4.667   3.677  15.345  1.0620 -0.0625  0.8095
18146TIP3    H275930   4.721   3.616  15.217 -0.6232  0.2342 -0.0832
18147TIP3   OH275931   4.727   4.999  15.515 -0.1573 -0.2518 -0.3862
18147TIP3    H175932   4.823   4.998  15.517 -0.1284 -1.7704 -1.4916
18147TIP3    H275933   4.705   5.092  15.524  1.4665  0.3265 -1.7881
18148TIP3   OH275934   1.780   2.228  12.994  0.4706 -0.7451 -0.7702
18148TIP3    H175935   1.773   2.321  12.974  0.5596 -1.0993 -2.6364
18148TIP3    H275936   1.767   2.223  13.089  0.5375  1.1579 -0.6153
18149TIP3   OH275937   5.856   5.759   0.989  0.0785  0.2222 -0.2420
18149TIP3    H175938   5.793   5.746   0.918  1.1302 -0.7120 -1.0375
18149TIP3    H275939   5.861   5.854   0.999  0.0167  0.3775 -1.5136
18150TIP3   OH275940   4.988   0.158   4.001 -0.0884 -0.2653 -0.6019
18150TIP3    H175941   4.906   0.121   3.969 -0.7937  2.0981 -1.8008
18150TIP3    H275942   4.963   0.205   4.081  0.5430 -1.2877  0.2192
18151TIP3   OH275943   0.018   4.167   4.284  0.3687  0.1454 -0.3670
18151TIP3    H175944   0.113   4.165   4.293  0.3266 -2.1189  0.3136
18151TIP3    H275945   0.001   4.231   4.215  2.4557 -0.1458 -1.2178
18152TIP3   OH275946   6.718   2.787   2.536  0.2048  1.1519  0.3636
18152TIP3    H175947   6.795   2.757   2.583  0.6615 -0.7542 -1.4702
18152TIP3    H275948   6.739   2.876   2.509  1.5302  0.8621  0.3861
18153TIP3   OH275949   1.400   3.951  13.497  0.0366 -0.6141  0.7545
18153TIP3    H175950   1.469   3.897  13.535 -0.2493 -0.7073  1.1512
18153TIP3    H275951   1.441   4.035  13.480  0.3110 -0.7455  0.7685
18154TIP3   OH275952   0.311   0.202  14.354 -0.1082 -0.0850 -0.6825
18154TIP3    H175953   0.338   0.191  14.263  0.2968  1.4993 -0.7847
18154TIP3    H275954   0.245   0.272  14.351 -2.3124 -2.0269 -0.0957
18155TIP3   OH275955   4.149   1.612  14.744 -0.1011  0.1204 -0.4595
18155TIP3    H175956   4.117   1.654  14.824  1.3733  0.1693  0.1496
18155TIP3    H275957   4.073   1.568  14.707 -0.6887 -0.4782  1.3540
18156TIP3   OH275958   6.603   4.325  11.679  0.1549 -0.2733  0.3008
18156TIP3    H175959   6.592   4.377  11.758  1.0069  0.2715  0.0752
18156TIP3    H275960   6.537   4.359  11.619 -1.7162 -1.8779  1.3237
18157TIP3   OH275961   1.099   3.288  15.881 -0.0186 -0.1947  0.1516
18157TIP3    H175962   1.036   3.321  15.946 -1.3902 -0.5696 -0.9228
18157TIP3    H275963   1.131   3.206  15.918 -1.7238 -1.0401 -0.1395
18158TIP3   OH275964   4.874   6.844  10.808 -0.3722  0.2056  0.2364
18158TIP3    H175965   4.852   6.937  10.799  0.8683  0.6975  1.7283
18158TIP3    H275966   4.891   6.815  10.718 -0.1108  1.6192 -0.2089
18159TIP3   OH275967   4.001   4.651  11.922  0.0481  0.9311  0.7446
18159TIP3    H175968   3.974   4.743  11.922 -1.0406  0.6245  0.4936
18159TIP3    H275969   4.049   4.640  11.840 -0.6737  1.0410  0.2988
18160TIP3   OH275970   4.290   4.999   3.422 -0.0463  0.5172  0.1119
18160TIP3    H175971   4.215   4.945   3.401 -0.0542 -0.4521  2.3664
18160TIP3    H275972   4.355   4.977   3.356 -0.5490 -1.2176  0.1682
18161TIP3   OH275973   0.228   2.524   3.261 -0.0058 -0.1769  0.0244
18161TIP3    H175974   0.192   2.566   3.339  0.9456 -1.1773  1.0524
18161TIP3    H275975   0.177   2.560   3.189 -2.8227 -1.1996  1.3218
18162TIP3   OH275976   1.346   4.898  13.997 -0.1667  0.0954  0.8120
18162TIP3    H175977   1.306   4.920  13.913 -0.1658 -0.5862  0.6274
18162TIP3    H275978   1.353   4.802  13.997  1.1170  0.1589  0.9919
18163TIP3   OH275979   4.223   1.905  16.147  0.2522  0.1226 -0.0739
18163TIP3    H175980   4.303   1.853  16.154  0.3719  0.3928  0.6160
18163TIP3    H275981   4.161   1.847  16.102  0.3475 -0.6815  0.7909
18164TIP3   OH275982   0.544   4.585  14.034  0.3057  0.2066  0.4024
18164TIP3    H175983   0.562   4.492  14.026 -2.3112 -0.3419  0.1736
18164TIP3    H275984   0.544   4.618  13.944  0.7118  0.3371  0.4471
18165TIP3   OH275985   3.738   6.492  13.225  0.1493  0.3117 -0.3611
18165TIP3    H175986   3.824   6.467  13.192 -1.0909  0.9256 -4.6440
18165TIP3    H275987   3.724   6.581  13.192 -1.3514  1.1133  2.0946
18166TIP3   OH275988   5.066   1.124  11.002  0.0643 -0.1971  0.5423
18166TIP3    H175989   5.016   1.189  11.052 -1.2823 -1.1160  0.4440
18166TIP3    H275990   5.010   1.046  11.002  0.4550 -0.5260 -1.5923
18167TIP3   OH275991   0.217   6.204   3.406  0.8032 -0.2282  0.1150
18167TIP3    H175992   0.243   6.236   3.493 -0.9194 -0.2044  0.6653
18167TIP3    H275993   0.229   6.109   3.411  0.9313 -0.2020  0.3077
18168TIP3   OH275994   6.290   5.839   0.749 -0.3190 -0.0490  0.4181
18168TIP3    H175995   6.305   5.757   0.702  0.1355 -0.2507  0.9041
18168TIP3    H275996   6.316   5.820   0.839 -0.1023  0.6637  0.5117
18169TIP3   OH275997   3.920   4.894  13.117  0.4302 -0.1827 -0.2373
18169TIP3    H175998   3.977   4.942  13.057 -2.4986  0.9049 -2.3736
18169TIP3    H275999   3.943   4.802  13.103  2.1242  0.2440 -0.4628
18170TIP3   OH276000   2.796   4.288  14.940 -0.0103 -0.6709  0.0379
18170TIP3    H176001   2.825   4.355  14.879  2.0839 -0.4098  1.2373
18170TIP3    H276002   2.744   4.228  14.886  1.4768 -0.2795 -1.9434
18171TIP3   OH276003   2.497   2.443  12.524  0.2160 -0.2257  0.7892
18171TIP3    H176004   2.479   2.537  12.519 -1.1866 -0.5156 -0.7730
18171TIP3    H276005   2.430   2.403  12.467 -0.3823 -2.3328  2.8235
18172TIP3   OH276006   1.608   5.082   3.115 -0.0307 -0.1234 -0.2202
18172TIP3    H176007   1.663   5.100   3.191 -1.2114  0.6914  0.4710
18172TIP3    H276008   1.626   4.991   3.094  1.1355 -0.0463  0.3433
18173TIP3   OH276009   1.221   1.941   0.651  0.3185  0.4949  0.2868
18173TIP3    H176010   1.148   1.881   0.663  0.1120  0.8708  0.9920
18173TIP3    H276011   1.297   1.894   0.687 -0.0334  1.0369  1.8318
18174TIP3   OH276012   6.401   2.358  15.183  0.2333 -0.1971 -0.0070
18174TIP3    H176013   6.475   2.408  15.216  0.7212 -0.4921 -0.6194
18174TIP3    H276014   6.394   2.383  15.091 -1.5696  1.1772  0.4448
18175TIP3   OH276015   2.866   4.840  16.121 -0.3686  0.2725  0.4998
18175TIP3    H176016   2.887   4.926  16.157 -1.8261  1.1870 -0.7214
18175TIP3    H276017   2.771   4.836  16.122 -0.3557 -0.8392 -0.5769
18176TIP3   OH276018   1.708   1.360  12.137 -0.6853 -0.5061 -0.0860
18176TIP3    H176019   1.700   1.340  12.230  0.3218  1.7875  0.5670
18176TIP3    H276020   1.711   1.274  12.094 -0.7346 -1.6302  2.0199
18177TIP3   OH276021   6.232   4.031  14.805  0.0725  0.0960  0.2555
18177TIP3    H176022   6.173   4.070  14.741  0.4064  0.7594  0.3413
18177TIP3    H276023   6.182   4.029  14.886  0.1399  0.6110  0.3162
18178TIP3   OH276024   4.639   3.961  16.999  0.4318  0.2639 -0.6759
18178TIP3    H176025   4.655   3.999  16.912 -2.6629  2.5260 -0.4183
18178TIP3    H276026   4.566   3.900  16.985  0.0122  0.5344  0.2684
18179TIP3   OH276027   1.717   6.326   1.061  0.8197  0.3715  0.1890
18179TIP3    H176028   1.794   6.342   1.114  1.2962  0.0429 -0.3941
18179TIP3    H276029   1.750   6.283   0.982  0.1206  0.7736 -0.3403
18180TIP3   OH276030   3.675   0.012   0.657 -0.2685 -0.0957  0.1846
18180TIP3    H176031   3.765  -0.003   0.685 -0.1548 -1.5600 -0.9042
18180TIP3    H276032   3.659   0.104   0.678  0.7268 -0.3687  2.4155
18181TIP3   OH276033   1.552   1.971  14.668 -0.3437 -0.7651  0.2873
18181TIP3    H176034   1.562   1.947  14.760 -1.8811 -2.0032  0.1719
18181TIP3    H276035   1.612   1.912  14.621 -0.7813 -1.2950  0.3790
18182TIP3   OH276036   0.165   3.673   6.189 -0.2605 -0.2146 -0.4432
18182TIP3    H176037   0.253   3.653   6.223 -1.6524 -1.6342  2.7537
18182TIP3    H276038   0.148   3.603   6.126  0.5511 -0.5087 -0.3521
18183TIP3   OH276039   2.819   4.828  15.216 -0.5566  1.0647  1.0239
18183TIP3    H176040   2.910   4.814  15.191 -0.6436  1.5834  0.3796
18183TIP3    H276041   2.774   4.748  15.191 -0.2055  0.6231  1.7628
18184TIP3   OH276042   3.338   6.073   5.677 -0.0776 -0.1298  0.1646
18184TIP3    H176043   3.245   6.080   5.699 -0.0130  0.9026  0.1699
18184TIP3    H276044   3.376   6.021   5.747 -0.5197  0.1034  0.5854
18185TIP3   OH276045   6.407   6.210   0.985  0.6955 -0.6267 -0.4847
18185TIP3    H176046   6.342   6.167   1.040  0.0322  1.1814  0.2103
18185TIP3    H276047   6.361   6.228   0.903  0.5003  0.1182 -0.2128
18186TIP3   OH276048   1.503   0.906   1.804  0.3478 -0.1489 -0.1103
18186TIP3    H176049   1.592   0.910   1.840  0.5600 -1.9318 -0.3185
18186TIP3    H276050   1.463   0.831   1.848 -0.6714 -0.0366 -0.8262
18187TIP3   OH276051   0.619   4.336  13.967 -0.0633  0.1323  0.1496
18187TIP3    H176052   0.655   4.365  13.883 -1.1407  1.7357  0.1993
18187TIP3    H276053   0.556   4.268  13.945 -1.7498  1.8461 -0.5826
18188TIP3   OH276054   5.501   4.874   0.966  0.1313  0.3072 -0.1562
18188TIP3    H176055   5.556   4.952   0.954 -0.3814  0.4884 -1.5137
18188TIP3    H276056   5.412   4.907   0.968 -0.0437 -0.1678  0.1323
18189TIP3   OH276057   5.452   4.476   1.976 -0.0799 -0.4146  0.5718
18189TIP3    H176058   5.387   4.435   1.919  1.1650 -0.6263 -0.7702
18189TIP3    H276059   5.448   4.427   2.058 -0.6826 -1.2705  0.0405
18190TIP3   OH276060   2.628   2.609  15.962  0.2429 -0.6527  0.5169
18190TIP3    H176061   2.583   2.590  16.044 -0.8287 -0.3820  0.0017
18190TIP3    H276062   2.583   2.556  15.896 -0.6709  1.1169 -0.3597
18191TIP3   OH276063   5.476   0.653  16.770  0.3374  0.2144 -0.1708
18191TIP3    H176064   5.505   0.715  16.838  1.4850  0.8910 -1.2417
18191TIP3    H276065   5.416   0.594  16.816  0.4499  1.1471  1.2458
18192TIP3   OH276066   6.489   2.122  11.584  0.0324 -0.6262  0.2033
18192TIP3    H176067   6.428   2.111  11.511  0.7526 -0.5666 -0.4181
18192TIP3    H276068   6.501   2.034  11.620  0.7611 -0.8874 -0.6504
18193TIP3   OH276069   2.291   1.300  12.613 -0.5395 -0.3028 -0.1884
18193TIP3    H176070   2.338   1.362  12.668 -1.8137 -0.0343  0.6471
18193TIP3    H276071   2.356   1.267  12.552 -0.0026  2.6472 -1.3611
18194TIP3   OH276072   0.954   2.781  14.816 -0.4096 -0.2935 -0.5502
18194TIP3    H176073   1.008   2.838  14.871 -0.7289 -0.7633  0.2583
18194TIP3    H276074   1.014   2.710  14.789  0.3968  1.1030 -2.7284
18195TIP3   OH276075   5.983   0.478  12.159 -0.3808 -0.6144 -0.3726
18195TIP3    H176076   5.998   0.387  12.184  0.0249 -0.3784  0.2477
18195TIP3    H276077   6.039   0.529  12.217  0.9009 -0.0719 -1.9947
18196TIP3   OH276078   3.547   2.849  16.553  0.0593 -0.4966  0.5438
18196TIP3    H176079   3.555   2.814  16.642 -1.5067  0.0339  0.9193
18196TIP3    H276080   3.536   2.771  16.498  0.4603 -0.7970  0.8863
18197TIP3   OH276081   1.780   6.816  11.405 -0.0347  0.1819 -0.2776
18197TIP3    H176082   1.701   6.825  11.459  0.2392 -2.0544  0.6290
18197TIP3    H276083   1.851   6.805  11.469  0.8105  0.8409 -1.0898
18198TIP3   OH276084   4.215   5.162   6.247  0.5669 -0.2100 -0.4327
18198TIP3    H176085   4.299   5.142   6.206  1.0558  2.7666 -1.1334
18198TIP3    H276086   4.154   5.172   6.174 -0.1925 -1.3555  0.0173
18199TIP3   OH276087   5.534   2.257   1.188 -0.3282  0.6231 -0.0317
18199TIP3    H176088   5.546   2.183   1.247 -0.2557  0.7066  0.0583
18199TIP3    H276089   5.549   2.221   1.100  0.6087  0.7291  0.0784
18200TIP3   OH276090   5.793   4.674  14.390 -0.2173  0.0067 -0.6114
18200TIP3    H176091   5.778   4.598  14.334 -1.1069 -0.8659  0.7392
18200TIP3    H276092   5.876   4.710  14.361 -0.4935 -0.6045 -2.2465
18201TIP3   OH276093   4.610   3.952  14.663 -0.1589  0.2202  0.0652
18201TIP3    H176094   4.556   3.981  14.737 -1.5348 -1.2725 -0.3062
18201TIP3    H276095   4.567   3.989  14.586 -0.8263 -1.1453 -0.2477
18202TIP3   OH276096   0.368   5.601  13.288 -0.1965  0.6066  0.3105
18202TIP3    H176097   0.424   5.524  13.302 -0.3361  0.2161 -1.0674
18202TIP3    H276098   0.393   5.632  13.201 -1.1132  1.3040  0.2892
18203TIP3   OH276099   3.147   1.559  15.911  0.7665  0.0533  0.3711
18203TIP3    H176100   3.119   1.649  15.893 -0.9854 -0.4061  0.6681
18203TIP3    H276101   3.077   1.505  15.875  1.6020 -1.1944  0.5701
18204TIP3   OH276102   0.046   2.100  16.836  0.6298 -0.1002 -0.0651
18204TIP3    H176103   0.131   2.105  16.792  1.1182 -1.3359  0.6778
18204TIP3    H276104   0.052   2.162  16.908  0.8735 -0.1089 -0.0781
18205TIP3   OH276105   2.987   3.523  13.387 -0.7496  0.5910 -0.0927
18205TIP3    H176106   2.967   3.546  13.296  0.8796  2.7401  0.0126
18205TIP3    H276107   3.069   3.473  13.381 -1.1718 -0.1288  0.1296
18206TIP3   OH276108   2.675   6.404  12.578 -0.4689  0.2613 -0.5042
18206TIP3    H176109   2.753   6.373  12.625  1.6411  5.5101  0.1544
18206TIP3    H276110   2.628   6.456  12.643 -1.7569  1.3707 -2.2485
18207TIP3   OH276111   3.786   0.603   4.451 -0.4870  0.1149  0.0344
18207TIP3    H176112   3.734   0.663   4.505 -1.7216  0.3757 -1.3645
18207TIP3    H276113   3.877   0.629   4.466 -0.9149  1.3247  0.6324
18208TIP3   OH276114   1.783   1.564   1.025  0.2776  0.3010  0.8409
18208TIP3    H176115   1.844   1.617   1.076  1.7851 -0.8045  0.2706
18208TIP3    H276116   1.821   1.476   1.026 -0.3474 -0.0319 -1.0740
18209TIP3   OH276117   4.930   3.076   3.958  0.2038  0.3319  0.5942
18209TIP3    H176118   4.950   3.009   4.024  0.4401  0.5913  0.7920
18209TIP3    H276119   5.009   3.130   3.955 -0.2272  1.0009  0.9320
18210TIP3   OH276120   5.036   4.232   3.447 -0.2273 -1.0289  0.2109
18210TIP3    H176121   4.979   4.161   3.418 -0.8947 -0.3355 -0.2329
18210TIP3    H276122   5.002   4.309   3.402  2.1674 -0.8708 -1.5386
18211TIP3   OH276123   5.491   0.841  14.441  0.0987 -0.6137  0.4443
18211TIP3    H176124   5.523   0.838  14.352 -0.9777 -0.0352  0.0181
18211TIP3    H276125   5.531   0.765  14.484 -0.1633 -1.4692 -0.7986
18212TIP3   OH276126   4.933   3.135   0.429 -0.3187  0.2549  0.3380
18212TIP3    H176127   4.848   3.175   0.415 -0.9975 -0.3782  2.3530
18212TIP3    H276128   4.988   3.205   0.464  0.6849  1.2047 -2.7586
18213TIP3   OH276129   0.579   4.755   0.734  0.1733 -0.0283 -0.3547
18213TIP3    H176130   0.533   4.706   0.666 -0.9921 -2.0265  1.7199
18213TIP3    H276131   0.638   4.691   0.774  0.6906  1.0388  0.6643
18214TIP3   OH276132   5.095   6.175   2.580  0.3190  0.0437 -0.0068
18214TIP3    H176133   5.046   6.196   2.501 -0.2961 -0.8690  0.1256
18214TIP3    H276134   5.028   6.163   2.648  0.7125 -1.0591  0.2095
18215TIP3   OH276135   3.159   1.989  14.712  0.2717  0.0834  0.3229
18215TIP3    H176136   3.101   2.051  14.666  1.0759  1.4227  1.0499
18215TIP3    H276137   3.196   1.935  14.642 -0.7094  0.1695 -0.2985
18216TIP3   OH276138   3.948   5.832  11.445 -0.5862  0.5427 -0.7748
18216TIP3    H176139   4.040   5.860  11.454 -0.6536  0.3217  0.8473
18216TIP3    H276140   3.954   5.746  11.403 -0.2588  1.8721 -3.6633
18217TIP3   OH276141   5.037   3.027   4.634 -0.3276  0.3432  0.4766
18217TIP3    H176142   5.109   3.011   4.574  0.5392  0.8281  1.3587
18217TIP3    H276143   5.057   3.111   4.675 -3.5855  2.7787 -2.3577
18218TIP3   OH276144   1.134   2.590   5.765  0.2928 -0.2933  0.3094
18218TIP3    H176145   1.053   2.581   5.816 -0.1044  1.3707  0.0186
18218TIP3    H276146   1.148   2.684   5.760  1.8093 -0.5392 -0.3650
18219TIP3   OH276147   4.297   6.809  14.490 -0.3291  0.1444 -0.4649
18219TIP3    H176148   4.235   6.862  14.539  1.0738  1.7880 -0.3717
18219TIP3    H276149   4.306   6.853  14.405 -0.7543 -1.1866 -1.2341
18220TIP3   OH276150   4.673   6.665   0.980  0.2286  0.0790  0.0786
18220TIP3    H176151   4.626   6.604   0.924  1.9921 -1.0088 -0.3078
18220TIP3    H276152   4.614   6.681   1.053 -0.8987 -0.8770 -0.5891
18221TIP3   OH276153   6.577   2.406  15.707 -0.4187  0.4614  0.0761
18221TIP3    H176154   6.616   2.476  15.759  1.3157 -0.6807  0.4131
18221TIP3    H276155   6.633   2.399  15.630 -0.4553 -0.6237  0.1231
18222TIP3   OH276156   2.928   4.648  10.727 -0.1372 -0.0096  0.0089
18222TIP3    H176157   2.921   4.566  10.776  3.3416 -2.1329 -2.5073
18222TIP3    H276158   2.843   4.657  10.683 -0.8728 -1.8787  0.9385
18223TIP3   OH276159   4.767   3.650  12.425 -0.1352 -0.0383  0.2796
18223TIP3    H176160   4.750   3.568  12.473 -1.5314 -0.3475 -0.6827
18223TIP3    H276161   4.795   3.712  12.493  0.1269 -1.0716  1.1481
18224TIP3   OH276162   6.844   0.519  11.543 -0.0916  0.1495  0.1334
18224TIP3    H176163   6.833   0.513  11.638 -1.7719 -0.5233 -0.0734
18224TIP3    H276164   6.845   0.613  11.525 -1.9354  0.3004  0.6291
18225TIP3   OH276165   6.556   3.074  14.775 -0.1167 -0.0040  0.2983
18225TIP3    H176166   6.587   3.093  14.863  1.1834 -0.3389 -0.0698
18225TIP3    H276167   6.617   3.119  14.717 -0.6059 -0.2665 -0.4479
18226TIP3   OH276168   6.362   3.896   3.731  0.0556 -0.0306  0.2499
18226TIP3    H176169   6.408   3.886   3.814  1.2134 -2.8604 -0.6308
18226TIP3    H276170   6.429   3.878   3.664 -0.9151  1.8235 -1.3329
18227TIP3   OH276171   6.304   6.591   1.148  0.4133  0.1581 -0.4493
18227TIP3    H176172   6.269   6.521   1.093  0.2967 -0.9717  1.0291
18227TIP3    H276173   6.228   6.644   1.170 -0.0695 -1.0756  1.0013
18228TIP3   OH276174   0.200   1.716   4.147 -0.2762  0.2659 -0.1774
18228TIP3    H176175   0.197   1.778   4.220 -0.0785 -0.1185  0.1641
18228TIP3    H276176   0.257   1.757   4.082 -2.5362  1.8680 -1.3095
18229TIP3   OH276177   4.800   4.077  16.673 -0.0834 -0.1587  0.1070
18229TIP3    H176178   4.816   4.085  16.579  1.4352  0.0216  0.3383
18229TIP3    H276179   4.729   4.138  16.690  0.3997  0.6857 -0.7585
18230TIP3   OH276180   6.449   3.950   2.925  0.0032 -0.0182  0.8792
18230TIP3    H176181   6.382   3.899   2.970 -0.0417 -0.2818  0.5182
18230TIP3    H276182   6.426   3.944   2.832  1.1225 -1.0285  0.6291
18231TIP3   OH276183   0.346   3.002   4.445  0.1947  0.2913  0.8559
18231TIP3    H176184   0.434   3.009   4.482 -0.0725 -0.0827  1.5868
18231TIP3    H276185   0.351   3.049   4.362  1.4638 -0.9442  0.1844
18232TIP3   OH276186   3.138   2.117   0.088  0.0135 -0.2145 -0.0572
18232TIP3    H176187   3.128   2.062   0.010 -2.7467 -1.0890  0.8013
18232TIP3    H276188   3.144   2.206   0.054  0.5107 -0.7026 -1.3102
18233TIP3   OH276189   2.390   3.446   2.130  0.3273  0.0840  0.2206
18233TIP3    H176190   2.438   3.375   2.089 -1.2679 -1.0327  0.1728
18233TIP3    H276191   2.299   3.415   2.132 -0.1665  1.4975  1.5816
18234TIP3   OH276192   3.841   1.673  15.677  0.6031 -0.5438 -0.1407
18234TIP3    H176193   3.915   1.732  15.686 -1.6775  2.3863  0.8888
18234TIP3    H276194   3.868   1.593  15.722  2.3138  1.2848  2.3408
18235TIP3   OH276195   1.148   6.111   3.886 -0.0813 -0.2706 -0.0715
18235TIP3    H176196   1.207   6.186   3.872 -1.1133  0.2156 -2.1741
18235TIP3    H276197   1.073   6.148   3.933  0.1517 -0.3789  0.4016
18236TIP3   OH276198   2.266   4.202  16.534  0.4606 -0.8487 -0.6752
18236TIP3    H176199   2.326   4.145  16.580  0.3381 -2.8129 -2.7545
18236TIP3    H276200   2.187   4.203  16.588  1.3034 -0.6590  0.5824
18237TIP3   OH276201   2.725   5.624  13.993 -0.2184 -0.5030  0.5120
18237TIP3    H176202   2.731   5.719  13.989 -0.1131 -0.4076  2.4422
18237TIP3    H276203   2.633   5.607  14.015 -0.0278 -0.8083  1.0829
18238TIP3   OH276204   2.277   2.627   3.032 -0.2413 -0.1807 -0.0042
18238TIP3    H176205   2.314   2.566   3.096 -2.6883 -2.3724 -0.4976
18238TIP3    H276206   2.268   2.575   2.952 -2.1695  0.8779 -0.5481
18239TIP3   OH276207   2.698   1.198  11.515  0.0428  0.0777  0.3619
18239TIP3    H176208   2.730   1.278  11.473 -2.9922 -0.0613 -2.6911
18239TIP3    H276209   2.614   1.222  11.552  0.7834 -0.8938  2.8865
18240TIP3   OH276210   2.550   0.773   4.990  0.1645  0.8531  0.0813
18240TIP3    H176211   2.508   0.820   5.062  2.0054  2.3014  0.2971
18240TIP3    H276212   2.551   0.836   4.918 -1.8433 -0.6457 -1.3737
18241TIP3   OH276213   6.645   1.000   1.122 -0.3309 -0.8359 -0.7339
18241TIP3    H176214   6.599   1.027   1.042  1.1500  0.0996 -1.3078
18241TIP3    H276215   6.613   0.911   1.139 -2.4253 -0.2023 -1.0115
18242TIP3   OH276216   6.630   6.602  16.406  0.8338 -0.0579 -0.1655
18242TIP3    H176217   6.552   6.553  16.433 -0.7052  1.5710 -1.4647
18242TIP3    H276218   6.691   6.591  16.479 -1.1023 -0.2997  1.5080
18243TIP3   OH276219   3.388   2.160  16.310  0.7037 -0.2905  0.0033
18243TIP3    H176220   3.293   2.155  16.307  0.5782  0.9327  1.1674
18243TIP3    H276221   3.411   2.204  16.228 -0.0195  2.2282  1.0561
18244TIP3   OH276222   0.459   2.634   4.637 -0.0848 -0.4125 -0.2555
18244TIP3    H176223   0.440   2.727   4.647 -0.2629 -0.2423 -1.9658
18244TIP3    H276224   0.445   2.597   4.725  0.1023  1.1717  0.4669
18245TIP3   OH276225   4.288   5.065   3.073  0.3562  0.3223  0.2538
18245TIP3    H176226   4.351   5.007   3.116  0.5924  0.8306  0.5918
18245TIP3    H276227   4.337   5.107   3.003  0.4405  0.8666  0.6422
18246TIP3   OH276228   5.081   4.604   1.952 -0.0167  0.4912  0.0398
18246TIP3    H176229   5.032   4.545   1.894 -1.0006  0.8444  0.4952
18246TIP3    H276230   5.165   4.616   1.908 -0.1228 -0.5573 -0.4950
18247TIP3   OH276231   1.944   6.169   4.439  0.5096  0.0210 -0.3210
18247TIP3    H176232   1.955   6.264   4.447  1.8013  0.0834 -2.3876
18247TIP3    H276233   2.028   6.137   4.408  0.1203 -1.8558  0.4002
18248TIP3   OH276234   0.913   6.827  15.305  0.1329  1.2783 -0.2353
18248TIP3    H176235   0.943   6.918  15.302  1.2054  0.9255 -0.4119
18248TIP3    H276236   0.961   6.783  15.235  1.4008  0.0576  1.3437
18249TIP3   OH276237   0.641   5.335   6.254 -0.3367  0.3742 -0.6792
18249TIP3    H176238   0.592   5.300   6.328 -1.3238  1.2831 -0.8763
18249TIP3    H276239   0.591   5.308   6.177  0.0319  0.4397 -0.9444
18250TIP3   OH276240   6.644   4.956  16.971  0.4014 -0.2912 -0.2793
18250TIP3    H176241   6.639   5.008  17.052  1.8317  1.0522 -0.9934
18250TIP3    H276242   6.581   4.998  16.912 -0.2618 -0.9507 -0.0589
18251TIP3   OH276243   5.033   3.744  13.117 -0.2130 -0.0205  0.0813
18251TIP3    H176244   5.056   3.722  13.027 -0.9604 -0.6245  0.0270
18251TIP3    H276245   5.044   3.839  13.122  0.7472 -0.1011 -0.3750
18252TIP3   OH276246   5.743   0.567  14.715 -0.3257 -0.2866  0.3483
18252TIP3    H176247   5.751   0.499  14.782  0.5255  0.3891  0.9565
18252TIP3    H276248   5.716   0.645  14.763 -0.3439  0.0450 -0.1906
18253TIP3   OH276249   2.843   4.842   1.349 -0.0525 -0.8521 -0.0105
18253TIP3    H176250   2.851   4.747   1.363 -0.5705 -0.5951  2.6014
18253TIP3    H276251   2.749   4.857   1.340  0.0249 -0.5617 -0.3682
18254TIP3   OH276252   6.221   1.798  15.632 -0.1736  0.5704 -0.1145
18254TIP3    H176253   6.208   1.779  15.539  0.7583  0.2555 -0.1898
18254TIP3    H276254   6.244   1.891  15.634 -0.0369  0.5393 -0.2146
18255TIP3   OH276255   1.122   5.320   2.888  0.1557  0.2324 -0.4632
18255TIP3    H176256   1.094   5.357   2.804  1.4966  2.0868 -0.1692
18255TIP3    H276257   1.216   5.338   2.891  0.4219 -1.1997  0.7706
18256TIP3   OH276258   2.210   6.149   6.346  1.2283  0.0368  0.1566
18256TIP3    H176259   2.131   6.194   6.376  1.1419  0.2325 -0.3588
18256TIP3    H276260   2.247   6.206   6.280  0.7851 -0.9091 -0.9541
18257TIP3   OH276261   4.327   1.686  16.417  0.3676  0.4459 -0.3607
18257TIP3    H176262   4.352   1.756  16.478 -0.0163 -2.2258  3.2314
18257TIP3    H276263   4.232   1.696  16.406  0.4663  1.0456 -0.6869
18258TIP3   OH276264   1.129   5.733  11.625  0.4339 -0.0426 -0.4335
18258TIP3    H176265   1.046   5.752  11.669  1.1040 -0.6948  1.2305
18258TIP3    H276266   1.196   5.757  11.690  1.5167 -0.2617 -1.4416
18259TIP3   OH276267   3.988   5.092   1.407  0.3704 -0.0237 -0.3710
18259TIP3    H176268   4.023   5.149   1.476 -1.1428  0.0198  0.4187
18259TIP3    H276269   3.893   5.100   1.417 -0.1443 -5.1662  2.0384
18260TIP3   OH276270   1.570   3.940   2.577 -0.5309 -0.1898 -0.7027
18260TIP3    H176271   1.526   4.009   2.527  0.3264  1.3976  0.6493
18260TIP3    H276272   1.499   3.884   2.608 -1.2747  0.2573 -1.5456
18261TIP3   OH276273   4.829   1.678   3.839  0.3676  0.6128 -0.0642
18261TIP3    H176274   4.901   1.720   3.888  0.1693 -0.0453  0.8215
18261TIP3    H276275   4.754   1.735   3.854 -0.0015 -0.2142  1.4693
18262TIP3   OH276276   5.026   5.927  14.223  0.1817 -0.4597 -0.5246
18262TIP3    H176277   5.078   5.984  14.281 -1.5731  0.8818 -0.1882
18262TIP3    H276278   5.061   5.944  14.136  1.8223 -1.3417 -0.0848
18263TIP3   OH276279   6.338   3.201  16.816 -0.3905 -0.1027  0.1455
18263TIP3    H176280   6.313   3.269  16.878  0.5678  0.3281  0.0705
18263TIP3    H276281   6.326   3.119  16.864 -0.6095  0.1679  0.5628
18264TIP3   OH276282   1.329   3.965   3.498  0.0232 -0.7046  0.3864
18264TIP3    H176283   1.282   4.029   3.444 -4.8062 -4.1310 -0.1461
18264TIP3    H276284   1.279   3.960   3.579 -0.1400 -3.9995  0.2062
18265TIP3   OH276285   1.612   1.078  13.098  0.1510  0.2239  0.2318
18265TIP3    H176286   1.550   1.039  13.036 -0.5799  2.3958 -0.4990
18265TIP3    H276287   1.656   1.003  13.138 -1.5757 -1.3414 -0.6339
18266TIP3   OH276288   1.537   3.980  15.863  0.3482  0.0818  0.8425
18266TIP3    H176289   1.475   3.907  15.865  0.6029 -0.1488  0.5382
18266TIP3    H276290   1.610   3.949  15.918 -0.0818  0.6092  1.7266
18267TIP3   OH276291   5.588   0.562  15.935  0.1794 -0.1187 -0.6790
18267TIP3    H176292   5.663   0.607  15.898  1.1412 -0.4152  0.8294
18267TIP3    H276293   5.615   0.538  16.023 -1.5438 -0.6022 -0.2380
18268TIP3   OH276294   5.811   2.369  13.557 -0.4676  0.1329 -0.3018
18268TIP3    H176295   5.869   2.426  13.608  1.1871 -1.3920 -0.3724
18268TIP3    H276296   5.760   2.430  13.504 -1.3709  1.7170  2.1789
18269TIP3   OH276297   5.113   1.781   4.683  0.1727  0.0043  0.0094
18269TIP3    H176298   5.121   1.764   4.777  0.4958 -1.6292 -0.2860
18269TIP3    H276299   5.117   1.876   4.676  0.5048  0.1467  1.6147
18270TIP3   OH276300   5.388   4.719  11.369 -0.3919 -0.2384  0.1122
18270TIP3    H176301   5.352   4.632  11.385  0.9943 -0.8500  0.0175
18270TIP3    H276302   5.357   4.772  11.442 -0.5349 -1.0349  0.6332
18271TIP3   OH276303   3.355   5.363  13.057 -0.1066  0.0773  0.1028
18271TIP3    H176304   3.324   5.453  13.049 -0.7950 -0.1786 -0.1261
18271TIP3    H276305   3.358   5.347  13.151 -2.7853 -0.5940  0.1561
18272TIP3   OH276306   1.660   0.986  13.834  0.1286  0.2531 -0.1123
18272TIP3    H176307   1.573   1.017  13.807  0.7431  2.2495 -0.0158
18272TIP3    H276308   1.683   1.042  13.908  0.8633 -1.3189  0.9006
18273TIP3   OH276309   4.037   5.865  13.662 -0.9101 -0.4898  0.2302
18273TIP3    H176310   4.026   5.807  13.587  0.6457 -0.5233  0.0080
18273TIP3    H276311   3.999   5.948  13.634 -0.9290 -0.6926 -0.3548
18274TIP3   OH276312   6.802   5.318   6.072 -0.4935  0.2003 -0.0198
18274TIP3    H176313   6.897   5.316   6.082 -0.4892  1.0033  0.1499
18274TIP3    H276314   6.768   5.320   6.162 -0.6351  0.8621 -0.0788
18275TIP3   OH276315   1.290   5.265   3.175 -0.8682 -0.2989  0.5122
18275TIP3    H176316   1.223   5.225   3.119 -1.2728  0.5518  0.3752
18275TIP3    H276317   1.317   5.194   3.234 -0.1727 -1.3317 -0.9555
18276TIP3   OH276318   2.806   0.892  13.515 -0.5425 -0.1423 -0.5629
18276TIP3    H176319   2.729   0.875  13.570  0.2411  0.6700  0.8519
18276TIP3    H276320   2.795   0.982  13.486  0.2534  0.2587  0.3296
18277TIP3   OH276321   3.661   6.534   3.458 -0.7736  0.2580 -0.0722
18277TIP3    H176322   3.576   6.491   3.457 -0.4746 -0.3515  0.0948
18277TIP3    H276323   3.724   6.462   3.466 -0.2096  0.6489 -0.8094
18278TIP3   OH276324   0.941   5.242   6.426  0.0505 -0.0367 -0.6329
18278TIP3    H176325   1.033   5.231   6.450  0.8159  0.2447 -3.1339
18278TIP3    H276326   0.892   5.211   6.502  2.1895  0.7131  1.1493
18279TIP3   OH276327   0.193   4.097  12.778 -0.2511  0.4414  0.3465
18279TIP3    H176328   0.113   4.059  12.816  0.2749 -1.2236 -0.1544
18279TIP3    H276329   0.170   4.113  12.687 -0.3966  1.1743  0.5008
18280TIP3   OH276330   5.341   5.267  15.151  0.3550 -0.3755  0.2714
18280TIP3    H176331   5.378   5.351  15.177 -1.6468  0.6849 -0.1332
18280TIP3    H276332   5.324   5.221  15.233  1.3759 -0.3779  0.4965
18281TIP3   OH276333   3.590   5.430   1.501 -0.2708 -0.1592 -0.2024
18281TIP3    H176334   3.554   5.348   1.467 -0.8822 -0.1240  0.3290
18281TIP3    H276335   3.516   5.491   1.501  0.2352  0.4765 -0.8211
18282TIP3   OH276336   1.441   0.065   2.644 -0.2099 -0.0292  0.3848
18282TIP3    H176337   1.430   0.018   2.561  1.0199 -0.1028  0.2403
18282TIP3    H276338   1.511   0.128   2.626  2.3923 -2.1677  2.1739
18283TIP3   OH276339   0.374   1.252  11.388 -0.0130 -0.0625  0.0951
18283TIP3    H176340   0.457   1.299  11.375 -0.3075  0.3596 -0.3137
18283TIP3    H276341   0.381   1.175  11.333  0.8581 -1.0270  1.4805
18284TIP3   OH276342   1.916   3.007  11.114 -0.1915  0.1354 -0.1404
18284TIP3    H176343   1.833   3.050  11.097 -0.5973 -1.0882 -1.4154
18284TIP3    H276344   1.937   3.029  11.205 -1.3438  1.3518 -0.1478
18285TIP3   OH276345   1.811   2.634  15.322  0.3004  0.0126 -0.1527
18285TIP3    H176346   1.842   2.630  15.231  0.3354 -0.5977 -0.1160
18285TIP3    H276347   1.775   2.722  15.330  0.7198  0.2375 -0.6211
18286TIP3   OH276348   2.740   1.274   2.609  0.1446 -0.5828 -0.3383
18286TIP3    H176349   2.683   1.314   2.674  0.5079 -0.0830 -0.3266
18286TIP3    H276350   2.761   1.188   2.645  0.5987 -0.1864  0.3540
18287TIP3   OH276351   3.294   4.885  14.541  0.1235 -0.3622 -0.2619
18287TIP3    H176352   3.269   4.926  14.624  1.8217  0.9659 -0.3459
18287TIP3    H276353   3.364   4.824  14.565  0.7932  0.2057 -0.7093
18288TIP3   OH276354   5.575   0.153   5.385 -0.3675  0.1049 -0.1620
18288TIP3    H176355   5.521   0.176   5.461  1.0791  0.9348  0.6590
18288TIP3    H276356   5.612   0.236   5.355 -1.1077 -0.1763 -1.9654
18289TIP3   OH276357   2.807   2.487  11.392  0.2340  0.2298 -0.0985
18289TIP3    H176358   2.755   2.436  11.455  0.0931 -1.0181 -1.1909
18289TIP3    H276359   2.887   2.508  11.439 -1.5907  3.1780  2.0600
18290TIP3   OH276360   5.166   3.741   6.163 -0.4739 -0.1830  0.0800
18290TIP3    H176361   5.087   3.790   6.140 -0.5321  0.0900  0.8400
18290TIP3    H276362   5.134   3.672   6.221 -0.3364 -0.8956 -0.6703
18291TIP3   OH276363   6.384   5.330   6.018  0.1157 -0.5266 -0.3758
18291TIP3    H176364   6.355   5.413   6.056  1.3083 -0.1404 -0.2581
18291TIP3    H276365   6.409   5.277   6.094  2.5205  0.2522 -0.5401
18292TIP3   OH276366   3.713   2.631   4.241  0.2392 -0.1638 -0.1394
18292TIP3    H176367   3.783   2.610   4.179  1.1426  0.4907  0.6275
18292TIP3    H276368   3.694   2.724   4.224  1.5892  0.4874  1.5535
18293TIP3   OH276369   2.814   3.080   5.067 -0.0522 -0.2965  0.2156
18293TIP3    H176370   2.805   3.011   5.133  0.5621 -1.4435 -0.8453
18293TIP3    H276371   2.805   3.034   4.983  0.2770  0.9418 -0.5265
18294TIP3   OH276372   5.912   0.899   0.784 -0.6832 -0.1651 -0.2535
18294TIP3    H176373   5.975   0.902   0.712 -1.8999 -0.4591 -1.3844
18294TIP3    H276374   5.840   0.846   0.750 -1.8187  0.6773  0.7561
18295TIP3   OH276375   6.367   1.199   3.821 -0.2833 -0.2546  0.4325
18295TIP3    H176376   6.429   1.175   3.752 -1.2978 -0.0229 -0.5845
18295TIP3    H276377   6.332   1.284   3.793  1.4858  1.4049  2.7410
18296TIP3   OH276378   1.786   2.368  15.356  0.1606  0.1536  0.3342
18296TIP3    H176379   1.833   2.444  15.389 -0.0154 -0.4588  2.1472
18296TIP3    H276380   1.854   2.310  15.322  0.7173 -0.3722  2.1933
18297TIP3   OH276381   3.125   6.470   3.560  0.5336  0.4932 -0.7602
18297TIP3    H176382   3.079   6.470   3.476 -0.1643  1.3418 -0.3900
18297TIP3    H276383   3.202   6.524   3.546  1.3461 -0.7616 -1.3237
18298TIP3   OH276384   3.923   4.919  11.909 -0.2009 -0.2413 -0.6300
18298TIP3    H176385   3.915   4.981  11.982 -0.0282  0.9996 -1.6337
18298TIP3    H276386   3.866   4.955  11.841  0.6765 -0.6403 -1.5970
18299TIP3   OH276387   6.555   1.810   3.717  0.1281  0.4915  0.0095
18299TIP3    H176388   6.582   1.808   3.809 -0.2338  1.2774  0.1424
18299TIP3    H276389   6.460   1.821   3.720 -0.2151 -1.7223 -0.4560
18300TIP3   OH276390   3.638   6.592   3.849 -0.4252 -0.4719  0.8984
18300TIP3    H176391   3.577   6.653   3.808  0.3568 -0.5656 -0.4682
18300TIP3    H276392   3.637   6.615   3.942 -0.8949  0.9472  0.5552
18301TIP3   OH276393   2.604   6.197   0.959 -0.2073  1.0325 -0.1018
18301TIP3    H176394   2.513   6.176   0.976 -0.4431  1.9547 -0.1264
18301TIP3    H276395   2.631   6.135   0.891 -0.0337 -0.9231  1.6657
18302TIP3   OH276396   0.307   1.022  16.623 -0.7680  0.1522 -0.4034
18302TIP3    H176397   0.271   1.058  16.542 -1.0239  1.2388  0.1813
18302TIP3    H276398   0.402   1.028  16.611 -0.8046  1.0376 -0.3196
18303TIP3   OH276399   2.666   2.732   4.295 -0.1045  0.7918 -0.5080
18303TIP3    H176400   2.748   2.754   4.339 -0.7318  1.0570  0.5617
18303TIP3    H276401   2.623   2.816   4.280 -1.5029  0.5222  1.6122
18304TIP3   OH276402   5.420   6.621   4.826  0.4822 -0.1674 -0.6892
18304TIP3    H176403   5.480   6.599   4.897 -0.1907 -1.2387 -0.4177
18304TIP3    H276404   5.459   6.697   4.783  1.7414 -0.5087 -0.1911
18305TIP3   OH276405   1.649   4.489  16.080  0.3994  0.1941 -0.7678
18305TIP3    H176406   1.563   4.460  16.051 -0.1906  0.8851  0.2433
18305TIP3    H276407   1.697   4.408  16.097 -0.5720 -0.2054  0.1537
18306TIP3   OH276408   2.877   3.585   2.165 -0.0926 -0.1014  0.4196
18306TIP3    H176409   2.785   3.598   2.188 -0.1910  1.8095 -0.7954
18306TIP3    H276410   2.874   3.553   2.075  0.4108 -2.7518  1.2673
18307TIP3   OH276411   1.130   2.643  10.713  0.7311  0.2155 -0.0193
18307TIP3    H176412   1.046   2.656  10.668 -0.5760 -0.1059  2.1682
18307TIP3    H276413   1.133   2.714  10.778  2.4289  0.5271 -0.3812
18308TIP3   OH276414   3.733   3.792  14.327 -0.0987  0.1296  0.0449
18308TIP3    H176415   3.685   3.720  14.368 -0.8983  1.2059  1.0342
18308TIP3    H276416   3.806   3.809  14.385  0.4644 -0.2850 -0.5216
18309TIP3   OH276417   5.677   4.167  11.550  0.2883 -0.2610  0.2432
18309TIP3    H176418   5.724   4.169  11.466 -0.2332  0.5827 -0.0433
18309TIP3    H276419   5.640   4.255  11.558  1.8335  0.2807  2.2273
18310TIP3   OH276420   1.418   6.064  11.520 -0.2786 -0.0587  0.2764
18310TIP3    H176421   1.399   5.977  11.484  2.7054 -0.3812 -0.7835
18310TIP3    H276422   1.455   6.046  11.607 -3.1917  0.4607  1.7218
18311TIP3   OH276423   6.492   4.961  11.182  0.0750  0.0722 -0.1806
18311TIP3    H176424   6.527   4.884  11.227  1.4193  0.5986 -0.2905
18311TIP3    H276425   6.423   4.926  11.126  0.2102 -0.9612  0.2730
18312TIP3   OH276426   2.374   3.468  11.428 -0.3314  0.0895  0.3409
18312TIP3    H176427   2.414   3.401  11.484  0.2429 -0.1107 -0.2924
18312TIP3    H276428   2.443   3.533  11.415  0.1029 -0.6799 -1.4471
18313TIP3   OH276429   6.625   3.802  12.915  0.6807  1.0467  0.4997
18313TIP3    H176430   6.555   3.787  12.851  1.7031  0.9897 -0.6385
18313TIP3    H276431   6.602   3.744  12.988 -0.7573  1.4572  0.4103
18314TIP3   OH276432   0.586   1.146  15.245 -0.2657 -0.4436 -0.2315
18314TIP3    H176433   0.508   1.110  15.203 -1.3044  0.7411  0.6312
18314TIP3    H276434   0.652   1.077  15.236 -0.9195 -0.8400 -2.3620
18315TIP3   OH276435   4.078   1.127   3.742 -0.0498 -0.1154 -0.6465
18315TIP3    H176436   4.069   1.033   3.757  0.4413 -0.1113 -0.2920
18315TIP3    H276437   4.099   1.163   3.828  1.2460  0.1189 -1.0454
18316TIP3   OH276438   1.842   5.413  14.454  0.1892 -0.1027 -0.0286
18316TIP3    H176439   1.830   5.471  14.379 -1.8272 -0.8101 -0.3043
18316TIP3    H276440   1.881   5.334  14.418  0.2307 -0.0339 -0.1357
18317TIP3   OH276441   3.686   4.155   5.273 -0.0724  0.0519  0.4765
18317TIP3    H176442   3.691   4.093   5.200 -1.2436 -0.4997  0.8391
18317TIP3    H276443   3.654   4.236   5.234  1.7001  0.5569 -0.0454
18318TIP3   OH276444   3.128   3.794   1.931 -0.1189 -0.5936 -0.1823
18318TIP3    H176445   3.049   3.762   1.889 -0.0382  0.9721 -1.6559
18318TIP3    H276446   3.193   3.798   1.860  1.2395 -1.6108  0.9338
18319TIP3   OH276447   5.720   5.589  16.413  0.7695 -0.0212  0.0271
18319TIP3    H176448   5.708   5.620  16.502 -1.3740  0.5289 -0.3885
18319TIP3    H276449   5.790   5.644  16.377  0.3954  1.0015  0.8241
18320TIP3   OH276450   1.040   0.743   4.733 -0.4593  0.2819  1.3943
18320TIP3    H176451   0.968   0.806   4.729 -1.0251 -0.3852  0.5918
18320TIP3    H276452   1.111   0.789   4.777 -1.1788  1.1589  1.6497
18321TIP3   OH276453   0.317   5.463  12.835  0.0109  0.0708 -0.3829
18321TIP3    H176454   0.262   5.530  12.795 -0.4708 -0.2096 -0.1992
18321TIP3    H276455   0.271   5.380  12.818  1.1613 -0.3574 -1.5956
18322TIP3   OH276456   6.539   5.894   5.339  0.0842  0.4868 -0.3724
18322TIP3    H176457   6.533   5.849   5.255 -2.5810 -0.4203  0.2050
18322TIP3    H276458   6.494   5.978   5.324  2.5728  1.8433 -0.6880
18323TIP3   OH276459   6.479   4.552   0.910  0.5542  0.1978 -0.2851
18323TIP3    H176460   6.560   4.547   0.858  0.9440  0.4717  0.2826
18323TIP3    H276461   6.409   4.547   0.845  0.9206 -3.3100 -0.6049
18324TIP3   OH276462   1.216   0.771  11.247  0.1927 -0.1760  0.3905
18324TIP3    H176463   1.291   0.830  11.257 -0.0149  0.0460  0.6531
18324TIP3    H276464   1.243   0.691  11.293 -0.7639  0.8395  2.9267
18325TIP3   OH276465   1.729   3.552   4.861 -0.2735 -0.5038  0.1778
18325TIP3    H176466   1.669   3.616   4.822 -0.2797 -0.9233 -0.5151
18325TIP3    H276467   1.745   3.586   4.949 -2.1641 -0.7847  0.6870
18326TIP3   OH276468   1.796   0.133  11.182  0.0250  0.1108  0.3917
18326TIP3    H176469   1.794   0.063  11.247  3.3965 -0.2261  0.3419
18326TIP3    H276470   1.829   0.209  11.230  0.3149  0.5158 -0.4201
18327TIP3   OH276471   2.754   1.693   2.033 -0.0897 -0.1120 -0.7332
18327TIP3    H176472   2.683   1.648   2.078  0.9276  0.2341  1.3576
18327TIP3    H276473   2.809   1.624   1.998 -0.0014 -0.4573  0.0657
18328TIP3   OH276474   1.807   0.201  11.701 -0.1917 -0.3041 -0.5208
18328TIP3    H176475   1.765   0.118  11.721  0.4049 -0.7095 -0.8777
18328TIP3    H276476   1.870   0.179  11.632  0.5364  0.2891 -0.0617
18329TIP3   OH276477   5.798   4.410  10.873  0.1154 -0.1150 -0.0955
18329TIP3    H176478   5.772   4.318  10.879  0.7897 -0.3310 -0.3413
18329TIP3    H276479   5.855   4.414  10.796  1.6346  0.0988  0.9749
18330TIP3   OH276480   0.358   3.380   0.005 -0.3973 -0.5028 -0.1202
18330TIP3    H176481   0.353   3.328  -0.075 -0.5480 -0.0876 -0.3863
18330TIP3    H276482   0.267   3.409   0.020 -0.2447  0.0407 -0.2203
18331TIP3   OH276483   5.498   4.796  12.628  0.1258 -0.3552 -0.1918
18331TIP3    H176484   5.473   4.884  12.600 -1.0605 -0.4590  0.4701
18331TIP3    H276485   5.542   4.758  12.552  0.9666  0.9159 -0.3737
18332TIP3   OH276486   0.443   3.018  12.864 -0.2502 -0.3109 -0.4058
18332TIP3    H176487   0.371   2.991  12.922 -0.5031 -1.3659 -1.1656
18332TIP3    H276488   0.519   2.970  12.896 -0.4912 -1.2548 -1.1895
18333TIP3   OH276489   3.481   3.139  13.326  0.3147 -0.6342 -0.4266
18333TIP3    H176490   3.510   3.110  13.240 -0.0335 -1.9772 -0.1235
18333TIP3    H276491   3.544   3.206  13.352  0.6567 -0.5122 -1.5448
18334TIP3   OH276492   0.395   3.527  12.778 -0.0741 -0.3705 -0.3653
18334TIP3    H176493   0.380   3.433  12.770  0.2865 -0.3054 -2.2718
18334TIP3    H276494   0.390   3.560  12.688  0.0940  1.3936  0.2320
18335TIP3   OH276495   2.035   2.132  13.711  0.9922  0.0531  0.1075
18335TIP3    H176496   1.953   2.088  13.691  0.1542  1.3696  0.5608
18335TIP3    H276497   2.058   2.179  13.631  0.1287  1.4742  0.6757
18336TIP3   OH276498   3.920   0.055   5.019 -0.3703  0.1054 -0.1959
18336TIP3    H176499   3.880   0.071   5.105  1.1005 -1.3551  0.8424
18336TIP3    H276500   3.964   0.137   4.997 -1.0345  0.6051  0.2924
18337TIP3   OH276501   3.796   1.774  14.813  0.2041 -0.3369  0.0095
18337TIP3    H176502   3.731   1.833  14.851 -1.3105 -0.8406 -1.6590
18337TIP3    H276503   3.798   1.699  14.873  0.7317  0.5364  1.1147
18338TIP3   OH276504   1.344   6.510  11.422  0.4246 -0.2376  0.8440
18338TIP3    H176505   1.392   6.592  11.422  0.8354 -0.4495 -1.0354
18338TIP3    H276506   1.308   6.503  11.334 -1.7361 -0.8689  1.7086
18339TIP3   OH276507   3.726   2.898   5.949  0.3946  0.2759  0.0994
18339TIP3    H176508   3.641   2.882   5.908  0.6915 -1.4756  0.0883
18339TIP3    H276509   3.752   2.984   5.917 -0.7542  0.2573 -0.9806
18340TIP3   OH276510   5.252   2.560  13.109 -0.3803  0.7233  0.2562
18340TIP3    H176511   5.200   2.604  13.176  0.6671  0.3426  1.3534
18340TIP3    H276512   5.315   2.627  13.081 -0.3451  0.6550  0.1732
18341TIP3   OH276513   6.775   5.982   5.829  0.3321 -0.0484  0.7932
18341TIP3    H176514   6.694   6.031   5.842 -0.8301 -0.9392 -2.1256
18341TIP3    H276515   6.746   5.896   5.796  2.3871 -1.7565  3.0633
18342TIP3   OH276516   0.690   4.092  14.975  0.4035 -0.1862 -0.9349
18342TIP3    H176517   0.742   4.077  15.054  0.1049 -0.6916 -0.8317
18342TIP3    H276518   0.690   4.188  14.964  0.4962 -0.1157 -0.3556
18343TIP3   OH276519   5.158   4.126   2.288 -0.1368  0.6075 -0.6733
18343TIP3    H176520   5.159   4.112   2.383 -2.2961  2.1780 -0.3638
18343TIP3    H276521   5.166   4.038   2.251 -3.4646 -0.5754  1.0449
18344TIP3   OH276522   2.845   4.931   1.941  0.6732  0.2776 -0.0275
18344TIP3    H176523   2.779   4.865   1.921  1.8698 -0.7556 -0.7383
18344TIP3    H276524   2.860   4.923   2.035  1.2860 -0.9728 -0.2097
18345TIP3   OH276525   2.220   1.692  15.729 -0.5586 -0.3277  0.6792
18345TIP3    H176526   2.293   1.737  15.685 -0.3961 -1.5364 -0.3621
18345TIP3    H276527   2.247   1.686  15.820 -0.0159  0.5275  0.5902
18346TIP3   OH276528   1.063   6.648  15.473 -0.0736 -0.5884  0.1388
18346TIP3    H176529   0.994   6.597  15.515  0.0535 -0.0601  1.0044
18346TIP3    H276530   1.018   6.724  15.436 -0.1582 -0.9612 -0.5444
18347TIP3   OH276531   5.199   6.333  12.405  0.0871  0.1031  0.7665
18347TIP3    H176532   5.289   6.351  12.433 -0.0455 -0.5030  1.6215
18347TIP3    H276533   5.208   6.263  12.340  0.2627  0.3052  0.5726
18348TIP3   OH276534   1.595   1.090  12.641 -0.4207  0.2801  0.1192
18348TIP3    H176535   1.562   1.175  12.612 -0.6517  0.9889  2.3039
18348TIP3    H276536   1.673   1.110  12.693  0.8829 -1.0528 -1.2030
18349TIP3   OH276537   5.150   5.315   1.795 -0.1435  0.5144 -1.2383
18349TIP3    H176538   5.162   5.407   1.774  1.1581  0.0854 -2.4320
18349TIP3    H276539   5.186   5.306   1.883 -1.5477  1.3910 -0.5247
18350TIP3   OH276540   4.015   4.547  12.186  0.3731  0.0003  0.2880
18350TIP3    H176541   4.031   4.453  12.190 -1.5842 -0.3873 -0.1058
18350TIP3    H276542   4.018   4.569  12.093  1.3197  0.4616  0.4052
18351TIP3   OH276543   2.696   3.713  15.544  0.2063 -0.3474 -0.1677
18351TIP3    H176544   2.652   3.688  15.463 -1.2489  0.4602  0.3344
18351TIP3    H276545   2.630   3.761  15.594  1.1202 -0.6621  1.4291
18352TIP3   OH276546   0.722   6.414  15.849 -0.4192 -0.5666 -0.3450
18352TIP3    H176547   0.792   6.444  15.907  1.5553  2.8541 -4.0965
18352TIP3    H276548   0.738   6.320  15.839  2.0916 -0.3323  0.8263
18353TIP3   OH276549   4.091   6.448   4.644 -0.2051 -0.4589  0.3316
18353TIP3    H176550   4.090   6.399   4.726 -1.4266 -0.6381  0.2244
18353TIP3    H276551   4.003   6.485   4.636  0.0377 -0.0515 -0.6664
18354TIP3   OH276552   0.603   3.821   3.216 -0.2589 -0.0755 -0.2403
18354TIP3    H176553   0.620   3.749   3.277 -1.8308 -0.0698  0.2375
18354TIP3    H276554   0.646   3.794   3.135 -1.0699 -1.7112 -0.1668
18355TIP3   OH276555   1.088   6.669  12.030  0.1353 -0.0147  0.5522
18355TIP3    H176556   1.054   6.728  12.097  0.3960 -0.9920  1.5620
18355TIP3    H276557   1.110   6.589  12.076  0.2576 -0.7454 -0.7179
18356TIP3   OH276558   5.378   5.564   5.604 -0.4122  0.1662  0.2016
18356TIP3    H176559   5.369   5.651   5.565  0.7938 -0.5142 -1.7474
18356TIP3    H276560   5.366   5.579   5.697  4.5663  3.3889  0.7423
18357TIP3   OH276561   6.354   3.067  13.958 -0.1988  0.3172 -0.1718
18357TIP3    H176562   6.321   3.060  14.048  0.3397 -0.9798 -0.0537
18357TIP3    H276563   6.276   3.079  13.904 -0.4597  2.1455  0.5497
18358TIP3   OH276564   4.970   0.632   3.155  0.2014  0.6981 -0.0607
18358TIP3    H176565   5.045   0.691   3.143  0.5101  0.6341  1.4116
18358TIP3    H276566   4.908   0.683   3.207  0.6850 -0.3958  1.6851
18359TIP3   OH276567   1.299   3.261  14.503 -0.2526 -0.3900  0.9860
18359TIP3    H176568   1.238   3.238  14.573  0.3487 -1.6666  1.1004
18359TIP3    H276569   1.382   3.277  14.548 -0.1506 -0.0381  0.6791
18360TIP3   OH276570   4.129   6.403   2.956  0.3326 -0.1333  0.1680
18360TIP3    H176571   4.219   6.432   2.968  0.1966  0.5566 -0.3906
18360TIP3    H276572   4.129   6.311   2.985  1.5029 -0.5408 -1.0383
18361TIP3   OH276573   6.258   1.791  11.555  0.1101 -0.5101  0.0154
18361TIP3    H176574   6.265   1.879  11.590  1.0099  0.3268 -2.0952
18361TIP3    H276575   6.194   1.797  11.484  1.3259 -1.1321 -1.2051
18362TIP3   OH276576   6.537   1.528  13.854 -0.0954  0.2361 -0.2071
18362TIP3    H176577   6.447   1.545  13.882  0.1228  1.1588 -0.0451
18362TIP3    H276578   6.532   1.521  13.759 -0.6970 -2.0254 -0.0581
18363TIP3   OH276579   4.023   4.535  14.630 -0.5974 -0.3073 -0.6932
18363TIP3    H176580   3.982   4.586  14.700  1.5573  0.4274  0.1147
18363TIP3    H276581   4.043   4.450  14.669 -1.6258 -0.7995 -1.1956
18364TIP3   OH276582   3.366   2.787  13.177 -0.2262  0.0985 -0.0147
18364TIP3    H176583   3.302   2.856  13.159  2.0137  2.7661  1.4438
18364TIP3    H276584   3.420   2.783  13.097  0.2617  0.8169  0.2683
18365TIP3   OH276585   2.470   6.273   3.785 -0.0587 -0.3530  0.0265
18365TIP3    H176586   2.492   6.191   3.829  2.1931  0.6692  0.9553
18365TIP3    H276587   2.385   6.298   3.820  0.3237 -1.1126  1.5440
18366TIP3   OH276588   0.081   2.045   5.961 -0.2700  0.8628  0.2017
18366TIP3    H176589   0.058   1.980   5.895 -1.6586  2.7327 -1.2379
18366TIP3    H276590   0.022   2.027   6.034  0.2975 -0.3194  0.3899
18367TIP3   OH276591   2.742   3.149  12.700  0.1103  0.1595  0.5485
18367TIP3    H176592   2.809   3.083  12.679 -1.4468 -1.3417  0.0194
18367TIP3    H276593   2.722   3.191  12.616 -0.9527 -0.7740  0.3013
18368TIP3   OH276594   3.734   6.182  15.152 -0.5987  0.2865  0.4704
18368TIP3    H176595   3.730   6.271  15.117  0.1407  0.4981  0.8811
18368TIP3    H276596   3.821   6.150  15.126 -1.3112 -0.7829 -0.7318
18369TIP3   OH276597   2.288   3.946   1.395  0.1337 -0.2163  0.1313
18369TIP3    H176598   2.216   4.002   1.423  0.7057  0.0224  1.1490
18369TIP3    H276599   2.245   3.875   1.347 -0.7006  0.3876 -0.0384
18370TIP3   OH276600   4.927   2.491  15.589  0.3388 -0.6175 -0.2030
18370TIP3    H176601   4.981   2.414  15.608  1.4235  0.3725  0.9242
18370TIP3    H276602   4.962   2.559  15.647  0.3664  1.1471 -2.1602
18371TIP3   OH276603   3.454   1.192  12.773 -0.2460 -0.4090  0.2510
18371TIP3    H176604   3.538   1.146  12.774 -1.0028 -1.8730  0.0502
18371TIP3    H276605   3.393   1.133  12.817 -0.9940  1.0350  1.2429
18372TIP3   OH276606   6.784   4.863   4.677 -0.1430  0.4242 -0.7066
18372TIP3    H176607   6.866   4.911   4.692  0.6232 -0.3306 -2.2637
18372TIP3    H276608   6.739   4.913   4.609 -0.5662  0.3425 -0.4887
18373TIP3   OH276609   3.151   6.254  12.890 -0.2491  0.4383  0.3847
18373TIP3    H176610   3.127   6.277  12.801 -1.2768 -0.0545  0.5232
18373TIP3    H276611   3.238   6.215  12.882 -1.2093 -1.6202 -0.7328
18374TIP3   OH276612   2.737   0.173   3.951 -0.5361  0.0110  0.1321
18374TIP3    H176613   2.695   0.218   3.878  0.1747  0.7755  0.1704
18374TIP3    H276614   2.678   0.102   3.974 -2.4996  1.8603  1.1008
18375TIP3   OH276615   0.562   3.240  13.514 -0.0596  0.1659 -0.5561
18375TIP3    H176616   0.476   3.199  13.509 -0.8101  1.7100 -0.6804
18375TIP3    H276617   0.615   3.176  13.562 -0.2156 -2.4744 -3.5778
18376TIP3   OH276618   4.509   1.861  11.017  0.4172  0.2027 -0.6690
18376TIP3    H176619   4.586   1.910  10.989 -0.0335  1.3454  0.0321
18376TIP3    H276620   4.450   1.927  11.054  0.1392 -0.9540  1.0939
18377TIP3   OH276621   5.118   5.940   1.897  0.1583  0.1476 -0.2935
18377TIP3    H176622   5.117   5.867   1.958 -0.2767 -0.0345 -0.5099
18377TIP3    H276623   5.123   5.898   1.810  0.2404  0.3845 -0.4045
18378TIP3   OH276624   3.046   0.704  11.253 -0.1468 -0.4957 -0.3476
18378TIP3    H176625   3.021   0.795  11.238  0.1203 -0.5395 -1.1065
18378TIP3    H276626   3.029   0.661  11.170 -0.2128 -1.1302 -0.0087
18379TIP3   OH276627   5.084   1.791   3.911 -0.4236  0.5528  0.1983
18379TIP3    H176628   5.108   1.858   3.975  1.7453  1.2826 -1.2690
18379TIP3    H276629   5.073   1.839   3.829  1.6868 -0.8632 -1.0119
18380TIP3   OH276630   3.764   2.821   4.943  0.5180 -0.4385  0.2956
18380TIP3    H176631   3.827   2.757   4.976  1.5046  0.2262 -0.2286
18380TIP3    H276632   3.738   2.786   4.857  3.0352  1.0494 -1.1985
18381TIP3   OH276633   2.945   5.595   2.604 -0.4347 -0.6050 -0.5415
18381TIP3    H176634   2.886   5.598   2.679  0.9751 -0.4987  0.6158
18381TIP3    H276635   2.943   5.683   2.567 -0.2697 -0.3218  0.1032
18382TIP3   OH276636   3.371   6.677   5.405  0.5183 -0.4139 -0.0666
18382TIP3    H176637   3.449   6.622   5.408  0.9321  0.0692 -1.3384
18382TIP3    H276638   3.394   6.754   5.456  1.1541  0.0489 -1.0239
18383TIP3   OH276639   2.773   6.196   1.604  0.5146 -0.3362  0.1519
18383TIP3    H176640   2.845   6.214   1.666  2.8396 -0.9108 -2.1992
18383TIP3    H276641   2.787   6.258   1.533 -1.7557 -0.0635 -0.1109
18384TIP3   OH276642   6.781   0.405   0.288  0.2932 -0.3839  0.0571
18384TIP3    H176643   6.753   0.402   0.197 -0.9396 -1.6051  0.4513
18384TIP3    H276644   6.742   0.486   0.323 -1.0538 -1.0056  0.0502
18385TIP3   OH276645   2.964   0.088   5.416 -0.6860 -0.6614  0.2321
18385TIP3    H176646   2.897   0.112   5.480 -0.6636 -0.5624  0.2183
18385TIP3    H276647   2.993   0.001   5.443 -1.0303 -0.8312  0.0627
18386TIP3   OH276648   5.645   1.955   5.892  0.5064  0.3465  0.0891
18386TIP3    H176649   5.587   1.934   5.965  0.1189 -0.6073 -0.4707
18386TIP3    H276650   5.608   2.034   5.853 -0.6893 -0.4777 -0.5116
18387TIP3   OH276651   5.520   1.304  16.943  0.0147 -0.5612 -0.9685
18387TIP3    H176652   5.561   1.348  16.868 -1.3453  1.2223 -0.7507
18387TIP3    H276653   5.426   1.313  16.927 -0.3264 -2.6755 -0.4308
18388TIP3   OH276654   2.119   4.899   6.372  0.4297 -0.1523  0.5780
18388TIP3    H176655   2.130   4.933   6.460 -1.6422 -1.0217  1.2410
18388TIP3    H276656   2.149   4.808   6.378 -0.0917 -0.3300  0.4923
18389TIP3   OH276657   4.747   1.703  16.459 -0.1483 -0.1052  0.1815
18389TIP3    H176658   4.758   1.797  16.445 -1.1101 -0.1524 -1.0321
18389TIP3    H276659   4.708   1.671  16.378 -1.5368 -1.2542  1.2458
18390TIP3   OH276660   4.718   1.259   5.327  0.7251 -0.0809  0.5402
18390TIP3    H176661   4.707   1.188   5.390  0.2345  0.8081  1.4931
18390TIP3    H276662   4.632   1.266   5.284  1.1337 -0.8620 -0.4589
18391TIP3   OH276663   6.181   6.055   1.055  0.5553  0.0539 -0.2367
18391TIP3    H176664   6.101   6.053   1.004 -0.1982  2.8445  0.6371
18391TIP3    H276665   6.154   6.039   1.145  1.2100 -0.4007 -0.1074
18392TIP3   OH276666   6.691   5.132  14.121  0.0694  0.5730  0.5799
18392TIP3    H176667   6.766   5.142  14.061  0.9968  0.6293  1.7122
18392TIP3    H276668   6.690   5.039  14.142 -0.8706  0.3719 -0.2611
18393TIP3   OH276669   3.254   0.061   2.072 -0.2582 -0.3615 -0.5085
18393TIP3    H176670   3.257  -0.018   2.018 -0.5399 -0.0697 -0.9518
18393TIP3    H276671   3.192   0.119   2.028  1.0656  0.7250 -1.0227
18394TIP3   OH276672   2.758   0.396  13.839  0.1538  0.0017  0.6284
18394TIP3    H176673   2.671   0.386  13.800  1.1599 -1.4034 -1.4582
18394TIP3    H276674   2.780   0.309  13.871  1.4786 -0.0996 -0.4775
18395TIP3   OH276675   5.573   0.277  14.708 -0.9172  0.1079  0.8313
18395TIP3    H176676   5.481   0.300  14.701 -1.2887 -1.4272  0.2313
18395TIP3    H276677   5.591   0.225  14.630  0.0321 -0.9364  1.6997
18396TIP3   OH276678   3.709   4.821  15.588  0.2490  0.0054  0.2460
18396TIP3    H176679   3.665   4.811  15.504 -1.3486 -1.5050  1.2038
18396TIP3    H276680   3.754   4.738  15.602 -3.7612 -1.9895  3.1270
18397TIP3   OH276681   6.693   6.292  16.741  0.0728 -0.4984 -0.1206
18397TIP3    H176682   6.739   6.252  16.815 -0.9824  0.5445  1.1599
18397TIP3    H276683   6.600   6.283  16.763 -0.2405  0.4413 -0.9816
18398TIP3   OH276684   0.699   0.554   2.137 -0.5273 -0.1708 -0.7559
18398TIP3    H176685   0.742   0.478   2.175  2.2625  0.3782 -2.5225
18398TIP3    H276686   0.684   0.613   2.211  1.6385 -0.5089  0.0269
18399TIP3   OH276687   3.327   6.065  12.700 -0.2115 -0.2672 -0.3090
18399TIP3    H176688   3.271   6.009  12.754  2.2333 -2.6084  0.0393
18399TIP3    H276689   3.327   6.022  12.614 -0.1520  0.5912 -0.7479
18400TIP3   OH276690   5.151   4.927  13.918  0.0871  0.8792 -0.7613
18400TIP3    H176691   5.123   5.015  13.892 -0.1375  0.5162 -1.7914
18400TIP3    H276692   5.241   4.921  13.887  0.5856  1.2374  0.5612
18401TIP3   OH276693   6.047   6.307   4.565 -0.4019  0.3247  0.0540
18401TIP3    H176694   5.955   6.282   4.557  0.0198 -1.3335 -0.1333
18401TIP3    H276695   6.084   6.288   4.479  0.6893 -1.8347  0.9124
18402TIP3   OH276696   6.246   5.315  11.754 -0.4335  0.4542 -0.0734
18402TIP3    H176697   6.315   5.265  11.798 -0.7261 -1.3502 -1.5381
18402TIP3    H276698   6.165   5.291  11.799 -0.3474  1.1585  0.4745
18403TIP3   OH276699   4.601   0.804  10.812  0.0317  0.1959 -0.5332
18403TIP3    H176700   4.611   0.723  10.762 -0.0406  1.7131 -3.1867
18403TIP3    H276701   4.670   0.861  10.778  0.3085  1.1784  1.5296
18404TIP3   OH276702   6.378   0.503  12.941  0.1720 -0.3137  0.1893
18404TIP3    H176703   6.440   0.434  12.919 -0.9086 -2.0157  2.2135
18404TIP3    H276704   6.423   0.557  13.006  0.1978 -0.4496  0.2837
18405TIP3   OH276705   5.777   2.747  15.200  0.0107  0.0600  0.4715
18405TIP3    H176706   5.794   2.776  15.111 -1.7869  0.3864  0.2000
18405TIP3    H276707   5.855   2.698  15.225  1.2203  1.3247 -0.6822
18406TIP3   OH276708   0.503   4.889   5.035 -0.2661  0.0566 -0.3881
18406TIP3    H176709   0.450   4.921   4.963 -0.3366 -1.6159 -1.1367
18406TIP3    H276710   0.442   4.879   5.108 -0.3172  1.1519 -0.2634
18407TIP3   OH276711   3.213   1.393  14.147 -0.1228 -0.2521  0.2855
18407TIP3    H176712   3.209   1.488  14.135 -0.7790 -0.1598  1.1180
18407TIP3    H276713   3.134   1.372  14.198  0.6765 -1.0603  1.2396
18408TIP3   OH276714   5.035   3.419  16.443  0.4164 -0.0239 -0.0828
18408TIP3    H176715   5.006   3.400  16.354  0.4208  1.2284 -0.3693
18408TIP3    H276716   5.094   3.494  16.434  2.0110 -1.1215  0.7518
18409TIP3   OH276717   6.091   2.487  12.399 -0.3978  0.7215  0.7330
18409TIP3    H176718   6.063   2.451  12.483 -3.8432 -0.4687 -0.7347
18409TIP3    H276719   6.165   2.433  12.372 -0.4655 -0.1040  2.1257
18410TIP3   OH276720   2.227   2.908   1.803 -0.4892 -0.2718 -0.2622
18410TIP3    H176721   2.226   2.820   1.840 -1.2429 -0.1142  0.1088
18410TIP3    H276722   2.304   2.909   1.746  0.6212 -0.5805  1.1669
18411TIP3   OH276723   2.989   4.455  11.703 -0.0637  0.5258 -0.0756
18411TIP3    H176724   2.995   4.539  11.658  0.2104  2.2547  2.9102
18411TIP3    H276725   2.896   4.436  11.707 -0.3759  2.1955  1.6508
18412TIP3   OH276726   2.692   3.292   2.287  0.6391 -0.0009  0.4502
18412TIP3    H176727   2.661   3.317   2.200 -0.5711  2.1100  1.4375
18412TIP3    H276728   2.779   3.331   2.293  0.4768  0.3621  0.4252
18413TIP3   OH276729   6.579   2.563   2.235  0.4818 -0.3915  0.0184
18413TIP3    H176730   6.510   2.559   2.301  0.1263 -1.1388 -0.3747
18413TIP3    H276731   6.659   2.543   2.283  0.4414  0.5582  0.4919
18414TIP3   OH276732   1.971   3.783   4.153 -0.6767  0.0830  0.2638
18414TIP3    H176733   2.058   3.796   4.192 -1.1216  1.4891  0.8395
18414TIP3    H276734   1.978   3.821   4.065 -0.8394  0.6276  0.4843
18415TIP3   OH276735   3.916   1.563   1.182 -0.2057 -0.1429 -0.1918
18415TIP3    H176736   3.828   1.595   1.205 -0.1714  0.7730 -1.2256
18415TIP3    H276737   3.953   1.633   1.128  1.2496 -0.4326  0.4035
18416TIP3   OH276738   3.836   4.549  16.831  0.0670 -0.8433  0.1411
18416TIP3    H176739   3.798   4.500  16.904  1.4080 -1.3256  0.5437
18416TIP3    H276740   3.913   4.498  16.805  0.9171  0.5018 -0.0930
18417TIP3   OH276741   0.515   1.926   1.571 -0.2394  0.4557  0.1461
18417TIP3    H176742   0.563   1.920   1.654  0.5934 -0.6691 -0.3956
18417TIP3    H276743   0.509   1.835   1.540  0.2793  0.9350 -1.4740
18418TIP3   OH276744   0.282   2.893   3.190 -0.0361 -0.1876 -0.0121
18418TIP3    H176745   0.193   2.862   3.208 -0.0256 -0.9284 -1.1290
18418TIP3    H276746   0.274   2.988   3.184 -1.0399 -0.3228 -1.3976
18419TIP3   OH276747   2.561   1.485  13.186 -0.2759  0.2608 -0.2191
18419TIP3    H176748   2.596   1.547  13.250  0.5162  1.5252 -1.7890
18419TIP3    H276749   2.637   1.436  13.155 -0.0490  1.8594 -2.4256
18420TIP3   OH276750   5.845   4.918  13.286 -0.1814  0.1345 -0.1248
18420TIP3    H176751   5.768   4.935  13.232 -0.8931 -0.8435  0.5524
18420TIP3    H276752   5.847   4.990  13.349 -1.3771 -0.5806  0.7569
18421TIP3   OH276753   2.116   4.767  15.497  0.9890 -0.4219  0.3709
18421TIP3    H176754   2.125   4.807  15.584  2.5299 -0.0696  0.0820
18421TIP3    H276755   2.162   4.684  15.504 -0.0705 -1.0363  0.2582
18422TIP3   OH276756   1.020   4.211  13.739  0.4743  0.3622  0.5853
18422TIP3    H176757   1.071   4.196  13.659  0.4639  1.0469  0.4424
18422TIP3    H276758   0.937   4.246  13.707  0.2917  0.1910  0.8745
18423TIP3   OH276759   0.554   0.813   0.963 -0.6186  0.2910  0.3834
18423TIP3    H176760   0.480   0.832   0.904  0.2199  2.6942  0.0092
18423TIP3    H276761   0.516   0.820   1.051 -0.7746  1.9177  0.2035
18424TIP3   OH276762   1.621   5.090   5.133  0.3581  0.2301  0.1373
18424TIP3    H176763   1.617   5.004   5.090 -1.3911  0.0854  0.5225
18424TIP3    H276764   1.567   5.147   5.077  0.1926  0.6885  0.7574
18425TIP3   OH276765   2.024   1.142   0.083  0.5492  0.7475 -0.2300
18425TIP3    H176766   1.929   1.136   0.077  0.6032  0.2498 -0.6456
18425TIP3    H276767   2.056   1.084   0.014  1.1478  1.9188 -0.9809
18426TIP3   OH276768   0.540   1.167   0.406 -0.0717  0.4231  0.1520
18426TIP3    H176769   0.635   1.177   0.403  0.1445 -1.2048  0.6780
18426TIP3    H276770   0.524   1.105   0.478 -1.2745 -1.7941 -1.8758
18427TIP3   OH276771   3.531   4.355  15.633 -0.2175 -0.2153  0.4282
18427TIP3    H176772   3.457   4.322  15.683  0.8626 -0.3563  2.0058
18427TIP3    H276773   3.502   4.352  15.541 -2.4630  0.5970  1.0495
18428TIP3   OH276774   6.345   2.707   1.567  0.2053  0.0395 -0.2087
18428TIP3    H176775   6.308   2.644   1.629 -0.2407  0.0526 -0.4649
18428TIP3    H276776   6.427   2.735   1.608  1.4374 -2.1626 -0.9450
18429TIP3   OH276777   1.409   4.331  11.919 -0.0737  0.2336  0.5455
18429TIP3    H176778   1.329   4.279  11.932 -0.4544  1.0053  1.3648
18429TIP3    H276779   1.478   4.280  11.961 -0.5792  0.7211  2.0258
18430TIP3   OH276780   1.051   1.282   3.238 -0.1663  0.1512  0.4110
18430TIP3    H176781   1.138   1.280   3.277  0.5443 -0.2948 -1.1071
18430TIP3    H276782   0.991   1.296   3.311  1.1364 -0.1067  1.5526
18431TIP3   OH276783   4.532   1.762  14.460 -0.4409  0.2012  0.6685
18431TIP3    H176784   4.553   1.800  14.545  0.3399 -0.9096  1.0052
18431TIP3    H276785   4.456   1.706  14.477  0.1083 -0.5233  0.7939
18432TIP3   OH276786   3.340   5.413   4.963  0.1455 -0.7822 -0.4420
18432TIP3    H176787   3.353   5.507   4.972  1.7341 -1.0379  0.1955
18432TIP3    H276788   3.249   5.399   4.991 -0.4704  0.6690 -1.5785
18433TIP3   OH276789   4.710   2.230  12.997  0.6020  0.0845  0.0547
18433TIP3    H176790   4.724   2.313  12.950  0.4259 -0.4604 -0.9902
18433TIP3    H276791   4.728   2.163  12.932  1.0134 -0.7095  0.9792
18434TIP3   OH276792   1.391   1.178   0.597 -0.4060 -0.2555  0.1410
18434TIP3    H176793   1.480   1.144   0.592 -0.3585 -0.6632  2.4418
18434TIP3    H276794   1.337   1.102   0.620 -1.5148 -0.1664 -1.9235
18435TIP3   OH276795   0.724   0.276   4.958  0.0198  0.0476 -1.0050
18435TIP3    H176796   0.719   0.338   5.032 -0.3161  0.2416 -1.1888
18435TIP3    H276797   0.782   0.319   4.895  0.4449 -0.1943 -0.7874
18436TIP3   OH276798   4.808   4.052   3.364  0.0781 -0.4087  0.3199
18436TIP3    H176799   4.748   4.046   3.439 -0.7629  1.3252 -0.1613
18436TIP3    H276800   4.756   4.092   3.295  0.9654 -1.5983 -1.0975
18437TIP3   OH276801   5.893   2.541  11.234 -0.1040 -0.0916  0.1999
18437TIP3    H176802   5.939   2.555  11.317  2.1422 -1.4663 -0.7385
18437TIP3    H276803   5.961   2.517  11.172 -1.8246  0.1100 -1.8912
18438TIP3   OH276804   6.757   1.783  14.775  0.0400  0.0170 -0.0943
18438TIP3    H176805   6.849   1.808  14.785  0.5665 -1.0164 -1.9115
18438TIP3    H276806   6.745   1.712  14.839  1.9658 -3.1917 -2.9466
18439TIP3   OH276807   2.739   1.669   1.029 -0.1513 -0.1695 -0.2320
18439TIP3    H176808   2.800   1.678   0.956 -0.2072 -0.6350 -0.3385
18439TIP3    H276809   2.784   1.709   1.103  0.8310 -1.5957 -0.0093
18440TIP3   OH276810   5.866   4.179   0.512  0.1209 -0.3685  0.4104
18440TIP3    H176811   5.808   4.103   0.514  0.2365 -0.6319 -2.2939
18440TIP3    H276812   5.935   4.154   0.450 -1.2826  2.8748 -2.7305
18441TIP3   OH276813   6.515   3.321   1.064  0.0921  0.3228  0.2077
18441TIP3    H176814   6.524   3.408   1.024 -2.0606  1.3451  1.7317
18441TIP3    H276815   6.465   3.271   0.999 -0.5496  0.9349  0.2108
18442TIP3   OH276816   6.757   1.278   3.718  0.1062  1.0410  0.4361
18442TIP3    H176817   6.747   1.183   3.712  0.3539  0.9939  0.7210
18442TIP3    H276818   6.676   1.313   3.681  0.8288  0.7607 -1.5367
18443TIP3   OH276819   2.804   4.118   1.709 -0.6108 -0.1055  0.0262
18443TIP3    H176820   2.754   4.180   1.762  1.1016  1.6564 -0.3115
18443TIP3    H276821   2.745   4.095   1.637 -1.7541  0.0856  0.8796
18444TIP3   OH276822   3.632   5.647   3.524 -0.2667  0.2367 -0.0745
18444TIP3    H176823   3.580   5.567   3.528 -0.2344  0.2424  0.8890
18444TIP3    H276824   3.572   5.716   3.551 -0.2935  0.5437 -0.8972
18445TIP3   OH276825   1.531   3.821   1.046  0.6964 -0.0810  0.2822
18445TIP3    H176826   1.463   3.888   1.045 -0.6175 -1.3501  0.4323
18445TIP3    H276827   1.557   3.811   0.954 -0.7334 -0.9309 -0.0487
18446TIP3   OH276828   2.054   3.711   0.145  0.7577 -0.2983 -0.1335
18446TIP3    H176829   1.984   3.773   0.168  0.1361 -0.2649 -1.9109
18446TIP3    H276830   2.063   3.721   0.050  0.2097 -3.3686 -0.5927
18447TIP3   OH276831   0.968   6.393   2.107  0.3129  0.1596  0.6482
18447TIP3    H176832   1.036   6.331   2.079  0.8494  0.8725  0.3148
18447TIP3    H276833   0.976   6.466   2.045  0.3252  0.9804  1.5791
18448TIP3   OH276834   0.767   5.457  15.448 -0.0578 -0.4543  0.3406
18448TIP3    H176835   0.755   5.376  15.398 -0.1854 -0.5955  0.6007
18448TIP3    H276836   0.728   5.525  15.392 -3.0881 -1.0243  1.5857
18449TIP3   OH276837   6.497   2.149   0.884  0.5679  0.2221 -0.3659
18449TIP3    H176838   6.472   2.087   0.816  0.3835  1.7821 -1.8056
18449TIP3    H276839   6.591   2.164   0.871  0.7626 -0.2824  0.4290
18450TIP3   OH276840   6.417   4.966  13.575 -0.2057 -0.3022 -0.3090
18450TIP3    H176841   6.399   5.058  13.553 -0.2350 -0.6640 -1.9085
18450TIP3    H276842   6.512   4.957  13.566 -0.4500 -1.0404 -2.8748
18451TIP3   OH276843   5.497   5.663  16.258  0.5327  0.4352 -0.2062
18451TIP3    H176844   5.555   5.705  16.195  1.2652  1.7675  1.3012
18451TIP3    H276845   5.555   5.611  16.313  0.1155  0.6613  0.4498
18452TIP3   OH276846   3.578   2.539   1.762  0.1030  0.9001 -0.8408
18452TIP3    H176847   3.487   2.540   1.732  0.0102  2.2958 -0.5865
18452TIP3    H276848   3.573   2.555   1.856  0.5821  0.1008 -0.6692
18453TIP3   OH276849   1.231   3.449   5.827  0.0637 -0.1376  0.2941
18453TIP3    H176850   1.220   3.373   5.884  0.0793  0.3548  0.9612
18453TIP3    H276851   1.297   3.421   5.764  0.5638 -0.4533  0.9412
18454TIP3   OH276852   1.859   1.673   0.622 -0.0772  0.1341  0.0025
18454TIP3    H176853   1.764   1.667   0.612  0.1185 -0.0312 -2.1640
18454TIP3    H276854   1.893   1.677   0.533  1.9638  0.2800  0.7244
18455TIP3   OH276855   3.425   0.311  13.389 -0.3881  0.7687  0.2122
18455TIP3    H176856   3.475   0.271  13.460  0.5765  0.9261 -0.3608
18455TIP3    H276857   3.356   0.247  13.369  0.1243  0.1408  0.4201
18456TIP3   OH276858   6.051   3.533  14.820 -0.5922 -0.1909  0.6555
18456TIP3    H176859   6.072   3.501  14.908  0.2538 -0.6319  0.3181
18456TIP3    H276860   6.117   3.600  14.803 -1.8261  1.1347  1.0142
18457TIP3   OH276861   2.474   3.868   3.762 -0.6394 -0.3627 -0.0379
18457TIP3    H176862   2.429   3.784   3.767  0.9629 -1.4768 -2.6137
18457TIP3    H276863   2.445   3.906   3.679 -0.3722  1.0619  0.4916
18458TIP3   OH276864   2.527   6.522   0.017 -0.2534 -0.4131  0.0432
18458TIP3    H176865   2.464   6.592   0.001  0.1121 -0.1749 -0.3980
18458TIP3    H276866   2.550   6.531   0.110 -0.8436 -0.4869  0.2014
18459TIP3   OH276867   1.435   4.471  14.891 -0.1951  0.1843 -0.0225
18459TIP3    H176868   1.452   4.566  14.897 -1.3674  0.3614  0.6929
18459TIP3    H276869   1.393   4.460  14.806 -3.2795  0.8798  1.2706
18460TIP3   OH276870   0.351   1.462   4.182 -0.2444 -0.6307  0.4340
18460TIP3    H176871   0.363   1.390   4.243 -1.5069 -0.1511  1.2912
18460TIP3    H276872   0.270   1.505   4.210  0.5535  1.2419  0.0719
18461TIP3   OH276873   4.327   1.873  13.252  0.3327 -0.3785  0.3303
18461TIP3    H176874   4.278   1.818  13.191  2.6982 -0.9126 -1.2114
18461TIP3    H276875   4.279   1.956  13.254 -0.5486 -0.8247 -1.2177
18462TIP3   OH276876   2.117   5.376   3.011  0.1692 -0.2089  0.1805
18462TIP3    H176877   2.180   5.366   3.083  1.0132 -0.4313 -0.5681
18462TIP3    H276878   2.063   5.298   3.015 -0.0261 -0.0513  0.7901
18463TIP3   OH276879   6.225   1.989   6.398 -0.0760  0.4392 -0.3670
18463TIP3    H176880   6.304   2.041   6.381  1.2377 -1.3972 -0.1616
18463TIP3    H276881   6.255   1.898   6.396 -2.2875 -0.3545 -0.7521
18464TIP3   OH276882   0.224   0.752  12.528 -0.5499 -0.0765 -0.0499
18464TIP3    H176883   0.288   0.726  12.594  1.6956  1.2415 -1.5697
18464TIP3    H276884   0.233   0.686  12.459 -1.7467 -0.5597  0.2326
18465TIP3   OH276885   3.209   0.290  14.488  0.1042 -0.3768 -0.5561
18465TIP3    H176886   3.148   0.228  14.528  0.6593 -0.5297  0.0722
18465TIP3    H276887   3.154   0.355  14.446 -0.5484 -2.2452 -2.7834
18466TIP3   OH276888   3.749   6.662  15.425 -0.5211 -0.1313 -0.1727
18466TIP3    H176889   3.747   6.756  15.407 -0.8818  0.1618  1.2977
18466TIP3    H276890   3.658   6.634  15.418 -0.2157 -0.7611 -2.3626
18467TIP3   OH276891   6.630   0.709  16.737 -0.0906  0.5597 -0.3140
18467TIP3    H176892   6.717   0.688  16.772  0.0967  0.8609 -0.6011
18467TIP3    H276893   6.617   0.801  16.759 -0.5445  0.3885  0.1589
18468TIP3   OH276894   5.667   6.021  16.443 -0.3754 -0.2005 -0.0083
18468TIP3    H176895   5.609   6.069  16.384 -0.4045  0.1597  0.3081
18468TIP3    H276896   5.664   6.071  16.525 -0.9087 -1.0945  0.5290
18469TIP3   OH276897   5.031   0.377  13.444  0.2306 -0.3260 -1.0618
18469TIP3    H176898   4.971   0.418  13.506 -0.1111 -2.4173  0.1027
18469TIP3    H276899   5.116   0.418  13.462 -0.3703  0.9946 -1.1044
18470TIP3   OH276900   4.508   5.863   1.186  0.1706  0.1363 -0.2368
18470TIP3    H176901   4.527   5.876   1.093 -0.3328 -0.3766 -0.4180
18470TIP3    H276902   4.578   5.806   1.217  1.0251  1.2719 -0.0036
18471TIP3   OH276903   6.158   1.475  12.359  0.3012  0.1328 -0.0639
18471TIP3    H176904   6.159   1.571  12.355 -1.3072  0.2519  1.1508
18471TIP3    H276905   6.067   1.452  12.340  1.1022 -1.3262 -2.5300
18472TIP3   OH276906   4.520   6.545  15.087 -0.3151  0.5749 -0.0094
18472TIP3    H176907   4.594   6.606  15.093  0.1389  0.2518 -1.6391
18472TIP3    H276908   4.553   6.465  15.127  0.5619  0.1797 -1.4263
18473TIP3   OH276909   3.183   3.072  12.172 -0.5322  0.2091 -0.0717
18473TIP3    H176910   3.211   3.048  12.260  2.5875  1.1136 -0.7047
18473TIP3    H276911   3.220   3.004  12.115 -1.1025  0.5190 -0.8319
18474TIP3   OH276912   2.186   2.227   1.325 -0.1319  0.0367 -0.8596
18474TIP3    H176913   2.255   2.168   1.296 -1.0524 -1.9417  0.7225
18474TIP3    H276914   2.138   2.250   1.246  0.3264 -1.2546 -1.5267
18475TIP3   OH276915   5.385   5.824  16.062 -0.0330 -0.7618  0.0618
18475TIP3    H176916   5.440   5.888  16.107 -0.8641 -0.8415  1.2401
18475TIP3    H276917   5.325   5.793  16.129 -1.8979 -0.2886 -1.3175
18476TIP3   OH276918   2.092   0.847  16.382  0.2855  0.1363 -0.4922
18476TIP3    H176919   2.113   0.762  16.419 -0.1021  0.4020  0.3549
18476TIP3    H276920   2.023   0.882  16.438  1.6832  1.8006  0.3131
18477TIP3   OH276921   4.967   3.612  11.431  0.8943 -0.1903 -0.4952
18477TIP3    H176922   5.047   3.652  11.464  0.7331  0.8298 -1.2819
18477TIP3    H276923   4.993   3.568  11.350  0.4810  1.1266 -1.3812
18478TIP3   OH276924   3.996   0.672  14.204  0.0572  0.0337 -0.6208
18478TIP3    H176925   3.917   0.619  14.197  0.9763 -1.3552 -0.7615
18478TIP3    H276926   4.068   0.611  14.189  1.3942  0.3804  3.2656
18479TIP3   OH276927   4.249   5.049  12.365 -0.0657  0.3191  0.1008
18479TIP3    H176928   4.189   4.988  12.323  0.2634 -0.3369  0.5672
18479TIP3    H276929   4.192   5.116  12.402 -0.4952 -0.1518  0.3107
18480TIP3   OH276930   6.481   3.160   3.965  0.2352  0.7075  0.1485
18480TIP3    H176931   6.463   3.072   3.997  0.8806  0.0195 -1.3260
18480TIP3    H276932   6.420   3.173   3.893 -1.9505  2.6600  2.1683
18481TIP3   OH276933   4.635   3.196  11.490 -0.0260  0.2675  0.6265
18481TIP3    H176934   4.559   3.158  11.444 -0.4731  1.8200  0.0188
18481TIP3    H276935   4.692   3.121  11.508  0.0374 -0.4879 -2.2068
18482TIP3   OH276936   4.896   6.790  12.238 -0.5500  0.2483 -0.7027
18482TIP3    H176937   4.947   6.866  12.265 -0.2427  1.3820 -4.0248
18482TIP3    H276938   4.939   6.716  12.280  0.8706  1.6339  0.3929
18483TIP3   OH276939   0.861   2.417   2.936  0.0342 -0.0608  0.4112
18483TIP3    H176940   0.911   2.392   2.858 -0.2052 -1.2406  0.6079
18483TIP3    H276941   0.918   2.479   2.982  0.5233  0.0291 -0.2906
18484TIP3   OH276942   5.967   5.103   4.241 -0.3333  0.0086  0.2356
18484TIP3    H176943   5.908   5.031   4.219  1.2841 -2.1643  2.5370
18484TIP3    H276944   6.017   5.072   4.316  4.0746  1.4824 -1.7399
18485TIP3   OH276945   1.416   0.126  15.680 -0.3909 -0.6562  0.2131
18485TIP3    H176946   1.353   0.069  15.724 -0.9572 -1.5937 -1.7274
18485TIP3    H276947   1.470   0.067  15.628  2.4661  0.0577  2.1224
18486TIP3   OH276948   1.914   4.543  10.838 -0.4927  0.0010  0.9583
18486TIP3    H176949   1.842   4.576  10.784 -1.1204  1.4639  2.6079
18486TIP3    H276950   1.991   4.591  10.806 -0.8160  0.6937  1.1962
18487TIP3   OH276951   4.495   3.809   4.015  0.4258  0.5901  0.0243
18487TIP3    H176952   4.501   3.904   4.009  3.0664  0.6111  1.3632
18487TIP3    H276953   4.466   3.792   4.105 -0.7992  0.0976 -0.4409
18488TIP3   OH276954   1.661   2.045   2.342  0.0218 -0.2402  0.1306
18488TIP3    H176955   1.628   1.994   2.415  1.6344 -1.7050 -0.0988
18488TIP3    H276956   1.695   2.125   2.382 -1.9133  0.4199  0.5714
18489TIP3   OH276957   2.432   2.971  16.047  0.4994  0.0497 -0.3431
18489TIP3    H176958   2.472   2.935  15.967  1.7513 -1.3160  0.8343
18489TIP3    H276959   2.404   3.059  16.022 -1.5526 -1.1994 -3.0277
18490TIP3   OH276960   4.201   4.930  13.472  0.0491  0.3265  0.2745
18490TIP3    H176961   4.198   4.837  13.450  0.2041  0.7426 -1.7004
18490TIP3    H276962   4.134   4.941  13.540  0.9637 -1.4342  1.5221
18491TIP3   OH276963   5.585   0.892  14.154  0.3452 -0.6113 -0.6788
18491TIP3    H176964   5.665   0.894  14.101 -0.3656  0.0352 -1.7583
18491TIP3    H276965   5.529   0.959  14.116  0.5179  1.2936  2.0692
18492TIP3   OH276966   0.879   2.597   2.021  0.1860 -0.3092  0.0651
18492TIP3    H176967   0.944   2.571   2.085  0.1666 -1.1480 -0.2403
18492TIP3    H276968   0.885   2.531   1.952  1.0590  1.2310 -1.4068
18493TIP3   OH276969   5.384   1.029  16.891  0.3084 -0.3152 -0.3818
18493TIP3    H176970   5.474   1.005  16.917  0.5735 -0.7277 -1.6156
18493TIP3    H276971   5.395   1.083  16.813 -0.4780  0.8332  0.2743
18494TIP3   OH276972   0.673   0.705   3.899  0.2961  0.0431 -0.1752
18494TIP3    H176973   0.677   0.758   3.820 -1.0017  0.4177 -0.0057
18494TIP3    H276974   0.699   0.617   3.870  2.6640  0.7368 -0.4180
18495TIP3   OH276975   5.287   2.732  13.350  0.2030 -0.2869 -0.0856
18495TIP3    H176976   5.278   2.680  13.430 -1.5940  0.2504  0.1070
18495TIP3    H276977   5.259   2.820  13.375  0.8235  0.1877 -1.0095
18496TIP3   OH276978   5.259   6.438   0.296  0.4744  0.0428 -0.5937
18496TIP3    H176979   5.328   6.449   0.361  1.8527 -0.6193 -1.8788
18496TIP3    H276980   5.297   6.378   0.231 -1.4215 -0.5690 -1.1978
18497TIP3   OH276981   4.166   1.549   3.362  0.5157  0.3437  0.2074
18497TIP3    H176982   4.178   1.592   3.446 -1.3192  1.5825 -0.0961
18497TIP3    H276983   4.163   1.620   3.298  0.1091 -0.4193 -0.6606
18498TIP3   OH276984   2.038   5.752   3.525 -0.1789 -0.0740 -0.3602
18498TIP3    H176985   1.953   5.740   3.568  0.6467  1.4749  1.9127
18498TIP3    H276986   2.102   5.720   3.589  1.0097 -0.4832 -1.7041
18499TIP3   OH276987   5.303   6.785   0.417  0.3594 -0.7211 -0.4451
18499TIP3    H176988   5.216   6.748   0.399  0.2370 -0.0366 -1.3029
18499TIP3    H276989   5.355   6.763   0.340  0.7259 -0.4410 -0.2829
18500TIP3   OH276990   3.110   6.088   6.113  0.3451 -0.3422  0.0438
18500TIP3    H176991   3.015   6.081   6.121  0.4496 -0.7296  1.1091
18500TIP3    H276992   3.124   6.138   6.033 -0.7012 -2.4189 -1.5391
18501TIP3   OH276993   6.613   2.636  13.288 -0.5825  0.6266 -0.3809
18501TIP3    H176994   6.637   2.633  13.380  0.9090  0.8550 -0.7281
18501TIP3    H276995   6.555   2.561  13.275  1.2211 -0.9391  0.2274
18502TIP3   OH276996   6.234   2.109  16.204 -0.5403  0.5556 -0.2784
18502TIP3    H176997   6.223   2.165  16.281 -0.2080  0.9279 -0.4989
18502TIP3    H276998   6.204   2.164  16.131 -0.0993  0.4843 -0.5105
18503TIP3   OH276999   5.773   6.678   5.793 -0.6977  0.1639  0.2659
18503TIP3    H177000   5.756   6.770   5.775 -1.9343 -0.1241 -0.1610
18503TIP3    H277001   5.693   6.647   5.837 -1.0045 -1.0939 -1.1134
18504TIP3   OH277002   6.442   0.151   1.652  0.0819  1.1428 -0.1482
18504TIP3    H177003   6.485   0.201   1.582  0.9299 -0.9089 -1.1779
18504TIP3    H277004   6.493   0.070   1.659 -1.0326  0.5350  1.6711
18505TIP3   OH277005   0.811   5.209  15.350 -0.2133  0.3877  0.3480
18505TIP3    H177006   0.797   5.165  15.434  0.0241  0.4725  0.4310
18505TIP3    H277007   0.759   5.157  15.288  0.2123 -0.1223  0.4130
18506TIP3   OH277008   2.123   1.893   1.247  0.7011 -0.5656  0.2440
18506TIP3    H177009   2.075   1.940   1.315  0.3895 -2.0675  1.1230
18506TIP3    H277010   2.214   1.915   1.261  0.5663 -0.3002  0.6991
18507TIP3   OH277011   3.612   6.088   4.797  0.6561  0.0223 -0.8006
18507TIP3    H177012   3.678   6.066   4.731 -0.0567 -0.8453 -1.2515
18507TIP3    H277013   3.601   6.008   4.848  1.7959  0.9172  0.9518
18508TIP3   OH277014   2.483   3.603  16.134  0.0424 -0.0436 -0.0337
18508TIP3    H177015   2.532   3.645  16.063 -0.8781  0.7139 -0.2254
18508TIP3    H277016   2.547   3.543  16.174  1.1189  0.8724 -0.3182
18509TIP3   OH277017   1.850   3.227   6.459  0.3428  0.4090  0.2691
18509TIP3    H177018   1.825   3.312   6.422 -0.1944 -0.4868 -1.5060
18509TIP3    H277019   1.945   3.234   6.470  1.2698 -0.3736 -4.6861
18510TIP3   OH277020   1.724   1.804  11.885 -0.8191  0.5140 -0.2151
18510TIP3    H177021   1.679   1.846  11.811 -2.1465  0.3126  0.4471
18510TIP3    H277022   1.778   1.736  11.844 -1.0606  0.8041 -1.0503
18511TIP3   OH277023   2.551   5.438  12.942  0.2112  0.0373 -0.1259
18511TIP3    H177024   2.542   5.343  12.947  0.6718  0.0360  0.9950
18511TIP3    H277025   2.634   5.457  12.986  0.7419  0.8639 -1.4307
18512TIP3   OH277026   4.878   6.029  15.038 -0.1060 -0.3050  0.4926
18512TIP3    H177027   4.837   5.960  14.986  1.3161 -0.6762 -0.1977
18512TIP3    H277028   4.932   5.983  15.102  0.8290  0.1324  0.0519
18513TIP3   OH277029   3.694   0.998   5.349 -0.1204  0.3549 -0.1299
18513TIP3    H177030   3.766   0.947   5.311  0.6816  1.1751  0.2625
18513TIP3    H277031   3.634   1.012   5.276  1.0087  1.2130 -0.9242
18514TIP3   OH277032   6.498   5.132  11.400 -0.0860  0.3472  0.1488
18514TIP3    H177033   6.447   5.089  11.331  0.4234 -0.2452  0.1290
18514TIP3    H277034   6.452   5.214  11.416 -1.0411 -0.1656  0.1318
18515TIP3   OH277035   6.491   0.671   6.379 -0.3687 -0.2804 -0.1571
18515TIP3    H177036   6.545   0.750   6.371 -0.2494 -0.2849  0.5608
18515TIP3    H277037   6.401   0.702   6.366 -0.7216  0.6449  3.5662
18516TIP3   OH277038   0.482   0.236   5.614 -0.8887  0.0042 -0.1315
18516TIP3    H177039   0.554   0.257   5.673  0.6715 -2.0204 -1.2180
18516TIP3    H277040   0.406   0.279   5.654  0.6401  1.1730  1.7179
18517TIP3   OH277041   1.314   0.986  14.969  0.2577 -0.5774 -0.6077
18517TIP3    H177042   1.233   0.991  14.918  0.5046 -1.3464 -1.0869
18517TIP3    H277043   1.379   0.951  14.908  0.8232 -0.4689 -0.0753
18518TIP3   OH277044   4.514   5.733  17.088  0.0472  0.1401  0.5265
18518TIP3    H177045   4.502   5.828  17.083  1.8174  0.3618 -0.6532
18518TIP3    H277046   4.602   5.722  17.125  0.1437 -1.0078  0.0038
18519TIP3   OH277047   0.235   2.172  11.977  0.2649 -0.2148 -0.5351
18519TIP3    H177048   0.309   2.114  11.959  1.5157  0.9404  0.6863
18519TIP3    H277049   0.251   2.249  11.922 -0.0977  0.0075 -0.3290
18520TIP3   OH277050   5.623   5.594   2.934  0.1792  0.6377  0.2532
18520TIP3    H177051   5.549   5.641   2.896  0.3845 -0.4092 -1.5662
18520TIP3    H277052   5.601   5.502   2.925  1.1586  0.3287  0.8400
18521TIP3   OH277053   2.823   5.707  10.931 -0.0908  0.0848 -0.0165
18521TIP3    H177054   2.742   5.731  10.976 -1.6418 -1.2300 -1.9354
18521TIP3    H277055   2.796   5.688  10.841  2.3800 -0.3233 -0.7532
18522TIP3   OH277056   2.829   4.619   2.508 -0.5974  0.2935 -0.4831
18522TIP3    H177057   2.808   4.686   2.443  0.1825 -0.1561 -1.2072
18522TIP3    H277058   2.907   4.652   2.552 -0.5531  0.1308 -0.4407
18523TIP3   OH277059   1.544   4.946   0.467 -0.7593  0.4786 -0.0698
18523TIP3    H177060   1.622   4.952   0.412 -1.3363 -0.3147 -1.0024
18523TIP3    H277061   1.546   5.026   0.519  2.6551 -1.1479  2.6708
18524TIP3   OH277062   3.953   5.955  15.333 -0.6220 -0.4059 -0.2794
18524TIP3    H177063   3.859   5.939  15.322 -0.3799 -1.3938 -1.0875
18524TIP3    H277064   3.980   5.997  15.252 -0.4689  0.4805  0.2140
18525TIP3   OH277065   5.896   3.063  13.668  0.3598 -0.9078  0.2227
18525TIP3    H177066   5.893   3.148  13.625  0.2908 -0.7510  0.5360
18525TIP3    H277067   5.817   3.060  13.722  0.0867 -1.3872 -0.1879
18526TIP3   OH277068   4.550   2.251   3.586  0.1419 -0.3839  0.4676
18526TIP3    H177069   4.492   2.292   3.521  0.2704 -0.6755  0.1644
18526TIP3    H277070   4.638   2.279   3.560  0.1606 -0.1805  0.7515
18527TIP3   OH277071   4.622   1.524   4.549 -0.0392 -0.0401  0.5916
18527TIP3    H177072   4.611   1.615   4.523  1.3063 -0.5070 -1.8892
18527TIP3    H277073   4.713   1.518   4.579  0.2756 -0.7995 -0.4641
18528TIP3   OH277074   3.303   0.376   1.869 -0.1648  0.1551  0.4943
18528TIP3    H177075   3.291   0.466   1.900 -0.8641 -0.0390  0.8224
18528TIP3    H277076   3.223   0.331   1.896 -0.0006 -0.4672 -0.0278
18529TIP3   OH277077   6.464   6.114  11.686  0.0032 -0.8506  0.4739
18529TIP3    H177078   6.424   6.033  11.653  0.4362 -1.6119  1.7580
18529TIP3    H277079   6.557   6.093  11.696  0.3807  0.2450 -0.4489
18530TIP3   OH277080   0.179   6.061   3.724 -0.1588  0.4160  0.0752
18530TIP3    H177081   0.147   5.985   3.772 -1.3972  0.6521 -0.3569
18530TIP3    H277082   0.140   6.054   3.637  2.8596 -0.5765 -1.3541
18531TIP3   OH277083   5.327   6.302  15.689  0.3201 -0.4355  0.3924
18531TIP3    H177084   5.363   6.381  15.729  0.1710 -0.4716  0.5946
18531TIP3    H277085   5.309   6.244  15.762  0.9491 -0.8770  0.2078
18532TIP3   OH277086   1.737   2.972  16.427  0.0804 -0.1343 -0.2850
18532TIP3    H177087   1.663   2.938  16.478 -1.1130  0.0067 -1.8325
18532TIP3    H277088   1.807   2.909  16.442 -0.5634 -0.6430  0.6964
18533TIP3   OH277089   2.059   4.768   0.178  0.2604  0.2597  0.2490
18533TIP3    H177090   2.081   4.675   0.170 -1.6707 -0.4811  2.3814
18533TIP3    H277091   2.117   4.801   0.247  0.1559  0.3300  0.3043
18534TIP3   OH277092   3.191   1.626  12.303 -0.2918  0.2967  0.0680
18534TIP3    H177093   3.170   1.599  12.392 -0.3044 -1.9488 -0.5469
18534TIP3    H277094   3.187   1.545  12.252  0.5570  1.3741 -1.8237
18535TIP3   OH277095   0.281   3.825  17.061  0.4244 -0.3104  0.7172
18535TIP3    H177096   0.226   3.837  16.984 -0.4945  0.8527  1.5234
18535TIP3    H277097   0.365   3.864  17.037  0.2687 -0.2945  0.1783
18536TIP3   OH277098   2.926   0.019  16.510 -0.3102 -0.6095  0.2007
18536TIP3    H177099   2.859   0.088  16.518 -0.3184 -0.4243 -1.2436
18536TIP3    H277100   2.876  -0.061  16.494 -0.2240 -0.6124 -0.0573
18537TIP3   OH277101   0.415   0.618   5.356  0.3124 -0.1629 -0.0744
18537TIP3    H177102   0.422   0.702   5.401  1.0055 -0.6436  0.7436
18537TIP3    H277103   0.493   0.570   5.383  0.1252 -0.9189 -0.8500
18538TIP3   OH277104   2.292   0.292  11.922 -0.0831 -0.2636  0.0742
18538TIP3    H177105   2.371   0.279  11.870 -2.1272 -1.3865 -3.1211
18538TIP3    H277106   2.283   0.387  11.930  0.8981 -0.0935 -0.6577
18539TIP3   OH277107   5.088   6.417   3.676 -0.1341 -0.0521 -0.8849
18539TIP3    H177108   5.146   6.417   3.752  0.2432 -0.4421 -1.1644
18539TIP3    H277109   5.141   6.452   3.604 -0.2997 -0.2350 -1.1014
18540TIP3   OH277110   4.991   1.621   2.143 -0.3088 -0.6229 -0.0503
18540TIP3    H177111   4.903   1.649   2.167  0.0276  0.5355 -0.0619
18540TIP3    H277112   4.980   1.535   2.103 -1.3844 -0.6545  0.2957
18541TIP3   OH277113   5.900   0.406   4.453  0.7361 -0.2905  0.5248
18541TIP3    H177114   5.865   0.376   4.368 -0.6116  0.1763  0.8888
18541TIP3    H277115   5.992   0.424   4.435  0.8157 -1.5409 -0.4960
18542TIP3   OH277116   2.998   0.118   0.232  0.4827 -0.5486 -0.0713
18542TIP3    H177117   2.921   0.175   0.223 -0.4291 -1.3932  1.7336
18542TIP3    H277118   3.010   0.081   0.145 -0.6861  0.1858 -0.5849
18543TIP3   OH277119   3.139   1.398  11.419 -0.6340 -0.7620  0.4602
18543TIP3    H177120   3.118   1.426  11.508 -0.1540  0.5555  0.1823
18543TIP3    H277121   3.084   1.321  11.405 -1.8532 -0.0987  1.3565
18544TIP3   OH277122   2.033   1.354  13.178  0.3424  0.0414 -0.0029
18544TIP3    H177123   2.099   1.423  13.172 -1.0028  1.4277  0.6853
18544TIP3    H277124   2.072   1.288  13.235  1.4503  0.4459 -0.2749
18545TIP3   OH277125   0.268   5.660   2.770  0.1953 -0.0702  0.0182
18545TIP3    H177126   0.260   5.734   2.830  1.9541  1.0771 -1.0645
18545TIP3    H277127   0.317   5.594   2.820 -0.4442 -0.0819  0.6376
18546TIP3   OH277128   0.610   1.250   5.465 -0.6336  0.4587 -0.3459
18546TIP3    H177129   0.554   1.296   5.403 -3.5087 -0.2627  1.4949
18546TIP3    H277130   0.699   1.271   5.438 -1.7662  2.3951 -2.9634
18547TIP3   OH277131   5.342   1.454   0.044 -0.0457  0.0113 -0.3782
18547TIP3    H177132   5.306   1.491   0.124 -0.1906 -1.6969  0.3861
18547TIP3    H277133   5.371   1.366   0.069  1.0339 -0.1119 -1.9119
18548TIP3   OH277134   3.891   4.139  11.393 -0.7678 -0.1040 -0.5202
18548TIP3    H177135   3.947   4.205  11.435  0.0348 -0.6843 -0.6555
18548TIP3    H277136   3.843   4.188  11.326 -0.1802  0.3508 -0.6192
18549TIP3   OH277137   5.388   0.705   4.089  0.1162 -0.6861 -0.0981
18549TIP3    H177138   5.391   0.801   4.080  0.4393 -0.7385 -0.5806
18549TIP3    H277139   5.337   0.675   4.014 -1.9312 -0.7434  1.2581
18550TIP3   OH277140   0.513   0.703  12.406  0.0136  0.2392 -0.2177
18550TIP3    H177141   0.591   0.731  12.358 -1.1647  0.3751 -2.1130
18550TIP3    H277142   0.486   0.622  12.363 -0.5813 -0.1257  0.8073
18551TIP3   OH277143   6.046   3.103  16.299 -0.4876 -0.3888  0.2162
18551TIP3    H177144   6.105   3.072  16.368  0.3460 -0.9449 -0.7276
18551TIP3    H277145   6.007   3.023  16.263 -0.2493 -0.1725 -0.5414
18552TIP3   OH277146   5.165   1.539   0.241 -0.9305  0.2328 -0.1503
18552TIP3    H177147   5.121   1.588   0.171 -1.3028 -1.7945 -1.4449
18552TIP3    H277148   5.132   1.450   0.231  0.0708 -0.4035  1.7752
18553TIP3   OH277149   6.768   4.256  16.553  0.3970  0.5042 -0.2237
18553TIP3    H177150   6.803   4.169  16.573  2.3207  1.1460 -0.5683
18553TIP3    H277151   6.832   4.317  16.591  0.4827  1.7435 -2.2278
18554TIP3   OH277152   6.709   5.598  11.896 -0.3871  0.1491  0.7545
18554TIP3    H177153   6.657   5.627  11.821  1.8096  0.2242 -0.8156
18554TIP3    H277154   6.775   5.667  11.907  1.6180 -1.6319  0.3609
18555TIP3   OH277155   2.224   3.192  13.154 -0.2193 -0.0464  0.1424
18555TIP3    H177156   2.195   3.278  13.122  1.3718  0.1960 -0.7885
18555TIP3    H277157   2.265   3.210  13.238 -0.9293 -0.0772  0.4961
18556TIP3   OH277158   4.198   5.521  15.463 -0.0307 -0.1124 -0.0500
18556TIP3    H177159   4.144   5.469  15.523  0.0369  1.4525  1.4444
18556TIP3    H277160   4.288   5.497  15.486 -0.0060  0.4586  0.4658
18557TIP3   OH277161   3.000   0.150  12.248 -0.5249 -0.2036  0.2779
18557TIP3    H177162   3.028   0.108  12.329  3.6432 -0.9200 -1.2975
18557TIP3    H277163   2.921   0.102  12.221  0.7343 -3.1734  1.5168
18558TIP3   OH277164   2.999   5.233  13.657 -0.2380 -0.0498 -0.1766
18558TIP3    H177165   3.087   5.269  13.665  0.3949 -1.8508  2.5050
18558TIP3    H277166   2.962   5.240  13.745 -1.9072 -1.3369 -0.7149
18559TIP3   OH277167   6.327   5.120  15.279 -0.0322  0.2783 -0.1702
18559TIP3    H177168   6.249   5.141  15.330 -0.2428  2.0852 -1.1246
18559TIP3    H277169   6.398   5.119  15.343 -0.7652 -1.1458  0.6702
18560TIP3   OH277170   0.388   4.433   0.050 -0.6125 -0.0104  0.0811
18560TIP3    H177171   0.383   4.512   0.105 -0.9487  1.9990 -2.6228
18560TIP3    H277172   0.302   4.391   0.060 -1.6615  1.7881 -0.8759
18561TIP3   OH277173   1.883   0.959  10.884 -0.1275 -0.5562  0.3074
18561TIP3    H177174   1.828   0.933  10.958 -1.9104 -0.6324 -0.9693
18561TIP3    H277175   1.870   0.889  10.820  0.7986 -0.1175 -0.3781
18562TIP3   OH277176   3.293   3.249   4.452 -0.2220 -0.1100 -0.4073
18562TIP3    H177177   3.260   3.327   4.498  1.8856  1.2189 -1.0332
18562TIP3    H277178   3.290   3.272   4.360  1.1411 -0.4449 -0.5562
18563TIP3   OH277179   0.709   2.614   5.256 -0.0032  0.1300 -0.2516
18563TIP3    H177180   0.728   2.520   5.248  0.4169  0.0613  1.3158
18563TIP3    H277181   0.794   2.657   5.248 -0.1475  0.3612 -0.5879
18564TIP3   OH277182   6.319   4.708   5.213  0.1693 -0.1138  1.1080
18564TIP3    H177183   6.362   4.721   5.129 -1.1584  0.7937  0.5367
18564TIP3    H277184   6.390   4.708   5.277  1.2159 -1.0734 -0.0238
18565TIP3   OH277185   2.234   4.536  11.658 -0.6076 -0.4220 -0.5031
18565TIP3    H177186   2.314   4.495  11.689 -0.2567 -0.2188 -1.1193
18565TIP3    H277187   2.233   4.519  11.564 -1.6623 -1.0478 -0.3960
18566TIP3   OH277188   5.877   4.487  15.239  0.0790 -0.5943 -0.2009
18566TIP3    H177189   5.856   4.544  15.166 -0.9953  0.9375  1.2231
18566TIP3    H277190   5.793   4.466  15.279  0.6652 -0.9421  0.9031
18567TIP3   OH277191   3.238   6.065   0.429 -0.1621  0.0939 -0.3062
18567TIP3    H177192   3.186   6.014   0.368 -0.8706  1.3446 -0.7847
18567TIP3    H277193   3.181   6.137   0.456  0.2461 -0.2394  1.5929
18568TIP3   OH277194   1.238   5.588   5.684  0.5869 -0.3465 -0.0269
18568TIP3    H177195   1.282   5.665   5.720 -0.7601  0.7543 -0.6424
18568TIP3    H277196   1.264   5.586   5.592 -0.5993  0.3132 -0.3960
18569TIP3   OH277197   0.463   2.802   5.380  0.0230  0.1909  0.1116
18569TIP3    H177198   0.547   2.840   5.352  0.8714 -2.1903 -0.8122
18569TIP3    H277199   0.416   2.785   5.298 -2.6906  3.9750  0.6239
18570TIP3   OH277200   4.056   3.613  14.831 -0.1997  0.1378  0.4081
18570TIP3    H177201   4.139   3.659  14.820  0.3766 -0.9544  0.0543
18570TIP3    H277202   4.024   3.642  14.917  1.0050 -0.1276  0.9671
18571TIP3   OH277203   3.999   4.898  10.703  0.2885  0.1263  0.4695
18571TIP3    H177204   4.028   4.988  10.719 -0.9422  0.4688  0.9142
18571TIP3    H277205   3.904   4.905  10.692  0.3974 -0.8771 -1.4626
18572TIP3   OH277206   2.471   0.332  16.248  0.0968  0.5770  0.3384
18572TIP3    H177207   2.503   0.418  16.222  0.0573  0.1428 -1.3153
18572TIP3    H277208   2.393   0.349  16.300 -0.3767  1.5306 -0.6461
18573TIP3   OH277209   1.868   2.138  11.820  0.0410 -0.0023 -0.0498
18573TIP3    H177210   1.905   2.076  11.883  2.1164  1.4014  0.2206
18573TIP3    H277211   1.827   2.205  11.875 -1.7487 -0.8020 -0.3326
18574TIP3   OH277212   2.012   0.559   4.034  0.0601  0.2440 -0.0970
18574TIP3    H177213   1.968   0.510   3.965 -1.0495  3.6418 -2.0799
18574TIP3    H277214   1.955   0.552   4.110 -1.0096  0.0265 -0.9073
18575TIP3   OH277215   0.803   0.313   2.255 -0.4927  0.4237  0.2402
18575TIP3    H177216   0.804   0.242   2.191  2.4955  1.1671 -0.6820
18575TIP3    H277217   0.764   0.273   2.333 -0.6687 -1.6491 -0.8310
18576TIP3   OH277218   3.811   4.365  12.286 -0.2741  0.1809 -0.0066
18576TIP3    H177219   3.809   4.421  12.208 -0.3185  2.0699  1.2829
18576TIP3    H277220   3.781   4.279  12.255 -1.8309  1.2752 -1.7545
18577TIP3   OH277221   1.342   2.862  14.103  0.9414  0.1434  0.6651
18577TIP3    H177222   1.290   2.893  14.029  0.4104  1.5499  1.5978
18577TIP3    H277223   1.405   2.801  14.063 -1.1986 -1.4093 -0.5254
18578TIP3   OH277224   2.621   5.321   4.407 -0.0382 -0.0506  0.2705
18578TIP3    H177225   2.557   5.306   4.476 -0.7288  1.3127 -0.0279
18578TIP3    H277226   2.587   5.397   4.359  1.3716  0.1881 -0.4189
18579TIP3   OH277227   1.631   0.064   2.938 -0.5512 -0.5096  0.4409
18579TIP3    H177228   1.612   0.157   2.947 -0.4650  0.0638 -3.4195
18579TIP3    H277229   1.554   0.028   2.895  0.4347 -1.6319 -0.4636
18580TIP3   OH277230   2.552   5.034  11.095  0.3587 -1.0199  0.3875
18580TIP3    H177231   2.615   5.026  11.023 -0.7376 -0.2325 -0.7209
18580TIP3    H277232   2.502   4.953  11.092  0.5537 -1.1460  0.5101
18581TIP3   OH277233   0.242   3.043   4.002  0.2030  0.2438  1.0417
18581TIP3    H177234   0.303   2.981   4.042  0.5852  0.2946  0.5549
18581TIP3    H277235   0.202   3.088   4.075  0.1223 -0.3873  1.3975
18582TIP3   OH277236   3.836   6.454   3.708 -0.2826 -0.3807 -0.5953
18582TIP3    H177237   3.775   6.508   3.758  0.9300  1.3128 -0.8616
18582TIP3    H277238   3.914   6.509   3.698  2.4434 -3.3153  2.0219
18583TIP3   OH277239   3.240   2.026  10.380  0.4684 -0.2117  0.3377
18583TIP3    H177240   3.162   2.012  10.326  1.4621 -0.0745 -1.1535
18583TIP3    H277241   3.228   1.965  10.453 -0.3345 -1.2693 -0.6373
18584TIP3   OH277242   2.535   4.827  13.140 -0.1479  0.0702  0.3496
18584TIP3    H177243   2.618   4.829  13.092  0.7916 -3.2462  1.5468
18584TIP3    H277244   2.560   4.838  13.232 -0.9606 -1.0047  0.7254
18585TIP3   OH277245   2.443   1.413  13.571 -0.1141  0.3174 -0.6703
18585TIP3    H177246   2.419   1.505  13.577 -1.9255 -0.0056 -2.0483
18585TIP3    H277247   2.524   1.412  13.519  0.7616  1.1799  0.6095
18586TIP3   OH277248   2.340   0.486  13.127 -0.0639 -0.6093  0.3794
18586TIP3    H177249   2.246   0.482  13.108 -0.3918  1.2400  1.3595
18586TIP3    H277250   2.344   0.500  13.222  1.2584 -1.6287  0.5039
18587TIP3   OH277251   0.884   1.338  14.411 -0.2979 -0.3545  0.1768
18587TIP3    H177252   0.813   1.396  14.438  0.0396  0.3137 -0.3607
18587TIP3    H277253   0.964   1.381  14.444  0.0599  0.1085 -1.2496
18588TIP3   OH277254   4.368   0.097   5.485 -0.1044  0.1844  0.4234
18588TIP3    H177255   4.410   0.182   5.468 -0.2148 -0.0205 -0.9727
18588TIP3    H277256   4.398   0.041   5.413 -1.3428 -0.4823  0.4106
18589TIP3   OH277257   2.906   6.060  15.025  0.1735 -0.0084 -0.1459
18589TIP3    H177258   2.987   6.061  14.974 -1.2537  2.7681 -2.6460
18589TIP3    H277259   2.836   6.066  14.960 -1.9782 -0.1331  2.0039
18590TIP3   OH277260   2.566   5.550  14.629  0.3622  0.6418 -0.2581
18590TIP3    H177261   2.514   5.485  14.676  0.0526  1.2735  0.2782
18590TIP3    H277262   2.534   5.634  14.660  2.0998  1.0624  0.5405
18591TIP3   OH277263   5.136   1.310  10.809 -0.7454  0.1667 -0.0575
18591TIP3    H177264   5.119   1.242  10.874  0.5974  0.1129  0.2557
18591TIP3    H277265   5.055   1.362  10.807 -0.6993  0.3788  1.9087
18592TIP3   OH277266   5.251   1.500  15.234  0.0038 -0.0155 -0.5991
18592TIP3    H177267   5.158   1.498  15.257  0.1747  1.1359  0.2685
18592TIP3    H277268   5.294   1.449  15.303  0.0839 -0.0418 -0.6677
18593TIP3   OH277269   0.113   6.025   4.069  0.0125  0.1787  0.5395
18593TIP3    H177270   0.056   6.074   4.009 -0.0981 -0.2606  0.2799
18593TIP3    H277271   0.198   6.024   4.025  0.6034  2.0210  1.5626
18594TIP3   OH277272   2.911   4.520  13.406  0.0248 -0.4917 -0.4371
18594TIP3    H177273   2.912   4.525  13.501  2.3811 -2.0383 -0.2766
18594TIP3    H277274   2.938   4.429  13.387 -0.6538 -0.2981 -2.5652
18595TIP3   OH277275   5.424   3.349  16.113 -0.6966 -0.8794 -0.0258
18595TIP3    H177276   5.459   3.364  16.025  0.8123 -4.3673 -0.1719
18595TIP3    H277277   5.493   3.380  16.172 -0.7222 -0.6920 -0.0914
18596TIP3   OH277278   0.893   3.106   5.879  0.5495  0.3285 -0.3383
18596TIP3    H177279   0.833   3.075   5.947  2.0492  0.0573  0.9193
18596TIP3    H277280   0.836   3.148   5.815 -1.0472 -0.5180  0.4480
18597TIP3   OH277281   1.435   1.535  11.011  0.2015 -0.3160 -0.2500
18597TIP3    H177282   1.515   1.536  10.959 -0.0806  3.8424 -0.9116
18597TIP3    H277283   1.368   1.501  10.952  0.7668 -0.0930 -1.0308
18598TIP3   OH277284   2.874   0.699   1.012  0.3794  0.2479 -0.4345
18598TIP3    H177285   2.885   0.641   0.936 -2.1672  0.4978 -1.0854
18598TIP3    H277286   2.963   0.723   1.037  1.4228 -2.1777 -1.5026
18599TIP3   OH277287   0.238   6.177  14.236  0.0911 -0.3488  0.5736
18599TIP3    H177288   0.160   6.192  14.288  1.0410 -0.5646  2.1267
18599TIP3    H277289   0.258   6.084  14.246  2.2097  0.2408  2.7416
18600TIP3   OH277290   2.322   0.994   6.063  0.0778  0.0238  0.2369
18600TIP3    H177291   2.251   0.976   6.002  0.2815  0.7112 -0.2230
18600TIP3    H277292   2.308   1.085   6.090  0.5221  0.0190  0.4956
18601TIP3   OH277293   4.959   3.024   5.067 -0.0787 -0.3429 -0.0280
18601TIP3    H177294   4.951   2.979   4.983  2.6983 -0.3486 -0.4030
18601TIP3    H277295   5.026   2.974   5.114  0.0183  0.9471  1.2702
18602TIP3   OH277296   4.192   1.522   5.611 -0.3398  0.3800  0.1082
18602TIP3    H177297   4.197   1.612   5.579 -0.1373  0.5547  0.6184
18602TIP3    H277298   4.133   1.525   5.686  0.6491  0.3402  0.9234
18603TIP3   OH277299   4.442   0.634   4.146 -0.2026 -0.0045 -0.2113
18603TIP3    H177300   4.536   0.640   4.128  0.4642 -2.1259  1.9816
18603TIP3    H277301   4.408   0.720   4.123  2.3240  0.9457 -0.7903
18604TIP3   OH277302   1.892   1.925   0.718 -0.1672 -0.2611 -0.3961
18604TIP3    H177303   1.870   1.944   0.809 -0.7315 -0.4845 -0.4808
18604TIP3    H277304   1.875   1.831   0.709 -0.6798 -0.1227 -0.8871
18605TIP3   OH277305   2.653   5.564  10.718  0.3964  0.2037  0.7007
18605TIP3    H177306   2.702   5.489  10.751  1.6033 -0.5854 -2.4690
18605TIP3    H277307   2.564   5.552  10.750 -0.4462 -4.7267 -2.4441
18606TIP3   OH277308   2.050   5.987  13.538  0.1137  0.2049 -0.1212
18606TIP3    H177309   2.124   6.039  13.571 -0.8502  1.2940  0.3857
18606TIP3    H277310   1.973   6.042  13.554 -0.5864  0.0845 -2.7446
18607TIP3   OH277311   1.503   2.049   0.893  0.1046 -0.1424  0.1841
18607TIP3    H177312   1.590   2.050   0.933  0.0681  1.9714  0.2818
18607TIP3    H277313   1.502   1.968   0.841  2.2102 -0.0862 -0.0317
18608TIP3   OH277314   5.635   1.894   2.496 -0.2810 -0.0864 -0.1195
18608TIP3    H177315   5.635   1.990   2.493  1.4653 -0.0626 -0.5415
18608TIP3    H277316   5.694   1.873   2.569  1.0501 -0.8160 -1.3589
18609TIP3   OH277317   4.721   2.693   5.878  0.3095 -0.2190 -0.1432
18609TIP3    H177318   4.738   2.599   5.884 -0.9030 -0.3763  4.4117
18609TIP3    H277319   4.636   2.700   5.836 -0.2093 -1.2802  0.6988
18610TIP3   OH277320   0.998   1.091  11.045 -0.4582  0.1637  0.8762
18610TIP3    H177321   1.012   1.078  11.139  1.5596 -1.7568  0.3780
18610TIP3    H277322   0.999   1.003  11.008 -0.4383  0.9263 -1.0532
18611TIP3   OH277323   6.033   2.625  11.736 -0.0753 -0.0474  0.3602
18611TIP3    H177324   6.006   2.538  11.765  0.5871 -0.2374  0.4105
18611TIP3    H277325   6.126   2.629  11.755  0.2450  0.0739 -1.1328
18612TIP3   OH277326   6.420   2.234   5.583  0.2035  0.1586  0.0698
18612TIP3    H177327   6.469   2.291   5.642 -0.8371 -0.9645  2.1375
18612TIP3    H277328   6.484   2.168   5.556  0.4343  0.0013  0.9471
18613TIP3   OH277329   0.733   3.383  14.449 -0.2960 -0.5041  0.1852
18613TIP3    H177330   0.780   3.359  14.529  0.0029 -0.0695  0.1447
18613TIP3    H277331   0.653   3.425  14.481  0.7140  1.4603  0.3089
18614TIP3   OH277332   1.187   2.078   2.708 -0.5508  0.3589 -0.6171
18614TIP3    H177333   1.229   2.093   2.623 -2.8249 -0.3364 -1.9604
18614TIP3    H277334   1.096   2.059   2.686 -1.1741 -0.0133  2.0017
18615TIP3   OH277335   3.779   5.061  14.464 -0.2331  0.0539 -0.3400
18615TIP3    H177336   3.781   5.084  14.371 -2.5475  1.7464 -0.0465
18615TIP3    H277337   3.728   5.131  14.505  1.8797  0.1350  2.4791
18616TIP3   OH277338   6.257   2.334   4.777 -0.3586 -0.7499  0.0147
18616TIP3    H177339   6.294   2.367   4.859 -2.9412  1.5075  0.4284
18616TIP3    H277340   6.198   2.264   4.803 -0.7595 -0.4094  0.0252
18617TIP3   OH277341   3.045   1.618  17.070  0.0716  0.3403 -0.2590
18617TIP3    H177342   2.951   1.630  17.058  0.3564  1.5110 -1.6168
18617TIP3    H277343   3.063   1.655  17.156 -1.2237 -3.3958  1.8869
18618TIP3   OH277344   5.639   3.203  16.541  0.9451 -0.1277  0.0264
18618TIP3    H177345   5.626   3.115  16.505 -0.5825  0.0717  0.0370
18618TIP3    H277346   5.727   3.228  16.512  0.6336 -0.8631 -1.6818
18619TIP3   OH277347   0.443   0.057  14.542  0.2387 -0.3005  0.2465
18619TIP3    H177348   0.465  -0.032  14.513 -0.0440 -0.8124  1.4971
18619TIP3    H277349   0.418   0.103  14.463 -0.1547 -1.5091 -0.3659
18620TIP3   OH277350   1.552   3.494   1.702 -0.2086 -0.1456 -0.1329
18620TIP3    H177351   1.511   3.411   1.679 -0.4260  0.4445 -1.9940
18620TIP3    H277352   1.522   3.511   1.791 -0.3838 -1.9101  0.1839
18621TIP3   OH277353   5.694   3.475  12.461 -0.0106 -0.5221  0.7235
18621TIP3    H177354   5.777   3.522  12.468 -1.6660  2.6182  0.8161
18621TIP3    H277355   5.708   3.395  12.512  3.0220 -0.2803  0.4605
18622TIP3   OH277356   0.211   5.785   2.347 -0.2165 -0.0937 -0.1886
18622TIP3    H177357   0.237   5.735   2.269  0.1611  1.8743 -1.4141
18622TIP3    H277358   0.184   5.870   2.312  0.1158  0.9116  1.8714
18623TIP3   OH277359   6.521   5.811   2.212  0.3283  0.6614 -0.2152
18623TIP3    H177360   6.457   5.873   2.178  0.1994  0.5852 -0.1121
18623TIP3    H277361   6.572   5.860   2.276  0.5226  0.7849 -0.4579
18624TIP3   OH277362   2.716   5.550   4.734  0.0329  0.1444 -0.2874
18624TIP3    H177363   2.734   5.536   4.827  2.5680  1.7481 -0.4343
18624TIP3    H277364   2.623   5.573   4.731 -0.4830 -1.4165  1.6301
18625TIP3   OH277365   0.057   4.433  11.137  0.7361  0.0212 -0.5718
18625TIP3    H177366   0.045   4.508  11.079 -0.5411 -0.4503 -0.9407
18625TIP3    H277367  -0.005   4.447  11.208  1.6134  0.1047  0.1926
18626TIP3   OH277368   3.569   1.228  11.393 -0.3535  0.4094  0.0062
18626TIP3    H177369   3.660   1.257  11.394 -0.4698  1.2157 -2.9128
18626TIP3    H277370   3.520   1.305  11.365 -1.9488 -0.0358  1.4556
18627TIP3   OH277371   2.821   2.493   1.383 -0.2791 -0.2205 -0.1795
18627TIP3    H177372   2.853   2.437   1.454 -3.3338  0.4616  1.9667
18627TIP3    H277373   2.827   2.582   1.418 -1.0322  0.2207 -1.1178
18628TIP3   OH277374   2.444   3.000  14.086 -0.2534  0.3470  0.2165
18628TIP3    H177375   2.399   2.935  14.140  2.3604 -2.3196 -0.5469
18628TIP3    H277376   2.489   3.057  14.149  0.0776 -0.6631  0.9253
18629TIP3   OH277377   3.427   2.134   1.187  0.2590  0.3259 -0.6558
18629TIP3    H177378   3.444   2.071   1.117  0.4813  0.7535 -0.9896
18629TIP3    H277379   3.495   2.201   1.176  0.3443  0.3519  0.0173
18630TIP3   OH277380   2.488   4.884  13.644  0.3269  0.0367 -0.5778
18630TIP3    H177381   2.545   4.871  13.720 -0.6794 -0.2330  0.1626
18630TIP3    H277382   2.547   4.911  13.574  1.5114 -1.3258 -0.1613
18631TIP3   OH277383   5.545   4.069  15.542 -0.3935 -0.3892  0.1154
18631TIP3    H177384   5.513   4.113  15.463  1.4488 -0.3084 -0.6410
18631TIP3    H277385   5.468   4.061  15.598 -0.9821  3.3209  0.1003
18632TIP3   OH277386   1.850   0.354   4.472 -0.2822  0.0776 -0.1442
18632TIP3    H177387   1.930   0.366   4.421 -0.4826 -0.3508 -0.5738
18632TIP3    H277388   1.828   0.441   4.503  0.7337  0.1037  0.5692
18633TIP3   OH277389   6.667   3.396  14.407 -0.2341  0.4261 -0.1307
18633TIP3    H177390   6.706   3.483  14.413  1.4046 -0.1357 -1.6272
18633TIP3    H277391   6.738   3.341  14.374 -1.7083 -1.1467 -0.8094
18634TIP3   OH277392   1.438   0.788   6.424  0.3323 -0.4761 -0.0622
18634TIP3    H177393   1.491   0.744   6.490  1.2017  0.9363  0.2134
18634TIP3    H277394   1.349   0.785   6.460  0.3017 -2.2281 -0.1982
18635TIP3   OH277395   0.659   1.434   0.379 -0.0772  0.1455  0.3503
18635TIP3    H177396   0.574   1.465   0.349 -1.6456 -4.8491 -1.3251
18635TIP3    H277397   0.717   1.444   0.304 -0.1743  0.1758  0.2795
18636TIP3   OH277398   0.837   2.180  15.938  0.0219  0.4054 -0.3542
18636TIP3    H177399   0.769   2.123  15.972 -0.4356  2.3326  2.3022
18636TIP3    H277400   0.791   2.261  15.915  1.0891  0.8576 -0.9806
18637TIP3   OH277401   4.333   4.866   3.981  0.6289  0.5701  0.5751
18637TIP3    H177402   4.334   4.791   3.922  0.7073  0.4192  0.7657
18637TIP3    H277403   4.408   4.853   4.038 -0.8833 -0.6882  2.4278
18638TIP3   OH277404   1.599   1.547  15.231 -0.2225  0.1281 -0.6528
18638TIP3    H177405   1.555   1.608  15.290  1.1613 -0.1989  0.8157
18638TIP3    H277406   1.543   1.470  15.230  0.1576 -0.2133  1.0278
18639TIP3   OH277407   6.407   5.218  13.831 -0.2531 -0.8915 -0.3605
18639TIP3    H177408   6.430   5.250  13.743  1.2809 -0.0241  0.3161
18639TIP3    H277409   6.397   5.124  13.820  0.7042 -0.9035 -1.3343
18640TIP3   OH277410   3.900   6.624  14.230 -0.1166  0.0993  0.5727
18640TIP3    H177411   3.931   6.708  14.194  1.6249  0.1773  2.0839
18640TIP3    H277412   3.942   6.558  14.175  0.3225  0.2249  0.7519
18641TIP3   OH277413   5.315   3.135  16.415 -0.6962  0.0441  0.3639
18641TIP3    H177414   5.229   3.113  16.452 -0.9287  0.1525 -0.1156
18641TIP3    H277415   5.373   3.139  16.492 -1.4277  1.5259  0.8640
18642TIP3   OH277416   6.833   0.471   5.288 -0.6128 -0.3705 -0.5516
18642TIP3    H177417   6.841   0.390   5.337  2.1275  0.7226  1.0296
18642TIP3    H277418   6.865   0.449   5.200 -1.7903 -1.4174 -0.7449
18643TIP3   OH277419   0.836   5.148   6.123 -0.4722 -0.0407  0.0683
18643TIP3    H177420   0.799   5.166   6.037 -0.1019  0.5344  0.0194
18643TIP3    H277421   0.797   5.215   6.180  0.1823  0.3282  0.0940
18644TIP3   OH277422   2.685   4.381   1.356 -0.3176  0.1028  0.3383
18644TIP3    H177423   2.748   4.446   1.326 -0.8162  1.3696  1.8629
18644TIP3    H277424   2.606   4.399   1.304 -0.1066 -0.0276 -0.0284
18645TIP3   OH277425   0.480   0.310  15.053  0.6633 -0.2244 -0.5195
18645TIP3    H177426   0.477   0.216  15.038  2.5849 -0.1896 -1.4887
18645TIP3    H277427   0.476   0.349  14.966 -1.6782  0.7145 -0.0582
18646TIP3   OH277428   2.261   6.256  16.839 -0.1209  0.0960 -0.1024
18646TIP3    H177429   2.316   6.290  16.768  0.6711  0.5697  0.7126
18646TIP3    H277430   2.315   6.266  16.918 -0.5396 -1.4388  0.4224
18647TIP3   OH277431   6.065   4.139   5.219  0.8137 -0.1549  0.3153
18647TIP3    H177432   6.132   4.091   5.268  0.4594  0.3290  1.2821
18647TIP3    H277433   6.075   4.107   5.129  2.1495 -0.3104  0.4927
18648TIP3   OH277434   2.762   1.621  16.216 -0.3681 -0.1755  0.3345
18648TIP3    H177435   2.814   1.604  16.138  0.5100 -1.8225  1.2223
18648TIP3    H277436   2.769   1.716  16.230  0.1993 -0.0006 -1.0514
18649TIP3   OH277437   3.043   4.920  11.768 -0.1172  0.2784 -0.0192
18649TIP3    H177438   3.075   4.973  11.841  0.9260 -1.5843  0.9706
18649TIP3    H277439   3.123   4.889  11.725 -0.7158  0.6588 -1.4329
18650TIP3   OH277440   6.733   4.801  13.790  0.5081  0.1589 -0.5495
18650TIP3    H177441   6.715   4.828  13.880  0.0253  0.5057 -0.7503
18650TIP3    H277442   6.829   4.797  13.785  0.5496  0.6664 -0.1797
18651TIP3   OH277443   3.329   3.462  16.222  0.1436 -0.3889  0.0139
18651TIP3    H177444   3.330   3.492  16.313  0.7340  0.4638 -0.2612
18651TIP3    H277445   3.380   3.381  16.223  0.5457 -0.1401  0.3700
18652TIP3   OH277446   6.368   3.576   6.529  0.0054 -0.1452 -0.9822
18652TIP3    H177447   6.403   3.565   6.618  0.7802  1.0793 -1.1006
18652TIP3    H277448   6.274   3.582   6.540  0.2157  2.7384  0.1481
18653TIP3   OH277449   2.598   4.645  16.806  0.2865  0.8231 -0.1055
18653TIP3    H177450   2.517   4.613  16.767  0.2427  0.5878  0.1777
18653TIP3    H277451   2.603   4.602  16.892  1.3867 -0.2405 -0.6676
18654TIP3   OH277452   1.077   3.880  12.276 -0.1585 -0.3696  0.4170
18654TIP3    H177453   1.060   3.811  12.340  2.3031  0.9043  2.6602
18654TIP3    H277454   1.110   3.953  12.328  0.3181  1.4124 -2.1863
18655TIP3   OH277455   2.564   3.587   1.422 -0.1488  0.0621  0.2791
18655TIP3    H177456   2.576   3.493   1.407 -0.6330  0.2030 -1.1602
18655TIP3    H277457   2.486   3.610   1.371  0.3068  1.3550  0.1250
18656TIP3   OH277458   4.190   3.625   4.745 -0.3063  0.6729 -0.0461
18656TIP3    H177459   4.141   3.598   4.822 -0.3629  0.1272 -0.2691
18656TIP3    H277460   4.278   3.589   4.758 -0.4895  0.0302 -0.5253
18657TIP3   OH277461   1.066   4.706  10.575  0.3549 -0.1384 -0.7856
18657TIP3    H177462   1.043   4.690  10.667 -0.3185  0.2690 -0.8787
18657TIP3    H277463   1.140   4.767  10.580  2.9976 -3.0941 -0.4214
18658TIP3   OH277464   2.131   5.727   0.980  0.0689  0.2592 -0.2615
18658TIP3    H177465   2.199   5.789   1.003 -0.6969  0.1982  2.5336
18658TIP3    H277466   2.154   5.647   1.027  0.2425 -1.1673 -2.6113
18659TIP3   OH277467   0.304   6.054  12.837  0.1963  0.6658  0.4640
18659TIP3    H177468   0.352   6.027  12.915 -0.4504  1.3150  1.0995
18659TIP3    H277469   0.213   6.061  12.866 -0.1757  0.1892 -0.5365
18660TIP3   OH277470   2.453   2.048  14.930 -0.0114 -0.6585 -0.1876
18660TIP3    H177471   2.466   2.136  14.966 -0.9937 -0.6305  0.1252
18660TIP3    H277472   2.441   2.063  14.836  0.5959 -0.5339 -0.2454
18661TIP3   OH277473   1.995   0.452  13.260 -0.5593 -0.3842 -0.1064
18661TIP3    H177474   2.003   0.356  13.261 -2.1264 -0.5407  0.9466
18661TIP3    H277475   1.991   0.474  13.167  1.3850 -1.1604 -0.4221
18662TIP3   OH277476   1.751   6.540  12.099 -0.1564 -0.2557  0.3922
18662TIP3    H177477   1.829   6.594  12.086 -0.7320  0.1648 -1.8183
18662TIP3    H277478   1.678   6.601  12.094 -0.7234 -0.9218  0.2885
18663TIP3   OH277479   5.779   0.694  12.392  0.0859 -0.6875  0.5233
18663TIP3    H177480   5.699   0.722  12.436 -0.6576  0.2548 -1.3052
18663TIP3    H277481   5.760   0.604  12.364 -0.3125 -0.4993  0.1735
18664TIP3   OH277482   2.285   1.634  10.893  0.3340 -0.1505 -0.0867
18664TIP3    H177483   2.230   1.592  10.828  0.6227  0.2951 -0.6315
18664TIP3    H277484   2.351   1.681  10.842 -0.0448  1.0543  0.4856
18665TIP3   OH277485   3.105   6.422   0.252  0.3248  0.4409 -0.0814
18665TIP3    H177486   3.137   6.388   0.168  0.8919  0.4079  0.1425
18665TIP3    H277487   3.120   6.516   0.247  0.3412  0.4409 -0.0233
18666TIP3   OH277488   3.894   4.604   5.713 -0.4466 -0.0051 -0.1733
18666TIP3    H177489   3.883   4.511   5.731 -1.0313  0.1827  0.5199
18666TIP3    H277490   3.989   4.617   5.708 -0.3741 -0.7377 -0.8920
18667TIP3   OH277491   4.711   6.220  15.956 -0.1187  0.1030  0.2778
18667TIP3    H177492   4.671   6.199  15.871  0.5331  0.7421 -0.2030
18667TIP3    H277493   4.663   6.298  15.986 -0.3389 -0.1141  0.4856
18668TIP3   OH277494   1.631   6.300  13.791 -0.0525 -0.4293 -0.3509
18668TIP3    H177495   1.709   6.264  13.833 -0.4055 -0.4289  0.3065
18668TIP3    H277496   1.561   6.239  13.815 -0.3432 -0.1795 -0.5662
18669TIP3   OH277497   1.331   6.769   2.847  0.3230 -0.8647  0.5077
18669TIP3    H177498   1.392   6.785   2.775 -1.4139 -1.9464 -1.2931
18669TIP3    H277499   1.245   6.789   2.811 -0.4901 -0.1026  2.7428
18670TIP3   OH277500   3.601   2.004  12.970  0.2369 -0.1998 -0.0719
18670TIP3    H177501   3.569   2.029  13.057 -1.8177  1.5915 -1.2292
18670TIP3    H277502   3.696   1.996  12.980  0.1180  0.5141  2.1911
18671TIP3   OH277503   5.869   4.977   1.791 -0.2745 -0.2343  0.5376
18671TIP3    H177504   5.950   4.930   1.812  0.2610 -0.2708 -1.3766
18671TIP3    H277505   5.799   4.916   1.814  0.3366 -1.1192  0.1068
18672TIP3   OH277506   3.347   0.819   0.111  0.2109  0.0057  0.4078
18672TIP3    H177507   3.431   0.831   0.153  0.8721  0.1111 -0.8796
18672TIP3    H277508   3.343   0.890   0.046 -1.3407  0.6640  1.1522
18673TIP3   OH277509   5.828   5.885   2.440  0.6101  0.5461  0.0277
18673TIP3    H177510   5.831   5.966   2.389 -0.0707  0.0414 -0.8365
18673TIP3    H277511   5.870   5.819   2.385 -0.5116 -0.1009 -0.0796
18674TIP3   OH277512   5.861   1.506  17.081 -0.6508 -0.1731  0.0546
18674TIP3    H177513   5.818   1.572  17.136  0.0397  0.3777 -0.0477
18674TIP3    H277514   5.810   1.426  17.095 -1.9885  0.5546 -0.4063
18675TIP3   OH277515   1.346   1.546  13.038 -0.6503 -0.6722  0.3613
18675TIP3    H177516   1.259   1.514  13.060 -1.1425  0.3355 -0.0602
18675TIP3    H277517   1.360   1.620  13.096  0.0102 -0.9485  0.5610
18676TIP3   OH277518   1.766   5.925  14.830  0.3020 -0.4672 -0.1612
18676TIP3    H177519   1.807   5.890  14.909 -0.4434 -1.9652 -0.4047
18676TIP3    H277520   1.701   5.859  14.805 -1.7356  1.4191 -0.2282
18677TIP3   OH277521   3.210   0.077   0.420  0.1442  0.2599 -0.0125
18677TIP3    H177522   3.258   0.008   0.373 -1.1257 -0.9649  0.4388
18677TIP3    H277523   3.142   0.104   0.359 -0.0054  0.3938  0.2134
18678TIP3   OH277524   1.147   0.868   3.730 -0.1471  0.2953 -0.2494
18678TIP3    H177525   1.086   0.894   3.799  0.3479  1.1033 -0.0996
18678TIP3    H277526   1.093   0.860   3.651 -0.2358  2.6411 -0.5044
18679TIP3   OH277527   5.014   2.764   0.736  0.3237  0.2923 -0.4651
18679TIP3    H177528   5.014   2.844   0.684  0.5417 -0.0116 -0.9443
18679TIP3    H277529   4.956   2.704   0.688 -0.5222  0.4432  0.3454
18680TIP3   OH277530   3.749   3.687   2.560 -0.4285  0.4621  0.1311
18680TIP3    H177531   3.768   3.699   2.653  0.7336  0.1834 -0.0471
18680TIP3    H277532   3.720   3.596   2.553  1.4073 -0.1665 -0.0169
18681TIP3   OH277533   5.437   6.143  15.136  0.2455  0.0328 -0.6435
18681TIP3    H177534   5.518   6.132  15.186 -0.1778 -0.6288 -0.0685
18681TIP3    H277535   5.368   6.115  15.197 -0.3250 -0.3215 -1.4333
18682TIP3   OH277536   6.391   5.740   3.422  0.4751  0.0755  0.0003
18682TIP3    H177537   6.458   5.786   3.371 -1.7685 -0.5737 -3.9000
18682TIP3    H277538   6.334   5.810   3.455  0.7464  0.4151 -0.2417
18683TIP3   OH277539   6.149   3.069   1.947 -0.3333 -0.6335  0.1622
18683TIP3    H177540   6.110   3.109   1.870 -0.3696  0.7508  0.8641
18683TIP3    H277541   6.106   2.985   1.955  0.1470 -1.1055 -1.6980
18684TIP3   OH277542   4.961   4.685   0.495 -0.0034  0.0176  0.1263
18684TIP3    H177543   4.997   4.599   0.471 -2.4406 -0.9797 -0.2742
18684TIP3    H277544   4.930   4.673   0.585 -1.0539  0.1998 -0.1974
18685TIP3   OH277545   1.352   3.726   1.309  0.3848 -0.0425  0.0833
18685TIP3    H177546   1.410   3.739   1.384  1.2988  1.0991 -0.8055
18685TIP3    H277547   1.405   3.747   1.233 -0.4024 -1.6081 -0.9494
18686TIP3   OH277548   2.315   1.140   5.206  0.2961  0.2930  0.0633
18686TIP3    H177549   2.256   1.205   5.168  0.7518  0.2303 -0.7630
18686TIP3    H277550   2.357   1.187   5.279 -2.1977 -0.2418  2.0018
18687TIP3   OH277551   1.553   5.148  12.149  0.1990  0.4355  0.2855
18687TIP3    H177552   1.465   5.184  12.137 -0.1838  0.1824  2.0944
18687TIP3    H277553   1.555   5.070  12.094 -1.4679 -0.7294  1.7778
18688TIP3   OH277554   4.772   4.928   3.379  0.1827 -0.2022  0.4608
18688TIP3    H177555   4.756   5.022   3.376 -1.0403 -0.4096 -0.1585
18688TIP3    H277556   4.849   4.919   3.434 -0.3795  1.0765  1.5068
18689TIP3   OH277557   4.605   1.938   5.550  0.3229 -0.0389  0.3002
18689TIP3    H177558   4.543   2.004   5.516 -0.6906  0.0764  2.2552
18689TIP3    H277559   4.666   1.924   5.478 -1.0134  1.0701 -1.1269
18690TIP3   OH277560   5.480   1.681  10.572 -0.4450  0.4301  0.2939
18690TIP3    H177561   5.570   1.679  10.538 -0.4970  2.2267 -0.0597
18690TIP3    H277562   5.485   1.740  10.647 -1.6026  1.8967 -0.7165
18691TIP3   OH277563   4.879   1.566   4.657 -0.4371  0.1138 -0.0819
18691TIP3    H177564   4.960   1.520   4.677 -0.6583 -0.2038  0.0889
18691TIP3    H277565   4.906   1.641   4.603 -0.0056  0.1514  0.1863
18692TIP3   OH277566   2.818   3.934   1.935  0.2098 -0.8536  0.2216
18692TIP3    H177567   2.834   3.933   1.840 -0.8111 -0.2012  0.0158
18692TIP3    H277568   2.742   3.878   1.947  0.7200 -1.4390  0.7455
18693TIP3   OH277569   1.901   6.489   2.653 -0.3947 -0.0806  0.5409
18693TIP3    H177570   1.886   6.582   2.634  0.6933 -0.0696 -0.3409
18693TIP3    H277571   1.917   6.487   2.747  1.4158  0.9237  0.3149
18694TIP3   OH277572   2.232   2.602   1.118  0.3529  0.1846  0.0505
18694TIP3    H177573   2.306   2.631   1.065  0.1257 -0.8992 -0.9090
18694TIP3    H277574   2.157   2.606   1.058 -0.0852 -0.1668  0.5716
18695TIP3   OH277575   5.847   5.874  16.945  0.0437  0.0160 -0.3135
18695TIP3    H177576   5.937   5.859  16.916  1.1527  1.4775  2.1044
18695TIP3    H277577   5.839   5.969  16.950 -0.6818 -0.1069  2.1394
18696TIP3   OH277578   4.436   4.840  15.295  0.5790 -0.6231 -0.3091
18696TIP3    H177579   4.482   4.756  15.288 -3.9287 -3.2678 -3.2047
18696TIP3    H277580   4.372   4.826  15.365 -0.1677  0.3912 -0.7679
18697TIP3   OH277581   2.195   5.880   2.783 -0.0848  0.4422 -1.0296
18697TIP3    H177582   2.287   5.894   2.804  0.1549 -0.8962 -1.0673
18697TIP3    H277583   2.162   5.825   2.854 -1.1996  1.8875 -0.3679
18698TIP3   OH277584   3.004   1.793  16.103 -0.2876 -0.4093  0.5516
18698TIP3    H177585   3.039   1.876  16.136  2.3982 -2.4369  3.3019
18698TIP3    H277586   3.069   1.762  16.041 -0.0020 -1.6028  1.4252
18699TIP3   OH277587   5.401   5.878  14.925 -0.0218 -0.1854  0.3328
18699TIP3    H177588   5.352   5.840  14.998 -0.2440  1.0402  0.8583
18699TIP3    H277589   5.354   5.959  14.904  0.9025  0.2390 -0.1654
18700TIP3   OH277590   3.615   5.353  16.120 -0.4919  0.1227 -0.2420
18700TIP3    H177591   3.555   5.423  16.144 -1.1348 -0.7761  0.8707
18700TIP3    H277592   3.679   5.350  16.191 -0.2980 -0.2187 -0.4290
18701TIP3   OH277593   1.179   6.255   1.354  0.2758 -0.0136  0.2227
18701TIP3    H177594   1.088   6.227   1.365  0.5428 -1.4726 -0.9256
18701TIP3    H277595   1.176   6.313   1.277  0.7405 -2.9369 -2.2045
18702TIP3   OH277596   5.787   4.168   4.645 -0.2396 -0.1962  0.0591
18702TIP3    H177597   5.767   4.231   4.575 -0.0599 -0.3092 -0.0956
18702TIP3    H277598   5.760   4.084   4.610  1.5422 -0.5237 -0.6191
18703TIP3   OH277599   3.488   2.209   5.505 -0.2338 -0.0398  0.1955
18703TIP3    H177600   3.404   2.166   5.518  0.6447 -1.4268  1.7319
18703TIP3    H277601   3.488   2.283   5.566 -0.5730  0.3448 -0.2664
18704TIP3   OH277602   4.953   4.756  10.257  0.0993 -0.8028  0.4880
18704TIP3    H177603   4.947   4.840  10.212 -0.2240 -1.0581  0.0514
18704TIP3    H277604   4.976   4.779  10.347  0.2725 -0.2630  0.3114
18705TIP3   OH277605   1.575   3.389  11.967  0.6773  0.3174 -0.2236
18705TIP3    H177606   1.570   3.404  12.062  0.9610 -0.3734 -0.0966
18705TIP3    H277607   1.648   3.329  11.956  0.0292 -0.3890 -0.7861
18706TIP3   OH277608   5.137   1.883   0.770 -0.1751  0.2927 -0.3862
18706TIP3    H177609   5.059   1.939   0.769  0.6948  1.6378 -2.7529
18706TIP3    H277610   5.209   1.943   0.788  0.4804 -0.6647  0.2702
18707TIP3   OH277611   3.731   2.217  16.165 -0.1805  0.2752  0.0537
18707TIP3    H177612   3.805   2.210  16.226  0.7816 -0.8153 -1.1688
18707TIP3    H277613   3.762   2.277  16.098 -0.6863  0.3580 -0.1081
18708TIP3   OH277614   2.826   0.185   5.200  0.4102  0.4608 -0.2303
18708TIP3    H177615   2.865   0.138   5.274  0.7619  2.4649  0.9120
18708TIP3    H277616   2.900   0.212   5.146  0.4237  1.8453  0.4549
18709TIP3   OH277617   4.540   0.344   4.988 -0.1227  0.5916  0.5139
18709TIP3    H177618   4.622   0.310   5.023 -0.9117 -0.0292  1.8673
18709TIP3    H277619   4.486   0.266   4.973  0.4358  0.7366 -3.0060
18710TIP3   OH277620   6.769   1.313  13.167  0.1177  0.5199 -0.2335
18710TIP3    H177621   6.723   1.365  13.233 -0.5497  0.8291 -0.9297
18710TIP3    H277622   6.754   1.360  13.085  2.3651  1.0876 -0.3774
18711TIP3   OH277623   2.710   4.856  10.788 -0.1859  0.5874  0.2227
18711TIP3    H177624   2.658   4.891  10.716 -0.1700  0.7782  0.3045
18711TIP3    H277625   2.718   4.928  10.849  0.2840  0.5977  0.1520
18712TIP3   OH277626   0.047   5.769  17.097  0.4497  0.5240 -0.1330
18712TIP3    H177627   0.045   5.693  17.155  0.2162 -0.8732 -1.8842
18712TIP3    H277628  -0.016   5.831  17.135  1.3124  0.2617  1.8206
18713TIP3   OH277629   6.646   5.755   5.777 -0.1488 -0.4730  0.3771
18713TIP3    H177630   6.695   5.741   5.696  1.1502 -0.3920  1.1218
18713TIP3    H277631   6.647   5.670   5.821 -0.0214 -0.2856  0.7419
18714TIP3   OH277632   5.014   4.576   1.290 -0.2751  0.5114  0.1985
18714TIP3    H177633   4.949   4.562   1.359  1.7433 -1.2042  1.9042
18714TIP3    H277634   5.040   4.667   1.298 -0.9049  0.6299  0.9316
18715TIP3   OH277635   5.613   0.622   2.810  0.0881 -0.1464  0.1907
18715TIP3    H177636   5.684   0.686   2.818  0.4294 -0.6661  1.5099
18715TIP3    H277637   5.545   0.654   2.869 -0.7741  0.3041 -0.9994
18716TIP3   OH277638   1.365   5.469   0.032 -0.2243  0.1314  0.0592
18716TIP3    H177639   1.401   5.551   0.067  0.8403  1.2038 -3.1963
18716TIP3    H277640   1.274   5.490   0.009 -0.7712 -0.4314  1.5781
18717TIP3   OH277641   2.874   5.360  12.116 -0.5791 -0.7729 -0.2683
18717TIP3    H177642   2.782   5.362  12.142 -0.6094  0.5757 -0.4206
18717TIP3    H277643   2.874   5.387  12.024  0.1449  1.5725  0.3558
18718TIP3   OH277644   4.063   1.888   0.674  0.1631 -0.3431  0.0151
18718TIP3    H177645   4.040   1.948   0.603  0.9971 -0.2799 -0.2194
18718TIP3    H277646   4.015   1.920   0.750  0.8711  0.8494 -0.0144
18719TIP3   OH277647   5.775   0.610   2.355 -0.3674  0.2584 -0.6498
18719TIP3    H177648   5.706   0.629   2.419  1.4230  1.0738  1.1370
18719TIP3    H277649   5.826   0.539   2.395  1.7049  1.8195 -0.3877
18720TIP3   OH277650   0.277   6.290   2.765  0.2507 -0.1082 -0.7414
18720TIP3    H177651   0.253   6.203   2.797  1.4827 -0.0919  0.3378
18720TIP3    H277652   0.349   6.317   2.822 -0.0398  1.5828 -1.1271
18721TIP3   OH277653   6.290   4.710   3.738 -0.3816 -0.3673 -0.0109
18721TIP3    H177654   6.316   4.795   3.774  1.1850 -0.5405 -0.6574
18721TIP3    H277655   6.364   4.652   3.758 -0.6766 -1.1407 -1.0899
18722TIP3   OH277656   0.257   4.984   3.393  0.3408  0.2390  0.1070
18722TIP3    H177657   0.330   5.019   3.444  0.8956  0.6704 -0.9582
18722TIP3    H277658   0.195   5.057   3.386 -0.7721 -0.4575  1.9897
18723TIP3   OH277659   6.463   5.777  15.780 -0.1445  0.2736  0.1683
18723TIP3    H177660   6.391   5.833  15.751 -0.8084 -0.3313  0.6307
18723TIP3    H277661   6.421   5.700  15.817  0.7531 -0.3860 -0.1351
18724TIP3   OH277662   0.208   6.777  13.716  0.0969 -0.5773  0.2239
18724TIP3    H177663   0.229   6.722  13.792  1.1933  0.1962  0.5111
18724TIP3    H277664   0.246   6.863  13.737  0.5644 -0.3907 -1.2645
18725TIP3   OH277665   5.182   5.487   2.336 -0.2485  0.6923 -0.1411
18725TIP3    H177666   5.223   5.559   2.288  0.5304  1.1439  1.1596
18725TIP3    H277667   5.255   5.437   2.372 -0.7423 -1.2576 -1.6673
18726TIP3   OH277668   6.653   1.235  15.085 -0.1945  0.2319 -0.3047
18726TIP3    H177669   6.651   1.144  15.055 -1.3220  0.5816 -1.3871
18726TIP3    H277670   6.567   1.249  15.125 -0.2427  0.9784 -0.6485
18727TIP3   OH277671   1.168   1.216  16.534  0.3530 -0.2541  0.0939
18727TIP3    H177672   1.166   1.248  16.444  1.9653 -0.0631  0.0810
18727TIP3    H277673   1.195   1.124  16.527  1.0170 -0.0942  0.3801
18728TIP3   OH277674   3.450   3.543  15.958 -0.5589 -0.3994  0.3386
18728TIP3    H177675   3.484   3.471  15.904 -1.6203 -1.1306  0.6191
18728TIP3    H277676   3.443   3.506  16.046  0.8834  0.7003  0.9584
18729TIP3   OH277677   4.966   2.007   2.493 -0.2887  0.1826 -0.2926
18729TIP3    H177678   4.973   2.046   2.406  2.4053  0.1761 -0.1611
18729TIP3    H277679   4.933   2.078   2.548  0.7205  1.0661 -0.8008
18730TIP3   OH277680   4.173   2.259  16.031  0.1904  0.2050  0.2278
18730TIP3    H177681   4.116   2.210  16.090  0.2810 -1.2638 -0.8415
18730TIP3    H277682   4.145   2.350  16.040 -1.1479 -0.2589  1.0207
18731TIP3   OH277683   6.761   4.152  14.972  0.3376  0.2635 -0.4620
18731TIP3    H177684   6.801   4.187  15.051  0.5671  1.3899 -1.0670
18731TIP3    H277685   6.692   4.093  15.005  0.8573  0.2107  0.5668
18732TIP3   OH277686   1.447   6.432  14.203  0.3332  0.2760 -0.2977
18732TIP3    H177687   1.539   6.407  14.205  0.1711 -0.3804  1.7441
18732TIP3    H277688   1.402   6.354  14.169  0.6054  1.1119 -2.7491
18733TIP3   OH277689   5.767   0.437  11.006 -0.1767 -0.2386 -0.7550
18733TIP3    H177690   5.828   0.368  11.031  1.2881  1.0561 -0.5910
18733TIP3    H277691   5.744   0.480  11.088 -3.4338 -2.2863 -0.4418
18734TIP3   OH277692   5.553   4.928   2.734  0.1995 -0.4991  0.0430
18734TIP3    H177693   5.528   4.845   2.693  1.2564 -0.9766  0.3246
18734TIP3    H277694   5.471   4.978   2.740 -0.6010 -1.8187  0.5601
18735TIP3   OH277695   2.962   0.670   5.576 -0.4483  0.1525  0.1050
18735TIP3    H177696   2.976   0.729   5.502  0.5341 -0.8528 -0.5329
18735TIP3    H277697   2.879   0.699   5.614 -0.8299  0.8731 -1.2126
18736TIP3   OH277698   4.075   3.689   3.246 -0.4225 -0.1894  0.0800
18736TIP3    H177699   4.001   3.653   3.294 -0.5851 -3.3054 -2.1713
18736TIP3    H277700   4.151   3.669   3.300 -0.6089 -3.4384 -0.6710
18737TIP3   OH277701   4.302   6.319   1.981 -0.0252  0.1119  0.4611
18737TIP3    H177702   4.282   6.228   1.962 -1.2889  0.5686 -0.5052
18737TIP3    H277703   4.383   6.337   1.933  0.7450 -0.7327  1.4023
18738TIP3   OH277704   0.361   4.618   3.371 -0.4274  0.3380 -0.2255
18738TIP3    H177705   0.360   4.682   3.442 -0.3772  0.2487 -0.1450
18738TIP3    H277706   0.336   4.668   3.293  1.4914  0.8877 -0.5280
18739TIP3   OH277707   5.929   2.147   5.275  0.2391  0.5661 -0.2099
18739TIP3    H177708   5.920   2.199   5.195 -1.8957 -1.5591 -1.4871
18739TIP3    H277709   5.899   2.204   5.345  0.8047  2.0046 -1.1011
18740TIP3   OH277710   3.307   4.010   2.818 -0.1258 -0.0603  0.7806
18740TIP3    H177711   3.388   4.048   2.851 -1.1895  3.0465  0.2092
18740TIP3    H277712   3.285   3.941   2.880  1.2055  1.2894  2.8799
18741TIP3   OH277713   5.915   3.238  14.129  0.0984  0.0636  0.0898
18741TIP3    H177714   5.949   3.213  14.215 -0.9522  1.7868  1.0854
18741TIP3    H277715   5.940   3.330  14.120  1.3275 -0.4224 -2.0832
18742TIP3   OH277716   4.377   4.737  13.782 -0.3082 -0.2778  0.1472
18742TIP3    H177717   4.439   4.802  13.748 -0.2884 -0.9062 -1.0743
18742TIP3    H277718   4.420   4.653  13.767 -0.1581 -0.5841  2.0916
18743TIP3   OH277719   4.140   1.219   4.826 -0.1736 -0.1075  0.1069
18743TIP3    H177720   4.048   1.199   4.840 -0.2477  0.2501  0.1379
18743TIP3    H277721   4.175   1.236   4.913 -0.8675  3.1235 -0.1258
18744TIP3   OH277722   2.699   4.937  17.071  0.1762 -0.5324  0.1688
18744TIP3    H177723   2.684   4.968  16.982  0.1760  1.5373  0.8321
18744TIP3    H277724   2.784   4.894  17.067  0.5365  0.2195 -0.7088
18745TIP3   OH277725   5.810   2.120   0.094 -1.2364 -0.0944  0.1163
18745TIP3    H177726   5.820   2.048   0.031  0.7555 -0.4138  0.7422
18745TIP3    H277727   5.826   2.199   0.042 -0.1228 -0.3259  0.0802
18746TIP3   OH277728   2.803   0.362  10.976  0.0015 -0.5221 -0.2395
18746TIP3    H177729   2.732   0.358  11.040  0.6637  3.1015  0.9312
18746TIP3    H277730   2.850   0.279  10.988 -2.1921 -1.6897  1.0702
18747TIP3   OH277731   3.855   3.351  11.276 -0.0684 -0.5064  0.1271
18747TIP3    H177732   3.797   3.332  11.202 -0.3026 -0.5183  0.3132
18747TIP3    H277733   3.839   3.443  11.297  0.7177 -0.2236 -0.4654
18748TIP3   OH277734   5.976   4.013   3.857 -0.0407  0.1085 -0.0374
18748TIP3    H177735   5.948   4.083   3.916 -0.5088 -1.1315  1.2756
18748TIP3    H277736   5.983   4.055   3.771  2.0233  2.3145  1.0989
18749TIP3   OH277737   0.767   0.270  12.225 -0.7189  0.2311 -0.4955
18749TIP3    H177738   0.837   0.318  12.268 -0.4681  0.0952 -0.7471
18749TIP3    H277739   0.701   0.336  12.205 -0.8253  0.2970  0.0725
18750TIP3   OH277740   2.897   5.871   5.772 -0.1687 -0.4243 -0.0615
18750TIP3    H177741   2.909   5.811   5.845 -1.3870  0.3661  0.8160
18750TIP3    H277742   2.848   5.820   5.707 -1.1247 -0.4280  0.6436
18751TIP3   OH277743   3.234   6.232   2.424  0.1483  0.2168  0.2769
18751TIP3    H177744   3.200   6.228   2.513  0.9861  0.8406  0.6466
18751TIP3    H277745   3.268   6.322   2.415  2.5583 -0.5998  0.3172
18752TIP3   OH277746   2.816   4.856   5.445 -0.1217 -0.2784  0.5177
18752TIP3    H177747   2.807   4.932   5.388  0.2303  1.0004  2.0915
18752TIP3    H277748   2.910   4.841   5.451 -0.2233 -1.3970 -0.4634
18753TIP3   OH277749   0.880   1.318   2.191 -0.1147 -0.1685 -0.4731
18753TIP3    H177750   0.956   1.302   2.246 -1.1204  1.3906  1.5455
18753TIP3    H277751   0.810   1.339   2.253 -2.1862 -1.4156 -2.2396
18754TIP3   OH277752   3.823   5.018  10.491 -0.0073  0.9194 -0.5201
18754TIP3    H177753   3.746   4.966  10.516  0.9153 -0.7810 -1.0323
18754TIP3    H277754   3.796   5.065  10.413 -0.7986  1.0149 -0.1957
18755TIP3   OH277755   4.682   2.543  11.524  0.0725  0.1434  0.6111
18755TIP3    H177756   4.619   2.499  11.467  0.3339 -0.8456  1.0649
18755TIP3    H277757   4.643   2.539  11.611  2.0913 -3.5014  1.5959
18756TIP3   OH277758   5.217   0.012   2.905  0.3127 -0.6216 -0.1313
18756TIP3    H177759   5.189  -0.070   2.866 -2.6041  0.2335 -0.0155
18756TIP3    H277760   5.188   0.080   2.843  0.8122  0.4440  0.7551
18757TIP3   OH277761   6.572   6.366  15.636 -0.2235  0.8994  0.4836
18757TIP3    H177762   6.608   6.411  15.713 -0.9103  0.0457  1.3305
18757TIP3    H277763   6.638   6.300  15.613 -0.3843  0.5949  0.8750
18758TIP3   OH277764   2.281   5.398   4.512  0.0012  0.1730  0.0800
18758TIP3    H177765   2.349   5.359   4.568  0.8922  0.8561 -0.5032
18758TIP3    H277766   2.291   5.352   4.429  0.9517  1.4983 -0.5613
18759TIP3   OH277767   6.335   0.049   5.013  0.0719  0.3404 -0.5032
18759TIP3    H177768   6.377  -0.036   5.022  0.6891  0.8110  1.8248
18759TIP3    H277769   6.313   0.056   4.920  3.5112 -0.6873 -1.5400
18760TIP3   OH277770   3.174   3.888   5.224 -0.2339 -0.7597 -0.1664
18760TIP3    H177771   3.081   3.878   5.242  0.0185 -1.5177  0.7686
18760TIP3    H277772   3.212   3.803   5.247  0.9683  0.1401  1.3120
18761TIP3   OH277773   3.957   2.028   0.459 -0.6240 -0.2980  0.2563
18761TIP3    H177774   3.886   1.987   0.410  1.4439 -2.8030 -0.8894
18761TIP3    H277775   3.990   2.097   0.401 -0.1436 -1.2220 -0.5916
18762TIP3   OH277776   3.329   0.791   1.303 -0.5465  0.1858 -0.2286
18762TIP3    H177777   3.337   0.763   1.394  1.5225 -0.1621 -0.4603
18762TIP3    H277778   3.277   0.723   1.261 -0.3867 -0.3442  0.4231
18763TIP3   OH277779   5.392   0.482   3.063  0.1443 -0.0707 -0.0312
18763TIP3    H177780   5.461   0.549   3.058 -0.7186  0.7731 -1.7045
18763TIP3    H277781   5.386   0.449   2.973 -0.7908 -1.0051  0.3700
18764TIP3   OH277782   3.257   2.506   5.828  0.1180  0.1570  0.2794
18764TIP3    H177783   3.252   2.571   5.758 -1.1716 -0.5558 -0.3334
18764TIP3    H277784   3.248   2.557   5.908  0.1329  0.8415 -0.1422
18765TIP3   OH277785   4.390   0.578  12.270  1.0326 -0.5311  0.1617
18765TIP3    H177786   4.452   0.505  12.277 -0.0237 -1.4397  0.3197
18765TIP3    H277787   4.354   0.587  12.358  0.3547 -0.5332 -0.1166
18766TIP3   OH277788   1.233   2.033  16.500 -0.5821  0.2004 -0.0173
18766TIP3    H177789   1.165   2.042  16.433 -0.0748  1.2723 -0.4182
18766TIP3    H277790   1.311   2.005  16.452 -0.2805  0.7317  0.1473
18767TIP3   OH277791   2.276   5.892   3.184 -0.2132  0.9948 -0.3588
18767TIP3    H177792   2.238   5.871   3.099  2.2139  0.4573 -1.4236
18767TIP3    H277793   2.202   5.918   3.239 -2.2594 -1.4408 -1.7560
18768TIP3   OH277794   3.835   1.807  10.814 -0.5053 -0.1239 -0.4987
18768TIP3    H177795   3.874   1.873  10.756  0.2243 -0.3776 -0.2989
18768TIP3    H277796   3.909   1.763  10.854 -0.9777 -1.1751 -0.7379
18769TIP3   OH277797   4.094   3.464   0.916  0.3941 -0.2305 -0.1214
18769TIP3    H177798   4.167   3.475   0.854  0.4879 -0.0543  0.0199
18769TIP3    H277799   4.110   3.529   0.983  2.1186 -2.5174  1.8769
18770TIP3   OH277800   5.272   5.388  12.079 -0.1899  0.4098 -0.1197
18770TIP3    H177801   5.279   5.428  11.992  0.1629  0.4284 -0.0840
18770TIP3    H277802   5.179   5.395  12.101 -0.4191 -0.2684 -0.8173
18771TIP3   OH277803   4.953   5.354  16.813 -0.2125  0.2129 -0.4829
18771TIP3    H177804   4.971   5.261  16.797  0.2588  0.4857 -1.6226
18771TIP3    H277805   4.976   5.368  16.905 -1.0309 -0.9650 -0.0706
18772TIP3   OH277806   6.643   3.383   2.010  0.4751 -0.8737  0.3548
18772TIP3    H177807   6.734   3.413   2.018  0.6991 -1.8106  1.6649
18772TIP3    H277808   6.631   3.324   2.085 -1.1000 -1.0594 -0.0205
18773TIP3   OH277809   5.906   5.931  10.989  0.1036  0.2344 -0.1291
18773TIP3    H177810   5.925   5.940  10.896  0.2408  1.2169 -0.0157
18773TIP3    H277811   5.851   5.853  10.995  2.0690 -1.2913 -0.7375
18774TIP3   OH277812   5.282   5.690  13.450  0.0037 -0.6796 -0.8555
18774TIP3    H177813   5.330   5.759  13.496 -0.0250  1.2275 -3.4500
18774TIP3    H277814   5.212   5.666  13.510  1.5543 -0.3575  1.2029
18775TIP3   OH277815   1.541   1.426   2.179  0.8185 -0.0213  0.0734
18775TIP3    H177816   1.509   1.398   2.265 -2.2413  1.4313 -0.4710
18775TIP3    H277817   1.554   1.345   2.131 -2.1824 -0.8385  0.4105
18776TIP3   OH277818   5.725   2.559  16.443 -0.2470 -0.4048 -0.1697
18776TIP3    H177819   5.692   2.565  16.354 -1.2289  0.2045  0.2152
18776TIP3    H277820   5.757   2.469  16.451  0.3738 -0.3015 -1.2954
18777TIP3   OH277821   6.493   4.785   5.866  0.2195 -0.1228 -0.4457
18777TIP3    H177822   6.562   4.810   5.928 -0.6003  1.8597 -0.2486
18777TIP3    H277823   6.440   4.864   5.858 -1.2708 -1.2083 -1.5987
18778TIP3   OH277824   2.195   6.179   5.603 -0.3255  0.5978  0.1279
18778TIP3    H177825   2.205   6.200   5.510 -0.9901  3.2112  0.5769
18778TIP3    H277826   2.101   6.187   5.620 -0.3553 -0.9177  0.8311
18779TIP3   OH277827   4.897   6.849  15.639  0.1519  0.5544 -0.3224
18779TIP3    H177828   4.890   6.837  15.734 -0.6411 -1.8496 -0.6074
18779TIP3    H277829   4.808   6.870  15.611  0.0312 -0.3913 -0.6864
18780TIP3   OH277830   6.516   3.728  11.373 -0.2098 -0.4345 -0.2790
18780TIP3    H177831   6.589   3.679  11.338 -0.7510 -1.6372  0.2213
18780TIP3    H277832   6.454   3.735  11.301 -1.2375 -2.7349  0.3029
18781TIP3   OH277833   1.264   1.387  11.348 -0.4666 -0.2127 -0.0567
18781TIP3    H177834   1.256   1.419  11.438  0.5167 -1.7460  0.6152
18781TIP3    H277835   1.249   1.464  11.294  0.6850  1.1343  1.4532
18782TIP3   OH277836   2.638   0.715   1.121  0.1387 -0.1450  0.2520
18782TIP3    H177837   2.732   0.716   1.103  0.4977 -1.2542  1.8359
18782TIP3    H277838   2.597   0.738   1.037  1.7261 -1.8418 -1.0607
18783TIP3   OH277839   5.335   0.409   2.817  0.3542 -0.3491  0.3421
18783TIP3    H177840   5.332   0.452   2.732  0.7885  1.1679  1.0531
18783TIP3    H277841   5.262   0.347   2.815  0.3549 -0.3406 -1.1200
18784TIP3   OH277842   0.734   0.303  15.815 -0.1816 -0.1192 -0.2869
18784TIP3    H177843   0.707   0.389  15.848  1.9889  2.0375 -3.4981
18784TIP3    H277844   0.695   0.298  15.728 -0.0166 -2.3298 -0.2899
18785TIP3   OH277845   5.379   4.703  11.936  0.8416  0.0993  0.1694
18785TIP3    H177846   5.325   4.749  12.000 -0.7619  1.9804 -2.3182
18785TIP3    H277847   5.446   4.767  11.911  1.4228 -0.5903 -0.0620
18786TIP3   OH277848   2.636   2.117  13.820  0.2651 -0.8749 -0.0866
18786TIP3    H177849   2.706   2.076  13.769 -0.4606 -1.6309 -0.5105
18786TIP3    H277850   2.621   2.201  13.778  0.0356 -1.2693 -0.8012
18787TIP3   OH277851   0.809   1.889  13.682  0.1366 -0.1552 -0.4122
18787TIP3    H177852   0.759   1.835  13.744  2.2357  1.2262  2.7359
18787TIP3    H277853   0.897   1.851  13.683  0.9562  1.6617 -0.2345
18788TIP3   OH277854   1.625   1.066   2.783 -0.0547 -0.3933  0.2378
18788TIP3    H177855   1.626   1.157   2.754  2.5161 -0.4414 -0.0921
18788TIP3    H277856   1.687   1.063   2.856  1.4772 -2.1889 -1.0149
18789TIP3   OH277857   2.890   0.934   5.091 -0.0419  0.4946  0.3010
18789TIP3    H177858   2.949   0.979   5.030 -0.9788 -0.8770 -1.7457
18789TIP3    H277859   2.815   0.909   5.037 -0.4904 -1.6566  1.7869
18790TIP3   OH277860   5.096   6.687   3.420  0.2146  0.2480  0.2639
18790TIP3    H177861   5.111   6.764   3.365  0.3200  0.8698  1.1478
18790TIP3    H277862   5.184   6.662   3.449  0.6328 -2.2777 -2.6961
18791TIP3   OH277863   5.313   3.672  13.240  0.1653 -0.4344 -0.2544
18791TIP3    H177864   5.384   3.662  13.176 -0.1021 -1.8786 -0.3547
18791TIP3    H277865   5.260   3.593  13.229 -2.1081  1.0815 -0.9499
18792TIP3   OH277866   1.442   5.353   5.695  0.2143  0.3038  0.2140
18792TIP3    H177867   1.359   5.401   5.700  1.0527  1.8544  0.0763
18792TIP3    H277868   1.430   5.290   5.625 -1.5411 -0.9649  1.5839
18793TIP3   OH277869   3.864   3.503   3.714  0.1598  0.3596 -0.8328
18793TIP3    H177870   3.872   3.425   3.658  0.1711 -0.3791  0.1748
18793TIP3    H277871   3.769   3.515   3.724  0.1529 -0.4106  0.1898
18794TIP3   OH277872   5.336   1.791  11.126 -0.1938  0.3443 -0.4847
18794TIP3    H177873   5.327   1.708  11.079  0.9012  1.4262 -2.7549
18794TIP3    H277874   5.416   1.781  11.176 -0.2463 -0.0852 -0.4813
18795TIP3   OH277875   0.703   3.968  14.729 -0.0872  0.1302 -0.1468
18795TIP3    H177876   0.641   4.022  14.679 -1.4184  2.3087  3.4334
18795TIP3    H277877   0.701   4.006  14.816  3.5533 -2.1470  1.1161
18796TIP3   OH277878   4.354   2.473  12.241 -0.3289  0.4540 -0.3095
18796TIP3    H177879   4.359   2.386  12.201  0.7549  0.3910 -0.0651
18796TIP3    H277880   4.438   2.514  12.221 -0.2605  0.9053  0.7837
18797TIP3   OH277881   0.441   1.585   0.321 -0.3150 -0.6578 -0.7850
18797TIP3    H177882   0.387   1.535   0.260 -2.4086 -0.9608  1.1846
18797TIP3    H277883   0.380   1.646   0.363  1.3017  0.4083  0.1309
18798TIP3   OH277884   4.764   3.604   3.708 -0.1232 -0.0349  0.3088
18798TIP3    H177885   4.780   3.664   3.636 -0.0363  1.0714  1.2197
18798TIP3    H277886   4.673   3.578   3.699 -0.1289  0.1458 -0.1553
18799TIP3   OH277887   1.595   3.731   2.333  0.7221  0.2941 -0.1371
18799TIP3    H177888   1.634   3.701   2.415  2.5720  0.4740 -0.9117
18799TIP3    H277889   1.549   3.811   2.357  0.0116 -0.4097  0.9798
18800TIP3   OH277890   4.020   5.105   2.451  0.7562  0.4743  0.4242
18800TIP3    H177891   4.115   5.091   2.443  0.7247 -1.4394  2.3623
18800TIP3    H277892   4.005   5.113   2.546 -0.9249  1.8222  0.0891
18801TIP3   OH277893   5.474   2.269  10.705  0.0600 -0.3823 -0.4115
18801TIP3    H177894   5.425   2.189  10.728  0.1359 -0.7773 -1.5288
18801TIP3    H277895   5.541   2.238  10.644  0.9177  0.3556  0.1432
18802TIP3   OH277896   2.303   2.387  15.824 -0.6545  0.0486  0.4719
18802TIP3    H177897   2.380   2.441  15.807 -0.8558 -0.2127 -1.4793
18802TIP3    H277898   2.237   2.450  15.856 -0.4959  0.7795 -0.5682
18803TIP3   OH277899   0.136   2.931   5.980 -0.5723 -0.1996  0.1858
18803TIP3    H177900   0.212   2.988   5.968 -0.2490 -0.5223  0.6626
18803TIP3    H277901   0.114   2.940   6.073  0.1009 -1.6089  0.5041
18804TIP3   OH277902   4.962   4.516   2.508 -0.3011 -0.0931 -0.0339
18804TIP3    H177903   5.051   4.485   2.492 -0.6178 -0.5840 -0.8844
18804TIP3    H277904   4.939   4.479   2.593  0.5628  0.6309  0.5261
18805TIP3   OH277905   4.449   3.354   5.489  0.2200  0.0082 -0.4669
18805TIP3    H177906   4.494   3.384   5.411  1.0041 -1.9438 -0.8391
18805TIP3    H277907   4.365   3.399   5.487  0.5911  0.7071 -1.9230
18806TIP3   OH277908   6.190   1.870  15.929  0.4098  0.0065  0.0606
18806TIP3    H177909   6.267   1.922  15.952  1.0579 -1.3270  0.9911
18806TIP3    H277910   6.191   1.867  15.833  3.1662 -2.2914  0.0489
18807TIP3   OH277911   2.926   6.682  12.515  0.0179  0.3184 -0.6372
18807TIP3    H177912   2.860   6.728  12.463  1.2092 -0.0154 -2.5757
18807TIP3    H277913   2.908   6.708  12.605 -2.2646  0.8079 -1.1723
18808TIP3   OH277914   0.527   2.795  16.634 -0.2799 -0.1647  0.5377
18808TIP3    H177915   0.545   2.878  16.679  0.4138  0.1352 -0.2614
18808TIP3    H277916   0.595   2.789  16.567 -0.8491 -0.9610  0.0185
18809TIP3   OH277917   2.951   3.521   1.002 -0.1729  0.6203  0.2456
18809TIP3    H177918   3.038   3.496   1.030 -0.0284  1.2421  0.3732
18809TIP3    H277919   2.893   3.454   1.039  0.0829  1.0531  1.4701
18810TIP3   OH277920   0.805   5.046  16.892  0.2637  0.3019  0.5708
18810TIP3    H177921   0.710   5.034  16.899  0.0907  1.4586  0.3221
18810TIP3    H277922   0.818   5.088  16.807  1.0263 -0.0469  0.5081
18811TIP3   OH277923   4.097   3.824  15.577 -0.0658 -0.6501 -0.2126
18811TIP3    H177924   4.003   3.838  15.581 -0.3232 -2.2974  0.2151
18811TIP3    H277925   4.108   3.747  15.522  1.0011 -0.8312  0.2204
18812TIP3   OH277926   1.481   6.041  11.823  0.2793 -0.0073 -0.5439
18812TIP3    H177927   1.485   5.989  11.903 -1.6874 -1.4017 -1.2860
18812TIP3    H277928   1.573   6.049  11.795  0.9785  0.3121  1.6741
18813TIP3   OH277929   0.818   6.776   3.832 -0.0992  0.2654  0.2090
18813TIP3    H177930   0.844   6.715   3.901  0.3191 -0.4668 -0.5757
18813TIP3    H277931   0.858   6.741   3.752 -1.8295  0.2351 -0.6859
18814TIP3   OH277932   4.155   0.515   0.877 -0.4071 -0.2871 -0.4403
18814TIP3    H177933   4.061   0.533   0.874 -0.3077  0.2477 -0.4961
18814TIP3    H277934   4.195   0.601   0.893  0.1257 -0.3537 -1.3277
18815TIP3   OH277935   6.179   5.433   0.868  0.3302  0.2069  0.3580
18815TIP3    H177936   6.177   5.515   0.917  0.4836  0.6873 -0.4229
18815TIP3    H277937   6.096   5.390   0.891  0.0040  0.8198  0.3677
18816TIP3   OH277938   5.178   4.215  15.722  0.3187  0.6444  0.1004
18816TIP3    H177939   5.225   4.198  15.640 -0.6715 -4.7920  0.2356
18816TIP3    H277940   5.243   4.198  15.791  0.1958  1.4442  0.4252
18817TIP3   OH277941   0.827   3.153  15.318 -0.2334 -0.3830 -0.6083
18817TIP3    H177942   0.885   3.153  15.242 -0.1520  0.9343 -0.5681
18817TIP3    H277943   0.783   3.238  15.315  0.7097  0.2471  1.5086
18818TIP3   OH277944   3.861   1.654   6.482 -0.2876  0.0120  0.2974
18818TIP3    H177945   3.926   1.724   6.481  1.3385 -1.4259  0.3250
18818TIP3    H277946   3.907   1.578   6.446 -2.9177 -0.3180 -2.7418
18819TIP3   OH277947   5.667   5.704   4.196  0.2696  0.2962  0.3520
18819TIP3    H177948   5.659   5.792   4.231 -0.5301  0.7776 -0.9563
18819TIP3    H277949   5.713   5.715   4.113 -2.7900  0.0146 -1.5397
18820TIP3   OH277950   3.620   6.434  13.738  0.1504  0.5099  0.4223
18820TIP3    H177951   3.535   6.463  13.704 -0.8606 -2.1388  0.4323
18820TIP3    H277952   3.684   6.464  13.673 -0.9423  1.4840 -0.2343
18821TIP3   OH277953   5.404   3.279   0.032  0.2566  0.2000 -0.0295
18821TIP3    H177954   5.340   3.207   0.026 -0.1024  0.5382 -0.2757
18821TIP3    H277955   5.485   3.241  -0.002  0.1384 -0.1725  0.0941
18822TIP3   OH277956   4.484   3.855  13.213  0.7037  0.3595 -0.1339
18822TIP3    H177957   4.521   3.768  13.200 -0.3293 -0.1196  0.0044
18822TIP3    H277958   4.432   3.848  13.293  1.2032  1.3152  0.3018
18823TIP3   OH277959   2.365   0.169  12.152 -0.0310  0.5080  0.1367
18823TIP3    H177960   2.341   0.201  12.065  0.5112 -1.0478 -0.6183
18823TIP3    H277961   2.448   0.212  12.171  0.9898 -0.8132 -1.1179
18824TIP3   OH277962   0.229   1.348   1.646  0.3691  0.8516 -0.2895
18824TIP3    H177963   0.148   1.378   1.686  0.7028 -1.0927  2.1121
18824TIP3    H277964   0.222   1.374   1.555 -2.6746  1.3002 -0.0305
18825TIP3   OH277965   1.627   5.925   6.230  0.2818 -0.3036  0.3761
18825TIP3    H177966   1.632   5.830   6.227  0.5803 -0.3522  1.7198
18825TIP3    H277967   1.611   5.945   6.323  0.4092  0.9534  0.1436
18826TIP3   OH277968   6.072   3.231  14.360  0.1498  0.6392 -0.5485
18826TIP3    H177969   6.061   3.278  14.442  0.5347  0.2531 -0.2743
18826TIP3    H277970   6.092   3.141  14.386 -0.7058  0.2794 -1.0604
18827TIP3   OH277971   3.530   0.787  11.370  0.8298  0.0102  0.1889
18827TIP3    H177972   3.474   0.732  11.316 -2.2651  2.8625  0.2201
18827TIP3    H277973   3.587   0.832  11.308  2.4442 -1.9983  0.0712
18828TIP3   OH277974   0.943   5.429   4.745  0.5809  0.0916  0.2392
18828TIP3    H177975   0.927   5.393   4.832 -0.6586 -1.7699 -0.7029
18828TIP3    H277976   0.874   5.495   4.732 -1.2465 -1.8676 -0.4983
18829TIP3   OH277977   5.118   4.033   5.159 -0.7174 -0.1180 -0.4844
18829TIP3    H177978   5.161   4.103   5.111 -1.3037 -0.0083 -0.8696
18829TIP3    H277979   5.091   3.971   5.092 -0.4252 -0.5951 -0.1699
18830TIP3   OH277980   0.699   6.709  16.306 -0.1475 -0.0711 -0.4327
18830TIP3    H177981   0.680   6.801  16.320 -1.3072 -0.6131  2.1493
18830TIP3    H277982   0.788   6.708  16.271 -0.7200  2.0520 -2.1785
18831TIP3   OH277983   6.472   1.804   3.031  0.1171 -0.1544  0.0236
18831TIP3    H177984   6.482   1.751   2.952 -0.3259 -0.3424  0.0904
18831TIP3    H277985   6.560   1.840   3.047  0.3008 -0.4394 -0.3216
18832TIP3   OH277986   4.084   2.085   0.040  0.7576 -0.2809 -0.4875
18832TIP3    H177987   4.014   2.149   0.053  0.8046  0.0498 -1.7396
18832TIP3    H277988   4.163   2.130   0.070  0.5618 -0.3593  0.1670
18833TIP3   OH277989   1.801   2.918   1.547 -0.2672 -0.2990 -0.4318
18833TIP3    H177990   1.872   2.895   1.489  0.4736 -0.9055  0.6767
18833TIP3    H277991   1.770   2.834   1.582 -0.9088  0.0240 -0.2028
18834TIP3   OH277992   4.796   1.548   1.157  0.2695 -0.1961 -0.0465
18834TIP3    H177993   4.857   1.568   1.228 -0.3397  0.2013  0.3730
18834TIP3    H277994   4.848   1.497   1.095  1.8837  2.4815 -1.1024
18835TIP3   OH277995   3.466   5.466  16.630 -0.5837 -0.6963 -0.0923
18835TIP3    H177996   3.382   5.505  16.654 -1.2490 -1.5565 -0.9778
18835TIP3    H277997   3.499   5.427  16.712 -0.2634  0.9904  0.6302
18836TIP3   OH277998   3.042   3.478   6.105 -0.2323 -0.5979  0.0700
18836TIP3    H177999   2.952   3.509   6.118 -0.8512 -2.8058  1.6808
18836TIP3    H278000   3.094   3.533   6.163 -0.3148  1.3410 -1.5761
18837TIP3   OH278001   4.406   0.955   2.318 -0.2935  0.3221  0.2321
18837TIP3    H178002   4.454   0.924   2.395  1.0848  1.5476 -0.0748
18837TIP3    H278003   4.467   0.939   2.245 -1.0008  0.4816 -0.4004
18838TIP3   OH278004   6.547   4.015   2.236  0.1901  0.5162 -0.1287
18838TIP3    H178005   6.544   4.067   2.316  0.2810 -0.9253  0.8533
18838TIP3    H278006   6.631   4.038   2.196 -0.3442  2.0765 -0.4294
18839TIP3   OH278007   5.610   3.911   3.674  0.6115 -0.0944 -0.5659
18839TIP3    H178008   5.698   3.897   3.638  0.8257  0.4360 -0.2589
18839TIP3    H278009   5.565   3.964   3.607  0.6306 -0.0938 -0.5781
18840TIP3   OH278010   0.795   4.434   0.827 -0.2040  0.0096 -0.0004
18840TIP3    H178011   0.730   4.381   0.779 -2.3123  1.5107  1.0267
18840TIP3    H278012   0.839   4.484   0.760 -0.5670 -0.5617 -0.6833
18841TIP3   OH278013   4.777   1.270   4.922 -0.2481  0.3416 -0.0677
18841TIP3    H178014   4.688   1.304   4.913 -0.2117 -0.0337 -2.1805
18841TIP3    H278015   4.828   1.343   4.956 -1.1657  0.8547  0.2100
18842TIP3   OH278016   1.320   3.530   3.799 -0.2084 -0.2108 -0.4956
18842TIP3    H178017   1.374   3.591   3.749 -1.5741  2.2369  0.8089
18842TIP3    H278018   1.312   3.453   3.743  2.5086  0.3163 -1.7660
18843TIP3   OH278019   2.935   0.647  12.148 -0.4839  0.3643  0.0672
18843TIP3    H178020   2.934   0.738  12.118 -0.3792 -0.0521 -1.2259
18843TIP3    H278021   2.905   0.597  12.073  2.3223 -0.9815 -0.2448
18844TIP3   OH278022   0.038   3.635  11.556  0.1508 -0.7146  0.4358
18844TIP3    H178023   0.055   3.616  11.648  0.1538  1.4263  0.9203
18844TIP3    H278024  -0.049   3.598  11.539  1.1605 -3.3983  0.5196
18845TIP3   OH278025   0.712   4.758  11.753  0.2451 -0.9758  0.6579
18845TIP3    H178026   0.790   4.799  11.715 -0.7912  0.4926 -0.0235
18845TIP3    H278027   0.639   4.795  11.702 -1.2324  0.8104  3.7278
18846TIP3   OH278028   1.334   5.721   1.420  0.2922  0.2322 -0.2635
18846TIP3    H178029   1.303   5.812   1.416 -0.6565 -0.0825 -0.2076
18846TIP3    H278030   1.424   5.728   1.451  0.0167  1.1069  0.3657
18847TIP3   OH278031   0.281   4.379   3.519  0.2685  0.5015 -0.5119
18847TIP3    H178032   0.279   4.399   3.612  1.0311  1.5583 -0.6972
18847TIP3    H278033   0.309   4.461   3.477  2.6305 -0.6384 -1.4064
18848TIP3   OH278034   6.094   2.828   6.407  0.5716 -0.3229 -0.1425
18848TIP3    H178035   6.003   2.839   6.377  0.8497 -0.4613 -1.0682
18848TIP3    H278036   6.103   2.890   6.479 -0.2670 -0.3260 -0.0239
18849TIP3   OH278037   4.337   4.410  13.445  0.2320 -0.4046 -0.1237
18849TIP3    H178038   4.330   4.315  13.440  0.7788 -0.5230  0.9860
18849TIP3    H278039   4.267   4.436  13.505  0.0731 -0.1072 -0.4361
18850TIP3   OH278040   4.076   4.137   0.983  0.0972  0.5897  0.0339
18850TIP3    H178041   4.163   4.111   1.012  0.2920  1.1312 -0.0414
18850TIP3    H278042   4.026   4.147   1.064  0.0020 -0.0793  0.0553
18851TIP3   OH278043   6.643   0.401   5.752 -0.6713  0.5383 -0.3834
18851TIP3    H178044   6.731   0.409   5.788  0.0163 -0.0649 -1.8332
18851TIP3    H278045   6.656   0.361   5.666 -2.2362  1.8099 -1.2548
18852TIP3   OH278046   6.557   1.354   2.872  0.2505 -0.1297  0.5960
18852TIP3    H178047   6.605   1.278   2.838  0.9839  1.0265 -1.0731
18852TIP3    H278048   6.557   1.341   2.967  0.0641 -2.3694  0.3612
18853TIP3   OH278049   0.083   4.845   3.549  0.5204 -0.0077 -0.3876
18853TIP3    H178050   0.129   4.777   3.599  0.8112  1.1738  1.0030
18853TIP3    H278051   0.152   4.890   3.501  0.4521 -0.0088 -0.4882
18854TIP3   OH278052   4.819   6.332   1.788 -0.3596 -0.0780 -0.2500
18854TIP3    H178053   4.857   6.352   1.702 -0.3136  1.7415  0.1536
18854TIP3    H278054   4.858   6.247   1.812  0.9989  0.2242 -1.2542
18855TIP3   OH278055   5.812   4.386  13.031 -0.0652  0.5465  0.0301
18855TIP3    H178056   5.844   4.435  12.956  1.9125 -1.4046 -0.5483
18855TIP3    H278057   5.806   4.450  13.101 -0.3308  2.1013 -1.3602
18856TIP3   OH278058   1.778   0.390   1.325  0.0527  0.0311 -0.7603
18856TIP3    H178059   1.777   0.419   1.416 -1.2487  0.0866 -0.7731
18856TIP3    H278060   1.752   0.468   1.275 -2.0066 -0.7147 -0.9252
18857TIP3   OH278061   5.257   0.067  16.650  0.5834  0.0149 -0.1610
18857TIP3    H178062   5.220   0.063  16.562 -0.9970 -1.1877  0.5291
18857TIP3    H278063   5.300  -0.017  16.662  0.5001  0.0426  0.3452
18858TIP3   OH278064   5.684   4.692  12.810 -0.4994  0.4249 -0.4037
18858TIP3    H178065   5.611   4.631  12.815  0.2502 -0.5141 -0.6781
18858TIP3    H278066   5.657   4.754  12.741 -0.2165 -1.0788 -1.9417
18859TIP3   OH278067   3.292   4.464  15.088 -0.4226  0.3703  0.4335
18859TIP3    H178068   3.290   4.379  15.132  0.0006  0.2460  0.2170
18859TIP3    H278069   3.385   4.487  15.083 -0.2506 -0.5172 -2.0592
18860TIP3   OH278070   6.179   2.243  11.849  0.7461 -0.1911 -0.0272
18860TIP3    H178071   6.120   2.300  11.899 -1.1560 -2.1574  0.1153
18860TIP3    H278072   6.262   2.245  11.897 -0.1713  0.1998  1.5843
18861TIP3   OH278073   4.281   4.989   1.073  0.1865 -0.0695  0.5977
18861TIP3    H178074   4.244   5.012   0.988 -1.3561  0.9986  1.5099
18861TIP3    H278075   4.239   4.906   1.095  0.0464  0.0132  0.6400
18862TIP3   OH278076   5.771   3.025  12.474 -0.0847 -0.3248  0.1615
18862TIP3    H178077   5.710   2.954  12.453  2.2996 -1.9868 -1.8814
18862TIP3    H278078   5.792   3.064  12.390 -0.9363  2.5738  1.2025
18863TIP3   OH278079   4.053   0.846  16.275 -0.0850  0.0444 -0.1153
18863TIP3    H178080   4.060   0.931  16.320  0.0998 -0.5226  0.9803
18863TIP3    H278081   4.051   0.782  16.347 -0.5719 -0.8564 -0.9153
18864TIP3   OH278082   4.673   5.993   5.593 -0.2809  0.4825  0.8493
18864TIP3    H178083   4.705   6.071   5.547 -0.6770  1.6530  2.4871
18864TIP3    H278084   4.620   6.027   5.665  0.1187 -1.2770  2.0462
18865TIP3   OH278085   4.287   5.912   6.704 -0.8712 -0.5358  0.4434
18865TIP3    H178086   4.207   5.931   6.655 -1.2725 -0.8208  0.9811
18865TIP3    H278087   4.355   5.905   6.637 -1.4773 -1.2671 -0.1014
18866TIP3   OH278088   3.716   6.034   2.331  0.2908  0.6482  0.7142
18866TIP3    H178089   3.749   5.959   2.380  1.0371  1.1773  1.0355
18866TIP3    H278090   3.623   6.039   2.355  0.3214  0.0628  0.9813
18867TIP3   OH278091   1.489   6.776  14.533 -0.1018 -0.5458 -0.6520
18867TIP3    H178092   1.461   6.784  14.625  0.5876  4.0159 -0.6036
18867TIP3    H278093   1.557   6.710  14.535  0.7614  0.2479  2.4361
18868TIP3   OH278094   1.730   1.852   1.965  0.1416  0.2269  0.0044
18868TIP3    H178095   1.676   1.817   1.894  1.1669 -0.3505 -0.5110
18868TIP3    H278096   1.668   1.865   2.037 -0.3197 -2.7248  0.2673
18869TIP3   OH278097   5.318   5.830  12.230  0.1977  0.5440 -0.1198
18869TIP3    H178098   5.364   5.756  12.270  0.9972  0.7112 -0.7128
18869TIP3    H278099   5.346   5.829  12.138 -1.0671  0.5935 -0.5238
18870TIP3   OH278100   0.169   3.315  11.197 -0.2173  0.2717  0.0613
18870TIP3    H178101   0.254   3.303  11.154 -0.0946  1.3393 -0.0059
18870TIP3    H278102   0.190   3.347  11.284 -0.5492  0.3164  0.1270
18871TIP3   OH278103   4.539   4.615   2.997  0.0238 -0.0305 -0.3645
18871TIP3    H178104   4.506   4.642   2.912  2.3955 -0.6326 -1.5862
18871TIP3    H278105   4.526   4.520   2.999  0.4103 -0.0860 -0.2938
18872TIP3   OH278106   4.707   1.833  12.182 -0.1562  0.2864  0.0967
18872TIP3    H178107   4.660   1.810  12.262  0.8749 -0.1437  0.5992
18872TIP3    H278108   4.658   1.791  12.112 -0.5610 -0.0952  0.6042
18873TIP3   OH278109   5.464   3.289   1.864  0.1753 -0.0612 -0.0720
18873TIP3    H178110   5.457   3.377   1.901 -1.3399 -0.0347 -0.3278
18873TIP3    H278111   5.491   3.234   1.937  0.0028  0.4444  0.3774
18874TIP3   OH278112   1.488   4.558  12.224 -0.2433 -0.3941 -0.3453
18874TIP3    H178113   1.472   4.643  12.265  2.2683  0.1333 -0.3056
18874TIP3    H278114   1.415   4.546  12.163 -1.6492  0.8767  1.0283
18875TIP3   OH278115   1.415   1.498   4.151  0.0734 -0.1096  0.0229
18875TIP3    H178116   1.355   1.569   4.129 -1.8735 -1.1082  1.7998
18875TIP3    H278117   1.502   1.537   4.145 -0.8011  1.8066 -1.1485
18876TIP3   OH278118   2.555   0.273   5.164  0.3485  0.1275 -0.3389
18876TIP3    H178119   2.575   0.364   5.141  0.7541  0.2799  0.5693
18876TIP3    H278120   2.641   0.232   5.174  0.2093  0.1698  1.2375
18877TIP3   OH278121   2.618   4.204   2.892  0.2711  0.0458  0.5975
18877TIP3    H178122   2.704   4.230   2.926  1.1314 -0.7828 -0.8244
18877TIP3    H278123   2.623   4.225   2.799 -1.4259  0.8157  0.6438
18878TIP3   OH278124   1.093   1.209  14.590 -0.4409 -0.3565 -0.2046
18878TIP3    H178125   1.160   1.234  14.653 -0.2499  0.3344 -0.6747
18878TIP3    H278126   1.068   1.120  14.617  0.6468 -0.6300 -0.0035
18879TIP3   OH278127   5.653   4.333   1.494  0.1035 -0.4960 -0.1333
18879TIP3    H178128   5.678   4.392   1.422  1.0282  0.1536  0.6803
18879TIP3    H278129   5.575   4.288   1.462 -0.0086  0.3968 -1.2103
18880TIP3   OH278130   3.219   5.102  14.741 -0.7249 -0.6374 -0.1607
18880TIP3    H178131   3.197   5.195  14.740 -2.9084 -1.0565 -2.2964
18880TIP3    H278132   3.137   5.058  14.764  0.2403 -2.0631  0.6991
18881TIP3   OH278133   2.801   0.457  13.027 -0.0310 -0.0906  0.0459
18881TIP3    H178134   2.714   0.449  12.987 -0.7525  2.4810  0.8870
18881TIP3    H278135   2.784   0.467  13.120  1.4031 -2.2435  0.6115
18882TIP3   OH278136   4.344   3.945  12.248 -0.0885  0.7507  0.2278
18882TIP3    H178137   4.397   3.984  12.179  0.4955  0.9980  0.7983
18882TIP3    H278138   4.327   3.856  12.219  0.4378  0.7472 -0.0757
18883TIP3   OH278139   5.835   2.952  13.366 -0.1687  0.3255 -0.0621
18883TIP3    H178140   5.908   3.013  13.359 -0.8191  0.9491 -2.7561
18883TIP3    H278141   5.768   2.988  13.307 -0.5752 -2.8886 -1.8210
18884TIP3   OH278142   3.565   3.739   3.354 -0.1501  0.3449 -0.2254
18884TIP3    H178143   3.603   3.787   3.280  1.9396 -2.0733 -0.8458
18884TIP3    H278144   3.477   3.776   3.363  0.3286  2.2717 -2.4485
18885TIP3   OH278145   2.614   6.697  12.028 -0.1170 -0.0684 -0.2185
18885TIP3    H178146   2.662   6.614  12.033 -0.2956 -0.1349  0.6052
18885TIP3    H278147   2.522   6.671  12.028 -0.2448 -0.0563 -3.8490
18886TIP3   OH278148   3.348   4.065   5.531  0.0046  0.0030 -0.3013
18886TIP3    H178149   3.302   4.042   5.612 -0.4857 -0.7981 -0.7895
18886TIP3    H278150   3.277   4.084   5.469  0.3846  1.1553 -0.3947
18887TIP3   OH278151   6.138   1.299  11.850 -0.0587 -0.3269  0.0111
18887TIP3    H178152   6.176   1.279  11.936 -1.0519 -0.6280  0.3917
18887TIP3    H278153   6.201   1.359  11.810  0.9085 -0.9622  0.5421
18888TIP3   OH278154   3.575   0.159  16.781 -0.1502 -0.4774 -0.6842
18888TIP3    H178155   3.591   0.068  16.756 -1.3615 -0.8104 -0.3438
18888TIP3    H278156   3.515   0.192  16.714 -2.2376 -0.9275  0.8607
18889TIP3   OH278157   3.592   0.026   4.888  0.3918 -0.0950 -0.1470
18889TIP3    H178158   3.606   0.099   4.947 -1.6073 -0.2189  0.5528
18889TIP3    H278159   3.670   0.024   4.833  0.6803  2.2923  0.0816
18890TIP3   OH278160   1.816   3.017   2.487 -0.0490  0.5571  0.3004
18890TIP3    H178161   1.785   2.934   2.450  2.1238 -1.3330  2.3661
18890TIP3    H278162   1.902   3.030   2.448 -0.5408  2.1856 -0.3590
18891TIP3   OH278163   3.829   1.600   2.832  0.0971  1.0227 -0.4176
18891TIP3    H178164   3.812   1.687   2.795 -1.3733  1.2070  0.5911
18891TIP3    H278165   3.742   1.568   2.857  0.5285 -1.0331 -1.3697
18892TIP3   OH278166   2.494   0.248   2.303  0.4386 -0.5698 -0.8063
18892TIP3    H178167   2.549   0.326   2.308 -0.4913  0.3124 -3.1423
18892TIP3    H278168   2.530   0.198   2.231 -1.8185  0.1223 -2.5265
18893TIP3   OH278169   2.813   3.549   2.533 -0.3891  0.3202 -0.4164
18893TIP3    H178170   2.872   3.511   2.468 -1.3430  0.9564 -1.7018
18893TIP3    H278171   2.853   3.632   2.557  0.6475 -0.5221  0.8408
18894TIP3   OH278172   1.477   1.659  13.862 -0.0971 -0.1484  0.4505
18894TIP3    H178173   1.496   1.739  13.813  2.4310  0.2353  1.8780
18894TIP3    H278174   1.484   1.588  13.798 -0.3451  0.6009 -0.4170
18895TIP3   OH278175   3.714   2.177  14.632  0.6395  0.3890 -0.3008
18895TIP3    H178176   3.789   2.218  14.677  2.2507 -0.7009 -1.8556
18895TIP3    H278177   3.701   2.094  14.679  0.7422  0.3413 -0.3571
18896TIP3   OH278178   4.344   5.315   4.717  0.7814  0.4241  0.3519
18896TIP3    H178179   4.369   5.385   4.778  2.6123 -0.3809  0.6043
18896TIP3    H278180   4.259   5.284   4.748  0.2156  2.1313  0.5738
18897TIP3   OH278181   0.722   3.336   2.690  0.6238  0.1615  0.2012
18897TIP3    H178182   0.696   3.247   2.667  0.5033  0.3675 -0.4904
18897TIP3    H278183   0.677   3.354   2.772  0.3654 -0.2846  0.1615
18898TIP3   OH278184   5.203   4.373  12.855  0.4455  0.0585  0.1244
18898TIP3    H178185   5.124   4.318  12.859  0.2631  0.2893 -0.2453
18898TIP3    H278186   5.275   4.312  12.869  0.1276  0.1925  3.1903
18899TIP3   OH278187   6.103   6.689  12.630 -0.0847 -0.5309 -0.1159
18899TIP3    H178188   6.127   6.601  12.659 -1.5918 -0.9370  0.0091
18899TIP3    H278189   6.020   6.677  12.585 -0.0016  0.7523 -0.6526
18900TIP3   OH278190   3.193   4.394   5.259 -0.2103 -0.0987 -0.2890
18900TIP3    H178191   3.253   4.416   5.188  1.2182 -2.4591  0.0730
18900TIP3    H278192   3.106   4.418   5.227  0.7231  1.9856 -1.4473
18901TIP3   OH278193   5.794   6.078   2.862  0.0047  0.8995 -0.0791
18901TIP3    H178194   5.715   6.116   2.823 -0.9240  1.0787  1.8547
18901TIP3    H278195   5.801   5.991   2.821 -1.6190  0.5965  0.1994
18902TIP3   OH278196   5.592   3.897   0.108 -0.2258  0.6907  0.0124
18902TIP3    H178197   5.545   3.981   0.110 -0.9626  0.2729  0.7288
18902TIP3    H278198   5.527   3.834   0.078  0.2207  0.3120 -0.1582
18903TIP3   OH278199   1.687   2.325   6.155 -0.1207 -0.2888 -0.7309
18903TIP3    H178200   1.718   2.335   6.245 -0.2717 -0.0801 -0.7007
18903TIP3    H278201   1.660   2.413   6.129  0.8313 -0.1640 -1.3234
18904TIP3   OH278202   5.489   1.040   2.532 -0.1310  0.6008  0.0643
18904TIP3    H178203   5.583   1.059   2.534  0.4693 -1.8212  2.8300
18904TIP3    H278204   5.479   0.974   2.463  0.1007  1.1982 -0.5466
18905TIP3   OH278205   4.770   3.407  15.221  0.0075  0.3230  0.6039
18905TIP3    H178206   4.777   3.388  15.127  0.0409  0.4661  0.5783
18905TIP3    H278207   4.687   3.367  15.247 -0.8955  1.8200  0.1457
18906TIP3   OH278208   2.277   1.230  11.292  0.0325  0.4196  0.8709
18906TIP3    H178209   2.371   1.208  11.294  0.0871  0.6411  2.1911
18906TIP3    H278210   2.234   1.146  11.277  0.4203  0.1608  1.1617
18907TIP3   OH278211   4.614   6.376   4.213  0.1376 -0.2453  0.0030
18907TIP3    H178212   4.527   6.347   4.185  0.1351 -1.3535  1.0771
18907TIP3    H278213   4.617   6.356   4.306  0.0523  3.5795  0.9955
18908TIP3   OH278214   6.336   5.559   6.161  0.1685 -0.0185 -0.4662
18908TIP3    H178215   6.426   5.562   6.192  0.3430  2.4142 -1.0179
18908TIP3    H278216   6.284   5.549   6.240  0.8845 -3.9752 -0.2863
18909TIP3   OH278217   0.294   1.482   3.669 -0.3080 -0.3289  0.2872
18909TIP3    H178218   0.232   1.544   3.708 -1.0777 -1.4116  0.8016
18909TIP3    H278219   0.254   1.396   3.682  1.4271 -1.0801  0.8545
18910TIP3   OH278220   6.134   5.344  15.196  0.1167 -0.1776 -0.0472
18910TIP3    H178221   6.056   5.330  15.248 -0.5872 -0.6522 -1.2004
18910TIP3    H278222   6.188   5.266  15.211  0.7243  0.4605  1.2960
18911TIP3   OH278223   0.686   6.601  12.021 -0.0724 -0.0750 -0.3758
18911TIP3    H178224   0.603   6.556  12.040  1.0626 -1.9966  0.3561
18911TIP3    H278225   0.668   6.693  12.041 -1.9049 -0.4983  0.1610
18912TIP3   OH278226   1.031   6.167   6.168 -0.2511 -0.5149 -0.1081
18912TIP3    H178227   1.020   6.254   6.207 -2.3960 -1.1934  0.9711
18912TIP3    H278228   1.040   6.108   6.243  0.2568 -1.3314 -0.7960
18913TIP3   OH278229   5.034   5.882   4.862  0.3733  0.4629 -0.2610
18913TIP3    H178230   5.113   5.854   4.908 -0.1873  0.1128  0.4980
18913TIP3    H278231   4.997   5.801   4.826 -1.5682 -0.0015  2.4307
18914TIP3   OH278232   6.256   3.808  12.315 -0.2765 -0.0304 -0.4572
18914TIP3    H178233   6.307   3.836  12.391  1.1931 -0.6969 -1.1535
18914TIP3    H278234   6.202   3.736  12.348 -0.6452  0.5526  0.2463
18915TIP3   OH278235   1.072   1.507  14.551 -0.5137 -0.1412 -0.3353
18915TIP3    H178236   1.028   1.525  14.634 -0.0224  1.1090 -0.3289
18915TIP3    H278237   1.149   1.455  14.575 -0.3222  0.2958  0.0108
18916TIP3   OH278238   0.728   4.495   2.661  0.4177  0.0773  0.7330
18916TIP3    H178239   0.680   4.465   2.738  0.9036  0.1348  1.0642
18916TIP3    H278240   0.663   4.496   2.591  0.4780 -2.2374  0.5709
18917TIP3   OH278241   1.172   2.320  11.277  0.1697  0.1722 -0.4515
18917TIP3    H178242   1.243   2.263  11.309  0.7323  0.6172 -0.8788
18917TIP3    H278243   1.190   2.405  11.317  0.2339  0.4452 -1.0525
18918TIP3   OH278244   2.890   3.705  11.495  0.6395  0.5469  0.2414
18918TIP3    H178245   2.847   3.632  11.451  0.1867  0.5575  0.6501
18918TIP3    H278246   2.853   3.704  11.583 -0.4710  2.1734 -0.1776
18919TIP3   OH278247   1.168   5.075  11.290  0.5243 -0.2005 -0.0149
18919TIP3    H178248   1.100   5.114  11.344 -1.6004 -2.0430 -1.2203
18919TIP3    H278249   1.192   4.994  11.335 -0.6493 -1.3171 -1.3219
18920TIP3   OH278250   0.426   2.818   2.430 -0.2405 -0.3221  0.0725
18920TIP3    H178251   0.500   2.763   2.405 -1.0856 -2.2998  1.6390
18920TIP3    H278252   0.356   2.756   2.450 -0.6119  1.1091  4.1225
18921TIP3   OH278253   4.609   1.060   3.947 -0.1875 -0.1840 -0.1845
18921TIP3    H178254   4.674   0.990   3.944  1.0719  0.9252  0.0015
18921TIP3    H278255   4.651   1.130   3.996 -2.0857  0.0746  1.1824
18922TIP3   OH278256   5.996   0.835  12.380 -0.3947  0.2486  0.6103
18922TIP3    H178257   5.916   0.783  12.378 -0.5349  0.3666  2.0946
18922TIP3    H278258   5.966   0.926  12.375 -0.3012  0.2667  0.3781
18923TIP3   OH278259   0.206   6.396   1.109  0.2436  0.3388 -0.1978
18923TIP3    H178260   0.180   6.488   1.109  1.9044  0.8552 -1.4435
18923TIP3    H278261   0.171   6.361   1.191  0.8892  2.4787  1.0691
18924TIP3   OH278262   6.571   0.569  12.177  0.9884  0.6214 -0.0523
18924TIP3    H178263   6.650   0.612  12.210  2.1362 -0.3661 -1.3489
18924TIP3    H278264   6.562   0.491  12.232  1.7699 -0.0022 -0.7731
18925TIP3   OH278265   5.037   0.927  13.623  0.1193  0.1284  0.1517
18925TIP3    H178266   5.069   0.991  13.686  0.1116  1.8841 -1.5253
18925TIP3    H278267   4.942   0.933  13.628  0.1176  0.1895  0.0492
18926TIP3   OH278268   5.883   5.348  14.150 -0.5076  0.8406 -0.4435
18926TIP3    H178269   5.808   5.367  14.207  0.3774  1.1310  0.6550
18926TIP3    H278270   5.959   5.380  14.199  0.2566  1.3700 -1.9291
18927TIP3   OH278271   4.396   2.565   2.553  0.0314  0.5627 -0.2061
18927TIP3    H178272   4.382   2.652   2.514  0.0992  0.7614  0.2007
18927TIP3    H278273   4.311   2.522   2.547  0.5189 -0.2084 -2.4668
18928TIP3   OH278274   1.718   1.374  16.882  0.1706 -0.2001  0.0340
18928TIP3    H178275   1.719   1.408  16.971 -0.7396  2.1906 -0.8044
18928TIP3    H278276   1.811   1.368  16.858  0.4121  2.0963  0.1423
18929TIP3   OH278277   1.506   1.823   1.187  0.3586  0.5278 -0.5854
18929TIP3    H178278   1.522   1.917   1.196  1.9169  0.2646 -0.1524
18929TIP3    H278279   1.458   1.814   1.105  0.4422  1.6805 -0.7772
18930TIP3   OH278280   4.939   6.632   0.650  0.1501 -0.2750  0.5487
18930TIP3    H178281   4.892   6.592   0.578  0.6860  2.0950 -1.2437
18930TIP3    H278282   4.879   6.700   0.683  1.6030  1.7498 -0.7673
18931TIP3   OH278283   3.995   0.137  12.356 -0.3169  0.0433 -0.0054
18931TIP3    H178284   4.041   0.089  12.425  1.3646 -0.1830 -1.2260
18931TIP3    H278285   3.923   0.080  12.331 -0.8805  0.0721  1.4403
18932TIP3   OH278286   1.814   0.846   5.047 -0.0060  0.0220 -0.8552
18932TIP3    H178287   1.899   0.853   5.003  1.3509  1.4182  1.7557
18932TIP3    H278288   1.816   0.759   5.087  0.6326  0.4134 -0.0117
18933TIP3   OH278289   3.325   2.666   3.477 -0.0340  0.2551  0.1153
18933TIP3    H178290   3.286   2.631   3.397  1.9386  0.1390 -0.8574
18933TIP3    H278291   3.415   2.633   3.476 -0.3622 -1.1082  3.2432
18934TIP3   OH278292   0.498   5.187   4.430 -0.4929  0.1118  0.5152
18934TIP3    H178293   0.558   5.168   4.358  1.0122  0.3824  1.6594
18934TIP3    H278294   0.480   5.280   4.423  1.3416  0.5998  1.6805
18935TIP3   OH278295   1.682   0.607  10.463 -0.2446  0.2277  0.1472
18935TIP3    H178296   1.714   0.517  10.467 -2.7070 -0.6972  1.7420
18935TIP3    H278297   1.713   0.640  10.379  1.4390 -1.8147 -0.1085
18936TIP3   OH278298   3.037   3.313   0.294  0.6011  0.3259  0.3849
18936TIP3    H178299   3.009   3.223   0.306  0.7312  0.0517 -1.2228
18936TIP3    H278300   3.133   3.310   0.303  0.6676  0.1830 -0.3796
18937TIP3   OH278301   4.951   1.108  15.324  0.1210  0.5831 -0.2424
18937TIP3    H178302   4.988   1.020  15.330  0.3609  0.6086 -1.1369
18937TIP3    H278303   4.864   1.096  15.286  0.0778  0.7081 -0.1840
18938TIP3   OH278304   3.244   3.706  11.856 -0.3148  0.0942  0.3348
18938TIP3    H178305   3.157   3.696  11.818 -0.8010  0.1781  1.4185
18938TIP3    H278306   3.298   3.645  11.805 -0.5316  1.4820 -1.7031
18939TIP3   OH278307   4.255   6.414   0.185 -1.0433 -0.3944  0.3321
18939TIP3    H178308   4.212   6.408   0.100  0.5090 -2.1904 -0.4076
18939TIP3    H278309   4.332   6.469   0.170 -2.2103  1.6230  1.3074
18940TIP3   OH278310   4.461   1.622   2.234  0.1042 -0.4866 -0.5884
18940TIP3    H178311   4.395   1.619   2.303  0.5898  0.9075 -0.0262
18940TIP3    H278312   4.418   1.582   2.158 -1.1777 -0.1589 -0.0579
18941TIP3   OH278313   0.908   1.685   2.568  0.0301 -0.1244  0.7637
18941TIP3    H178314   0.812   1.691   2.567  0.0994  1.3113  0.4988
18941TIP3    H278315   0.931   1.675   2.660 -0.2817  2.2769  1.1713
18942TIP3   OH278316   0.941   3.328   4.971  0.2565  0.1772 -0.1865
18942TIP3    H178317   1.005   3.261   4.998  0.9395  0.9804  0.2378
18942TIP3    H278318   0.924   3.377   5.052  0.3598  0.9994 -0.6607
18943TIP3   OH278319   4.280   0.297   4.787  0.1976  0.2698  0.1963
18943TIP3    H178320   4.262   0.237   4.715  0.6109  1.4369 -0.9260
18943TIP3    H278321   4.375   0.310   4.784  0.1335  0.8378  0.5269
18944TIP3   OH278322   5.031   3.664   0.011 -0.0532 -0.3279  0.1634
18944TIP3    H178323   5.068   3.590  -0.037 -0.3970  0.8337 -2.0513
18944TIP3    H278324   4.946   3.679  -0.030  0.2728  1.6450  0.0844
18945TIP3   OH278325   6.256   4.773   1.101  0.0060 -0.2048  0.2683
18945TIP3    H178326   6.281   4.815   1.183 -1.2497 -0.8728  1.0095
18945TIP3    H278327   6.228   4.846   1.045 -2.7397  0.0166  1.7487
18946TIP3   OH278328   5.405   3.896  15.080  0.0001  0.2441  0.6221
18946TIP3    H178329   5.388   3.884  14.987 -0.1701 -0.9569  0.7948
18946TIP3    H278330   5.330   3.947  15.112 -0.7780 -0.7457  0.4088
18947TIP3   OH278331   0.522   0.374   4.568 -0.0798  0.0495  0.6100
18947TIP3    H178332   0.496   0.446   4.512 -0.3328 -0.1548  0.4636
18947TIP3    H278333   0.448   0.313   4.565  0.3511 -0.4658  0.3059
18948TIP3   OH278334   0.013   3.448  13.364 -0.0150 -0.5830 -0.1736
18948TIP3    H178335  -0.074   3.474  13.396 -1.5965 -3.3125 -1.8876
18948TIP3    H278336  -0.005   3.397  13.286  3.2445 -0.6967 -0.9593
18949TIP3   OH278337   3.654   2.449   4.442  0.4936  0.1585 -0.4436
18949TIP3    H178338   3.659   2.493   4.527 -2.1585 -0.4723  0.1307
18949TIP3    H278339   3.690   2.512   4.380 -0.4948  1.9756  0.7395
18950TIP3   OH278340   5.318   2.082   0.652 -0.4596 -0.3329  0.1641
18950TIP3    H178341   5.399   2.072   0.603  0.5728  0.3843  1.6455
18950TIP3    H278342   5.256   2.119   0.589  1.2448  2.0040 -0.2862
18951TIP3   OH278343   1.253   4.333  15.755 -0.8888  0.7754 -0.3315
18951TIP3    H178344   1.227   4.337  15.663 -2.1164  2.8278  0.0386
18951TIP3    H278345   1.282   4.422  15.776  0.4449  0.0793  1.0002
18952TIP3   OH278346   5.014   2.158   0.486 -0.3540 -0.2890  0.1066
18952TIP3    H178347   4.986   2.122   0.571  0.6782 -0.9982  0.1671
18952TIP3    H278348   5.073   2.229   0.509 -2.3791  1.5466 -0.0143
18953TIP3   OH278349   0.983   1.131   1.638 -0.0255  0.7212  0.0680
18953TIP3    H178350   1.048   1.073   1.599 -1.3813 -0.2954 -0.7440
18953TIP3    H278351   0.990   1.114   1.732  0.3964  0.1022 -0.0666
18954TIP3   OH278352   5.655   4.001   4.424  0.3856  0.1349 -0.5587
18954TIP3    H178353   5.608   3.954   4.356 -0.1821 -0.5987  0.3140
18954TIP3    H278354   5.600   4.077   4.444  0.4935  0.2850 -0.8316
18955TIP3   OH278355   5.071   2.987   0.630  0.2401  0.1401  0.6275
18955TIP3    H178356   5.079   2.947   0.544 -1.4668 -0.5107  0.7282
18955TIP3    H278357   5.041   3.076   0.613  1.0253  0.3885  0.5189
18956TIP3   OH278358   0.175   2.128   5.713  0.4426 -0.4373 -0.2854
18956TIP3    H178359   0.147   2.126   5.805  2.6276 -0.3784  0.4396
18956TIP3    H278360   0.094   2.140   5.664 -0.7420  0.0146  1.6547
18957TIP3   OH278361   5.276   2.873   2.155 -0.2273 -0.2324  0.0138
18957TIP3    H178362   5.330   2.939   2.196  0.4060 -1.1210  0.6390
18957TIP3    H278363   5.199   2.921   2.124  0.3125  0.8199  0.2570
18958TIP3   OH278364   2.938   6.308   2.861 -0.3101 -0.0488 -0.0488
18958TIP3    H178365   2.972   6.332   2.948 -1.5861 -2.2151  1.1298
18958TIP3    H278366   2.849   6.342   2.860 -0.5694 -0.7266 -0.1835
18959TIP3   OH278367   0.622   2.486   2.812 -0.0810 -0.6894  0.5262
18959TIP3    H178368   0.602   2.395   2.791 -0.8765 -0.4536  0.2194
18959TIP3    H278369   0.699   2.481   2.869  1.7851 -1.3886 -1.8729
18960TIP3   OH278370   4.698   0.438   0.099  0.0199 -0.9789  0.5932
18960TIP3    H178371   4.668   0.524   0.070 -2.4355 -1.8042  0.3830
18960TIP3    H278372   4.782   0.454   0.142  0.3890  1.2636 -0.8282
18961TIP3   OH278373   5.283   5.074   4.044  0.0261 -0.1272 -0.4939
18961TIP3    H178374   5.206   5.026   4.015  0.7100 -1.7182  0.2205
18961TIP3    H278375   5.255   5.166   4.045 -1.8311 -0.6630 -0.2873
18962TIP3   OH278376   6.054   5.838   4.005  0.2963 -0.0978  0.6461
18962TIP3    H178377   6.073   5.771   3.940  1.0371 -0.0082  0.7637
18962TIP3    H278378   6.137   5.883   4.019 -0.1182  0.6446  0.7947
18963TIP3   OH278379   0.700   2.602   4.513 -0.1292 -0.1186 -0.8040
18963TIP3    H178380   0.627   2.615   4.574 -0.3547 -1.4702 -0.7585
18963TIP3    H278381   0.769   2.661   4.545 -0.7922  0.3172 -0.1589
18964TIP3   OH278382   1.079   1.679   2.356 -0.3215  0.0697 -0.6505
18964TIP3    H178383   1.120   1.596   2.380  1.7786  1.1549 -0.3124
18964TIP3    H278384   0.997   1.680   2.406 -1.3544 -2.5967 -2.0966
18965TIP3   OH278385   2.494   6.701  15.263 -0.6938  0.3786 -0.1605
18965TIP3    H178386   2.582   6.684  15.229 -0.6140 -0.7420  0.5469
18965TIP3    H278387   2.442   6.722  15.185 -0.1744 -0.6296 -0.8011
18966TIP3   OH278388   1.942   0.061  13.004 -0.0335  0.4161 -0.1413
18966TIP3    H178389   1.850   0.081  12.989  0.0042  0.1761 -0.7072
18966TIP3    H278390   1.948  -0.034  13.000  0.4596  0.4875 -1.4665
18967TIP3   OH278391   4.721   3.484   3.419  0.3601  0.3745 -0.3050
18967TIP3    H178392   4.781   3.461   3.490 -1.6748  0.2956  1.4716
18967TIP3    H278393   4.724   3.408   3.360 -0.3924 -1.0854  1.4510
18968TIP3   OH278394   0.662   6.156   5.246  0.3695 -0.2496 -0.3477
18968TIP3    H178395   0.620   6.236   5.276 -2.2973 -1.7171  0.2267
18968TIP3    H278396   0.679   6.170   5.153 -3.2296 -0.1108 -1.1253
18969TIP3   OH278397   1.000   0.151   3.845 -0.1523 -0.5519  0.3284
18969TIP3    H178398   1.026   0.178   3.934 -0.8962 -0.5941  0.5614
18969TIP3    H278399   0.956   0.067   3.857 -1.1127 -0.0993  0.0361
18970TIP3   OH278400   0.008   3.072   0.685 -0.0381  0.1488 -0.5225
18970TIP3    H178401   0.004   3.162   0.717 -1.2072  0.0244 -0.3015
18970TIP3    H278402  -0.045   3.073   0.605 -0.3578 -0.4361 -0.3144
18971TIP3   OH278403   2.039   5.127  14.992 -0.1291  0.3108 -0.4308
18971TIP3    H178404   2.131   5.151  15.006  0.8447 -2.5942 -1.1594
18971TIP3    H278405   2.025   5.050  15.048 -1.9416  0.2747 -0.8597
18972TIP3   OH278406   0.313   3.629   2.891  0.0554 -0.0926  0.2591
18972TIP3    H178407   0.277   3.579   2.964  0.9487  2.0076  2.2628
18972TIP3    H278408   0.256   3.706   2.884  0.7848  0.4173 -0.2884
18973TIP3   OH278409   6.710   3.221   2.830 -0.2495 -0.7590 -0.0646
18973TIP3    H178410   6.806   3.220   2.830 -0.1357  1.8802  0.8537
18973TIP3    H278411   6.685   3.130   2.848  2.1032 -1.2689  1.0706
18974TIP3   OH278412   5.601   6.722   4.656  0.1323 -0.0558 -0.3827
18974TIP3    H178413   5.656   6.671   4.715 -0.2436  0.7045  0.6588
18974TIP3    H278414   5.574   6.660   4.588  0.1962 -1.0762  0.4949
18975TIP3   OH278415   5.833   4.500   3.295  0.5074 -0.1552  0.8156
18975TIP3    H178416   5.761   4.562   3.280 -0.6170 -1.4737  0.6133
18975TIP3    H278417   5.790   4.418   3.317  1.9080 -1.3345 -0.6191
18976TIP3   OH278418   2.657   1.588   4.967  0.6621 -0.1162 -0.2112
18976TIP3    H178419   2.639   1.499   4.936 -0.0210  0.1803 -0.6889
18976TIP3    H278420   2.579   1.638   4.945  1.8834  1.1315 -1.9986
18977TIP3   OH278421   2.781   5.759  15.771 -0.0147 -0.0865 -0.1151
18977TIP3    H178422   2.854   5.776  15.712  1.1616 -0.6353  1.1196
18977TIP3    H278423   2.706   5.745  15.714  0.7951  0.7117 -1.4145
18978TIP3   OH278424   4.155   4.351   3.893 -0.1832 -0.2289 -0.0725
18978TIP3    H178425   4.239   4.341   3.849 -0.6585 -1.4213 -0.7695
18978TIP3    H278426   4.134   4.444   3.884  1.1522  0.1288  0.3240
18979TIP3   OH278427   6.235   2.480  10.427 -0.1595  0.0322 -0.3329
18979TIP3    H178428   6.234   2.481  10.331 -0.4784 -0.0240 -0.3295
18979TIP3    H278429   6.297   2.410  10.449 -0.4602 -0.2877 -0.4966
18980TIP3   OH278430   6.706   0.436  16.052  0.0986 -0.0642 -0.0343
18980TIP3    H178431   6.708   0.450  15.957 -1.5550  0.4089 -0.0381
18980TIP3    H278432   6.688   0.523  16.088  0.1188 -0.3424  0.6613
18981TIP3   OH278433   4.448   6.139  10.311  0.6676  0.1525  0.6072
18981TIP3    H178434   4.477   6.136  10.220 -0.4340  3.9667 -0.0520
18981TIP3    H278435   4.357   6.108  10.309  0.3747  1.0073  0.2118
18982TIP3   OH278436   2.819   6.830  14.218 -0.1703  0.5326  0.0983
18982TIP3    H178437   2.816   6.916  14.260  0.9791  0.4834  0.3275
18982TIP3    H278438   2.780   6.844  14.132 -0.4492  1.1711  0.3230
18983TIP3   OH278439   4.263   0.399   5.611  0.3379 -0.2521  0.6168
18983TIP3    H178440   4.271   0.370   5.702 -2.8779 -0.5400  0.9060
18983TIP3    H278441   4.208   0.478   5.616  1.6916  0.8539 -0.9634
18984TIP3   OH278442   3.422   1.980   3.766  0.4437  0.3058  0.4292
18984TIP3    H178443   3.368   2.030   3.826  2.1836  0.7303  1.7283
18984TIP3    H278444   3.457   2.045   3.705 -0.9027 -0.0496 -0.7729
18985TIP3   OH278445   3.023   6.849  15.617 -0.5132  0.0527 -0.1274
18985TIP3    H178446   3.070   6.769  15.592 -0.2989  0.3928 -0.8341
18985TIP3    H278447   2.990   6.830  15.705 -0.4856 -0.8257 -0.2895
18986TIP3   OH278448   2.290   0.670  11.660  1.2057  0.3398 -0.2945
18986TIP3    H178449   2.287   0.606  11.731 -0.8156  0.2195 -0.4356
18986TIP3    H278450   2.287   0.618  11.581  2.8921  0.5040 -0.5086
18987TIP3   OH278451   2.059   6.022  12.074 -0.4865 -0.9804 -0.0698
18987TIP3    H178452   2.141   6.000  12.118 -0.6488 -0.8620  0.2989
18987TIP3    H278453   2.083   6.090  12.011 -0.1489 -1.5625 -0.5738
18988TIP3   OH278454   1.448   5.198   2.458 -0.8970 -0.7158 -0.0128
18988TIP3    H178455   1.400   5.204   2.541 -0.7883 -0.1292  0.0152
18988TIP3    H278456   1.527   5.149   2.480  1.1599  2.7641  1.2489
18989TIP3   OH278457   1.877   5.965  14.016  0.3642  0.3306 -1.1875
18989TIP3    H178458   1.907   5.939  14.103 -1.2065  1.2818 -0.3102
18989TIP3    H278459   1.799   5.912  14.000  0.8519 -0.1105 -2.2012
18990TIP3   OH278460   1.333   4.689   3.907  0.0883  0.0135  0.1020
18990TIP3    H178461   1.372   4.732   3.831 -0.2257 -2.0506 -1.2835
18990TIP3    H278462   1.387   4.719   3.981  4.2286 -2.3848 -1.6239
18991TIP3   OH278463   0.329   1.050  11.641  0.2175  0.0201  0.2243
18991TIP3    H178464   0.397   1.106  11.678  2.1299 -1.3769 -1.0407
18991TIP3    H278465   0.341   1.058  11.546 -0.4081 -1.4153  0.0062
18992TIP3   OH278466   0.242   4.061   1.577 -0.8210  0.0965 -0.0693
18992TIP3    H178467   0.190   4.127   1.621  1.0522  2.6629 -1.3918
18992TIP3    H278468   0.200   4.050   1.491 -2.0042 -1.6745  0.6838
18993TIP3   OH278469   2.089   1.784  14.437  0.0561  0.3141 -0.4199
18993TIP3    H178470   2.074   1.867  14.482 -0.8591  0.2858 -0.6339
18993TIP3    H278471   2.180   1.787  14.410  0.3733  0.7070  0.6548
18994TIP3   OH278472   2.917   2.871  13.411 -0.0007 -0.3841 -0.0599
18994TIP3    H178473   2.842   2.929  13.400 -1.0402 -1.7308 -0.4997
18994TIP3    H278474   2.913   2.813  13.334  0.6828 -1.3410  0.6040
18995TIP3   OH278475   2.538   1.903  14.493 -0.4998  0.1189  0.2428
18995TIP3    H178476   2.536   1.979  14.551  1.2990  0.5314 -0.1463
18995TIP3    H278477   2.515   1.938  14.407 -1.4052 -0.1384  0.3741
18996TIP3   OH278478   3.873   0.197   5.265  0.6740 -0.1597 -0.3009
18996TIP3    H178479   3.840   0.115   5.303 -0.4684  0.9033  1.0879
18996TIP3    H278480   3.826   0.266   5.311  2.0945  1.3276 -0.9776
18997TIP3   OH278481   2.062   5.966  13.817 -0.1194 -0.1579 -0.4406
18997TIP3    H178482   2.083   5.875  13.796 -1.3840 -0.5088 -0.2394
18997TIP3    H278483   1.988   5.961  13.877  0.3919  0.9872  0.3177
18998TIP3   OH278484   5.194   0.297   3.900  0.2716  0.1244 -0.3482
18998TIP3    H178485   5.166   0.388   3.901  0.2587  0.1724 -1.8862
18998TIP3    H278486   5.113   0.246   3.899  0.2304  0.1777 -1.5971
18999TIP3   OH278487   5.002   6.515  11.366  0.4235  0.2333  0.1649
18999TIP3    H178488   5.028   6.544  11.279 -2.2138  0.2615 -0.6938
18999TIP3    H278489   4.911   6.543  11.375  0.9684  1.3826  3.4780
19000TIP3   OH278490   4.438   5.468  15.581  0.5728 -0.1954  0.0165
19000TIP3    H178491   4.390   5.508  15.653  1.9052  2.1240 -0.2989
19000TIP3    H278492   4.524   5.510  15.582  1.7383 -2.3634 -1.0096
19001TIP3   OH278493   2.671   4.865  14.851 -0.4306  0.4366 -0.6385
19001TIP3    H178494   2.707   4.840  14.937  0.2243  0.5629 -0.8668
19001TIP3    H278495   2.624   4.947  14.868  1.1568  1.4039 -0.7039
19002TIP3   OH278496   5.077   1.527  16.490 -0.2686 -0.3410  0.2241
19002TIP3    H178497   5.029   1.509  16.571 -0.7428  0.8940  0.2282
19002TIP3    H278498   5.096   1.620  16.493  1.4523 -0.6566 -0.1725
19003TIP3   OH278499   5.515   6.344  16.022  0.7709  0.4307 -0.0173
19003TIP3    H178500   5.583   6.358  16.088  0.1743  3.5073  0.0782
19003TIP3    H278501   5.446   6.406  16.045 -1.7495 -1.9358 -0.6462
19004TIP3   OH278502   5.970   1.467  14.016  0.1932 -0.1521  0.3669
19004TIP3    H178503   5.902   1.486  13.951  0.5856 -0.4775 -0.1448
19004TIP3    H278504   5.922   1.430  14.090 -0.0671 -1.6866 -0.5263
19005TIP3   OH278505   4.031   2.141  10.308  0.0619  0.1670 -0.0707
19005TIP3    H178506   3.951   2.165  10.354 -1.1325  0.6760 -2.2637
19005TIP3    H278507   4.024   2.047  10.296 -1.2108  0.4447 -1.8977
19006TIP3   OH278508   2.603   4.378   3.640 -0.0563  0.2066 -0.1302
19006TIP3    H178509   2.656   4.304   3.613 -0.8754  0.6038 -3.2948
19006TIP3    H278510   2.665   4.450   3.652  0.7020 -0.7918  2.6478
19007TIP3   OH278511   5.066   4.440  11.168 -0.4688  0.8815  0.0883
19007TIP3    H178512   5.060   4.431  11.073 -1.5916  1.5369  0.0829
19007TIP3    H278513   4.976   4.452  11.197 -0.3141 -0.7489  1.4105
19008TIP3   OH278514   5.449   1.591  15.574 -0.2383  0.1930 -0.1335
19008TIP3    H178515   5.376   1.652  15.563  0.6890  1.1004 -1.4599
19008TIP3    H278516   5.507   1.609  15.500 -0.1501 -2.6389 -0.8519
19009TIP3   OH278517   3.617   5.814   6.157  0.3405 -0.1335 -0.0756
19009TIP3    H178518   3.591   5.867   6.081  1.4333 -0.0922 -0.4307
19009TIP3    H278519   3.697   5.854   6.188  1.2545 -1.6238 -0.4089
19010TIP3   OH278520   5.345   1.118  16.586 -0.4883  0.2754 -0.6162
19010TIP3    H178521   5.253   1.141  16.581 -0.7882 -0.3260  1.2803
19010TIP3    H278522   5.348   1.024  16.568 -0.4175  0.0629  0.4198
19011TIP3   OH278523   0.084   5.582  12.217  0.3408 -0.0763  0.0215
19011TIP3    H178524   0.168   5.585  12.263  0.7988 -0.3964 -0.7688
19011TIP3    H278525   0.065   5.488  12.208 -0.7503 -0.0013  1.3298
19012TIP3   OH278526   0.630   0.967  11.508  0.1910  0.1850  0.4062
19012TIP3    H178527   0.637   1.008  11.594 -1.6151  1.1944  0.1311
19012TIP3    H278528   0.689   0.892  11.512  2.8414  2.1782  1.2844
19013TIP3   OH278529   2.665   0.138  16.331  0.1437  0.4748 -0.4282
19013TIP3    H178530   2.589   0.193  16.309  0.4758 -0.0402 -3.2221
19013TIP3    H278531   2.679   0.154  16.424 -2.6400  1.5112 -0.0704
19014TIP3   OH278532   5.554   4.646   5.367  0.1913  0.0640  0.2785
19014TIP3    H178533   5.467   4.625   5.334  0.1121  1.1050 -0.2007
19014TIP3    H278534   5.606   4.567   5.349 -0.7525 -0.7343  0.9834
19015TIP3   OH278535   1.327   0.802  14.264 -0.0521  0.3931  0.2960
19015TIP3    H178536   1.244   0.754  14.268  0.2867 -0.0712  2.6205
19015TIP3    H278537   1.303   0.893  14.281 -0.4213  0.8374 -2.1341
19016TIP3   OH278538   2.946   4.214   3.709 -0.5367 -0.1162 -0.2737
19016TIP3    H178539   3.017   4.267   3.672  0.9131 -1.8083 -0.0398
19016TIP3    H278540   2.888   4.197   3.635 -0.5403  1.0288 -0.5493
19017TIP3   OH278541   5.960   4.410  11.945  0.9289  0.3236 -0.5393
19017TIP3    H178542   5.903   4.452  12.010  3.2378  0.4656  1.5347
19017TIP3    H278543   5.904   4.400  11.868 -2.0545 -0.0587  1.4871
19018TIP3   OH278544   1.257   2.260  15.749  0.7801 -0.1913  0.0066
19018TIP3    H178545   1.265   2.175  15.706  0.9561  0.2603 -0.8782
19018TIP3    H278546   1.166   2.265  15.776  0.2178  0.1860 -1.8147
19019TIP3   OH278547   6.504   6.199  13.091 -0.7258 -0.1376 -0.6272
19019TIP3    H178548   6.445   6.273  13.103 -1.7031 -0.9352 -0.3755
19019TIP3    H278549   6.545   6.214  13.006 -1.7998  0.1034 -1.1270
19020TIP3   OH278550   5.374   6.390  12.618 -0.9230 -0.0131  0.1101
19020TIP3    H178551   5.351   6.477  12.652 -0.2190  0.3041 -0.2014
19020TIP3    H278552   5.338   6.329  12.683  0.5231  0.5712  1.5407
19021TIP3   OH278553   2.126   0.650  14.603 -0.3913 -0.6531 -0.6395
19021TIP3    H178554   2.217   0.631  14.581 -0.0254  1.0805 -0.7255
19021TIP3    H278555   2.121   0.635  14.698  0.1393 -0.1578 -0.5316
19022TIP3   OH278556   0.036   2.803  16.610 -0.0818  0.4906 -0.3598
19022TIP3    H178557   0.086   2.884  16.620  0.9034  0.0166 -1.2369
19022TIP3    H278558  -0.035   2.811  16.673  0.6393  1.5492  0.3548
19023TIP3   OH278559   4.899   3.253   4.392  0.0023 -0.0135  0.1372
19023TIP3    H178560   4.860   3.166   4.387  0.1600 -0.2101  1.8419
19023TIP3    H278561   4.835   3.310   4.349 -1.8487 -0.4453  2.1559
19024TIP3   OH278562   3.084   5.335  14.366 -0.0755 -0.2337  0.1997
19024TIP3    H178563   3.051   5.248  14.347 -1.5401  0.6295 -1.5549
19024TIP3    H278564   3.150   5.352  14.299 -0.6956  0.4434 -0.2643
19025TIP3   OH278565   5.775   0.364  14.879 -0.5673 -0.1614  0.3313
19025TIP3    H178566   5.850   0.314  14.911  0.0476  0.2407 -0.4445
19025TIP3    H278567   5.726   0.303  14.824  0.3066  0.1364 -0.7999
19026TIP3   OH278568   1.968   0.153   5.515  0.0008  0.0651 -0.0049
19026TIP3    H178569   1.984   0.167   5.421  1.3777 -1.5125 -0.0324
19026TIP3    H278570   2.039   0.096   5.544 -1.6431 -1.3298  1.5153
19027TIP3   OH278571   0.432   0.313   0.476  0.6049  0.4587  0.9342
19027TIP3    H178572   0.451   0.225   0.444 -2.4579 -0.3496  1.0205
19027TIP3    H278573   0.503   0.367   0.441  1.3140 -1.6230 -1.1340
19028TIP3   OH278574   6.100   0.602  14.140 -0.4639  0.3371 -0.9671
19028TIP3    H178575   6.059   0.517  14.154 -0.1640  0.4162  0.5756
19028TIP3    H278576   6.048   0.643  14.071 -1.3131 -0.6360 -0.9236
19029TIP3   OH278577   4.207   5.903  10.204 -0.4711 -0.8868  0.6811
19029TIP3    H178578   4.177   5.976  10.258  0.4436 -0.2215  0.3087
19029TIP3    H278579   4.127   5.866  10.167 -0.8563  0.9985 -0.4980
19030TIP3   OH278580   1.624   1.444  16.043 -0.4641  0.2501  0.4441
19030TIP3    H178581   1.581   1.447  15.958  0.1219 -0.9636  0.0711
19030TIP3    H278582   1.612   1.531  16.080 -1.2223  0.6208 -0.6327
19031TIP3   OH278583   0.707   1.100  16.069 -0.0544 -0.3502  0.0938
19031TIP3    H178584   0.771   1.091  16.140  0.4477 -0.4546 -0.3719
19031TIP3    H278585   0.756   1.141  15.998 -0.3964 -0.8081 -0.4086
19032TIP3   OH278586   4.805   0.717  11.770 -0.4160 -0.0591 -1.2109
19032TIP3    H178587   4.738   0.656  11.801 -0.1534  0.4535  0.4844
19032TIP3    H278588   4.760   0.802  11.765  0.0725  0.2948 -0.0262
19033TIP3   OH278589   1.841   3.082  13.304  0.0795  0.2789  0.2359
19033TIP3    H178590   1.864   3.126  13.222  1.6186 -1.3290 -0.2778
19033TIP3    H278591   1.792   3.005  13.277  0.1612 -0.0002  0.8520
19034TIP3   OH278592   4.634   0.236   0.822 -0.0559  0.3303 -0.1116
19034TIP3    H178593   4.670   0.275   0.742 -1.5437  0.8703 -0.5420
19034TIP3    H278594   4.578   0.304   0.859  0.6559  0.1078  1.4420
19035TIP3   OH278595   1.404   2.417  12.361 -0.9343 -0.0624  0.0674
19035TIP3    H178596   1.443   2.498  12.393  2.5594 -1.1254 -1.1041
19035TIP3    H278597   1.428   2.351  12.425 -0.8516 -0.7587 -0.6576
19036TIP3   OH278598   6.109   1.487   2.060 -0.5678 -0.1562 -0.1750
19036TIP3    H178599   6.064   1.492   1.976 -1.5165 -0.3877  0.3028
19036TIP3    H278600   6.066   1.553   2.114  0.4659  0.4431 -0.0508
19037TIP3   OH278601   2.381   2.364  11.843 -0.6970  0.4375 -0.1074
19037TIP3    H178602   2.386   2.361  11.748 -0.3125  2.8251 -0.2210
19037TIP3    H278603   2.289   2.380  11.863 -0.5771  1.2747 -0.1739
19038TIP3   OH278604   5.002   1.848   5.351 -0.2755  0.4649 -0.1803
19038TIP3    H178605   4.999   1.755   5.374  0.0682  0.6420  0.5892
19038TIP3    H278606   4.944   1.855   5.275  0.3104 -0.5263 -0.7545
19039TIP3   OH278607   3.118   2.782   0.569  0.1574  0.2242  0.1989
19039TIP3    H178608   3.094   2.769   0.661 -2.0412  0.9704 -0.2066
19039TIP3    H278609   3.038   2.816   0.528  1.9246  2.8305 -1.3645
19040TIP3   OH278610   3.108   3.076   1.376 -0.6911  0.2634  0.4059
19040TIP3    H178611   3.068   3.099   1.292  0.8374 -1.0745 -0.7395
19040TIP3    H278612   3.055   3.122   1.441 -1.0351  2.5289 -1.3650
19041TIP3   OH278613   6.538   6.181   6.367  0.4057  0.1062  0.1830
19041TIP3    H178614   6.585   6.142   6.440  1.8614 -0.0109 -0.7801
19041TIP3    H278615   6.502   6.263   6.402  0.0801 -0.5148  1.3287
19042TIP3   OH278616   6.754   3.688  11.247  0.4772  0.6323  0.5103
19042TIP3    H178617   6.843   3.714  11.271 -0.2517  2.2784  1.6372
19042TIP3    H278618   6.738   3.609  11.298  0.7850  1.1816  1.4934
19043TIP3   OH278619   1.500   0.725  15.764 -0.3132 -0.5706  0.0207
19043TIP3    H178620   1.443   0.659  15.803 -0.1272 -0.8328 -0.1549
19043TIP3    H278621   1.585   0.682  15.755  0.3544  0.2685  1.6973
19044TIP3   OH278622   1.624   6.698  13.420  0.6299  0.3190  0.1780
19044TIP3    H178623   1.659   6.614  13.447  0.0893 -0.0194 -0.1486
19044TIP3    H278624   1.610   6.746  13.502 -0.7367 -0.5935  0.5251
19045TIP3   OH278625   4.677   6.620  12.872  0.3008  0.3681  0.0914
19045TIP3    H178626   4.696   6.613  12.778  1.4384 -1.5137  0.4039
19045TIP3    H278627   4.582   6.608  12.877  0.1757  0.8444 -0.8383
19046TIP3   OH278628   2.669   0.991  14.122  0.3695 -0.0291 -0.4114
19046TIP3    H178629   2.678   1.057  14.191 -0.5025 -0.2985 -0.0179
19046TIP3    H278630   2.747   1.002  14.068 -0.4232  2.2816 -1.2075
19047TIP3   OH278631   6.412   5.181   4.527 -0.5355  0.2184 -0.1890
19047TIP3    H178632   6.412   5.112   4.593 -0.5272  1.1072  0.7670
19047TIP3    H278633   6.479   5.242   4.556 -0.6002  0.6767 -0.9694
19048TIP3   OH278634   6.029   2.692  13.989  0.4683  0.3266 -0.0230
19048TIP3    H178635   5.955   2.710  14.048  0.5718  0.5497  0.0385
19048TIP3    H278636   6.094   2.650  14.045  0.7072  0.8572  0.1023
19049TIP3   OH278637   3.231   5.839  17.010  0.5667  0.6026  0.9415
19049TIP3    H178638   3.172   5.883  16.949  0.6206  0.2141  0.5996
19049TIP3    H278639   3.269   5.909  17.063 -0.0766  0.8642  1.0541
19050TIP3   OH278640   3.438   4.898   4.509 -0.0742  0.1514  0.5845
19050TIP3    H178641   3.501   4.827   4.498  0.2086  0.3144  1.1170
19050TIP3    H278642   3.470   4.947   4.585 -1.4798 -0.4390  1.6082
19051TIP3   OH278643   1.980   4.272  10.913 -1.0161  0.5587 -0.3379
19051TIP3    H178644   1.977   4.344  10.849  0.2001 -1.0895 -2.3941
19051TIP3    H278645   1.953   4.195  10.863  2.2911 -1.2612  0.4108
19052TIP3   OH278646   4.649   3.361  11.271 -0.5120 -0.4478  0.0963
19052TIP3    H178647   4.633   3.323  11.357 -1.9820  0.7008  0.3742
19052TIP3    H278648   4.613   3.297  11.210 -1.3202 -0.3531  0.4574
19053TIP3   OH278649   6.213   4.371  14.748  0.1698  0.0956  0.0582
19053TIP3    H178650   6.249   4.459  14.759  1.6710 -0.3851 -0.7195
19053TIP3    H278651   6.195   4.364  14.654  1.9574 -1.0848 -0.2377
19054TIP3   OH278652   3.511   0.510  14.774  0.0432 -0.5042 -0.1096
19054TIP3    H178653   3.489   0.460  14.696  0.1288  0.8046 -0.9907
19054TIP3    H278654   3.606   0.505  14.781  0.3874  1.8586 -1.8699
19055TIP3   OH278655   4.905   5.113  11.526 -0.0604 -0.1829  0.0481
19055TIP3    H178656   4.898   5.181  11.459 -0.3367 -0.2733 -0.0166
19055TIP3    H278657   4.989   5.071  11.508 -0.5812 -0.8708 -0.8801
19056TIP3   OH278658   3.490   2.887   5.798 -0.0540 -0.1793  0.2369
19056TIP3    H178659   3.492   2.948   5.725 -0.3148  0.8186  1.0379
19056TIP3    H278660   3.407   2.841   5.789 -1.0156  1.3236  0.9671
19057TIP3   OH278661   2.560   6.418   2.334  0.1205  0.1725  0.3275
19057TIP3    H178662   2.588   6.509   2.345 -0.9615  0.7323 -1.2102
19057TIP3    H278663   2.465   6.421   2.340  0.1162 -1.0762  1.4405
19058TIP3   OH278664   3.349   1.417  16.415  0.3730  0.0201 -0.1789
19058TIP3    H178665   3.315   1.501  16.383 -1.0102 -0.5769 -0.3550
19058TIP3    H278666   3.296   1.397  16.492  0.8021 -0.6211 -0.0402
19059TIP3   OH278667   4.061   0.855  12.505 -0.2669 -0.2856  0.7046
19059TIP3    H178668   4.035   0.884  12.592  1.8150  0.9461  0.9972
19059TIP3    H278669   4.056   0.934  12.451  0.5842 -0.5112  0.2737
19060TIP3   OH278670   3.034   2.136  14.069 -0.4060  0.5493  0.3276
19060TIP3    H178671   3.081   2.188  14.135 -0.3340 -0.7402  1.3256
19060TIP3    H278672   2.947   2.125  14.107 -0.1248 -0.8737  0.6009
19061TIP3   OH278673   4.726   4.404   3.865 -0.3644 -0.0043  0.4961
19061TIP3    H178674   4.784   4.338   3.904  1.4886  0.4334 -1.3244
19061TIP3    H278675   4.775   4.436   3.788 -3.3300 -0.0975 -1.5859
19062TIP3   OH278676   2.547   0.626   0.565  0.1483  0.0587  0.0644
19062TIP3    H178677   2.497   0.707   0.574 -0.2098 -0.1447 -0.0801
19062TIP3    H278678   2.636   0.649   0.592  0.3058  0.7789 -1.0301
19063TIP3   OH278679   5.514   5.914   0.109  0.6598 -0.0973  0.0631
19063TIP3    H178680   5.588   5.973   0.099 -1.3211  2.3350 -1.3542
19063TIP3    H278681   5.464   5.950   0.182 -0.2991 -0.3181 -0.4690
19064TIP3   OH278682   4.848   2.711   2.701  0.3982 -0.4461  0.7714
19064TIP3    H178683   4.815   2.622   2.690  0.5914 -0.4127 -0.0919
19064TIP3    H278684   4.803   2.743   2.780  1.5483 -1.8530  2.0581
19065TIP3   OH278685   4.719   6.569  14.436  0.2416 -0.1145  0.3101
19065TIP3    H178686   4.794   6.532  14.482  0.7704  1.9231  1.1949
19065TIP3    H278687   4.647   6.565  14.499 -0.7283 -2.8728 -0.8265
19066TIP3   OH278688   5.266   6.550  17.061 -0.1458 -0.3354  1.0065
19066TIP3    H178689   5.296   6.508  16.980  0.4541 -1.2211  1.6669
19066TIP3    H278690   5.331   6.524  17.126  0.0039  1.2647  1.5513
19067TIP3   OH278691   6.175   3.799   2.272  0.2464  0.0445 -0.1094
19067TIP3    H178692   6.104   3.735   2.266  0.2442 -0.0244  0.5589
19067TIP3    H278693   6.165   3.854   2.194  0.7967 -1.3202 -1.1986
19068TIP3   OH278694   3.613   6.294   5.050  0.5238 -0.1782 -0.1688
19068TIP3    H178695   3.623   6.219   5.109 -0.4668  0.9962  1.5581
19068TIP3    H278696   3.523   6.289   5.019  0.4804  0.2679 -0.1144
19069TIP3   OH278697   4.592   1.244  15.622 -0.5449  0.4267  0.5443
19069TIP3    H178698   4.669   1.296  15.602  1.1915 -2.0639  0.2323
19069TIP3    H278699   4.526   1.273  15.559  1.2257  0.4136 -1.4209
19070TIP3   OH278700   5.913   1.302  14.830 -0.5059 -0.3818 -0.2492
19070TIP3    H178701   5.829   1.323  14.790 -1.2505 -0.7671  1.0725
19070TIP3    H278702   5.920   1.207  14.823  0.4973 -0.2414 -1.6125
19071TIP3   OH278703   4.020   0.533  12.326  0.1874  0.5353 -0.9505
19071TIP3    H178704   4.074   0.456  12.312 -0.2728  0.4692 -2.5548
19071TIP3    H278705   4.082   0.605  12.338  0.6513  0.3773 -2.2727
19072TIP3   OH278706   1.741   6.305  14.454 -0.6036 -0.1223  0.1603
19072TIP3    H178707   1.791   6.228  14.482  0.8015 -0.2186 -2.2840
19072TIP3    H278708   1.808   6.365  14.419 -1.6741  2.2082  1.9035
19073TIP3   OH278709   6.192   2.831  16.032  0.0775  0.0379 -0.4767
19073TIP3    H178710   6.263   2.895  16.033  0.6853 -0.6167  0.6888
19073TIP3    H278711   6.125   2.870  15.977  0.9693  1.0831 -0.8597
19074TIP3   OH278712   2.555   6.075  13.282  0.0865  0.0817  0.8316
19074TIP3    H178713   2.580   6.136  13.212  0.2443  0.7444  1.4591
19074TIP3    H278714   2.534   5.994  13.236  0.9216  0.2775  0.0658
19075TIP3   OH278715   6.750   1.077  17.099 -0.0779 -0.1929 -0.1001
19075TIP3    H178716   6.800   1.010  17.146 -0.8471 -0.8509 -0.1951
19075TIP3    H278717   6.809   1.108  17.031  1.3684  1.3746  1.7582
19076TIP3   OH278718   6.339   6.594   2.358  0.2317 -0.3116  0.3620
19076TIP3    H178719   6.426   6.630   2.338  0.1679  0.2080  0.9948
19076TIP3    H278720   6.288   6.609   2.279  0.7639 -0.7683 -0.0763
19077TIP3   OH278721   6.740   2.010   5.681  0.0893 -0.1177  0.5770
19077TIP3    H178722   6.805   1.943   5.704  0.3060  0.0994  0.5997
19077TIP3    H278723   6.675   1.963   5.628  1.5726  0.1787 -1.6319
19078TIP3   OH278724   3.601   0.464   0.893  0.0723 -0.0948  0.0162
19078TIP3    H178725   3.538   0.526   0.930  0.7650 -0.2091  1.4816
19078TIP3    H278726   3.562   0.378   0.908 -0.4877 -0.0665 -1.2207
19079TIP3   OH278727   1.303   5.331   0.693  0.3791 -0.1088  0.6687
19079TIP3    H178728   1.216   5.317   0.653  1.2096 -2.0348 -0.6294
19079TIP3    H278729   1.364   5.290   0.631  2.3770  2.2122  0.9662
19080TIP3   OH278730   5.677   6.143  11.750 -0.1071  0.2655  0.1371
19080TIP3    H178731   5.761   6.155  11.706  0.2163  0.3219  0.7611
19080TIP3    H278732   5.700   6.124  11.841 -0.7264 -1.1380  0.0280
19081TIP3   OH278733   0.319   5.096   0.816 -0.2114 -0.0079  0.3796
19081TIP3    H178734   0.407   5.067   0.794 -0.2706 -0.9266  1.2684
19081TIP3    H278735   0.332   5.167   0.879 -0.0979  0.4460 -0.1512
19082TIP3   OH278736   4.804   4.964   3.108 -0.3556  0.2343 -0.0349
19082TIP3    H178737   4.773   4.953   3.198 -0.3192  2.0286  0.2372
19082TIP3    H278738   4.888   5.008   3.117  0.1777 -0.5669 -0.9314
19083TIP3   OH278739   5.226   4.871   0.264  0.1403 -0.5310 -0.1680
19083TIP3    H178740   5.134   4.855   0.246 -0.4140  0.3209  1.6286
19083TIP3    H278741   5.258   4.917   0.186 -1.2280  0.0903 -0.3960
19084TIP3   OH278742   6.818   0.774  15.544  0.6267  0.2641 -0.3671
19084TIP3    H178743   6.730   0.764  15.579  0.6771  0.1831 -0.2622
19084TIP3    H278744   6.810   0.843  15.477  0.4969  0.2969 -0.3174
19085TIP3   OH278745   2.563   1.085  16.650 -0.2272 -0.1012  0.1034
19085TIP3    H178746   2.598   1.008  16.695 -1.4190  0.0679  1.3990
19085TIP3    H278747   2.501   1.123  16.713 -0.9613  0.9206 -1.1884
19086TIP3   OH278748   6.245   1.507   2.520  0.4789  0.8152  0.5434
19086TIP3    H178749   6.187   1.578   2.490 -0.5179 -0.2046 -0.0109
19086TIP3    H278750   6.190   1.454   2.577  1.0689  0.1949  0.5455
19087TIP3   OH278751   6.031   6.750   0.775 -0.0264  0.7426 -0.3533
19087TIP3    H178752   5.994   6.819   0.829 -3.2161 -0.1465 -1.1699
19087TIP3    H278753   6.001   6.668   0.815  2.1742 -0.1611 -0.4020
19088TIP3   OH278754   3.381   5.410   0.651 -0.2929  0.4530  0.5523
19088TIP3    H178755   3.302   5.376   0.693 -0.4117 -1.0847 -0.8340
19088TIP3    H278756   3.391   5.498   0.688 -1.9083  0.2024  1.7179
19089TIP3   OH278757   1.652   4.908   4.458 -0.2404  0.6080  0.4920
19089TIP3    H178758   1.683   4.818   4.449  0.1788  0.7045  0.9381
19089TIP3    H278759   1.674   4.932   4.548 -0.9858  0.9171  0.6014
19090TIP3   OH278760   5.956   4.660  15.746  0.1827  0.7062 -0.3021
19090TIP3    H178761   5.946   4.565  15.734  0.7018  0.5556  0.3544
19090TIP3    H278762   6.000   4.689  15.666  2.5121 -0.0771  0.6026
19091TIP3   OH278763   4.187   4.420   3.566 -0.0465 -0.1396  0.3959
19091TIP3    H178764   4.204   4.416   3.472 -0.0837  0.6403  0.3430
19091TIP3    H278765   4.108   4.367   3.579 -0.1137 -0.1503 -0.0303
19092TIP3   OH278766   3.876   5.336   2.773 -0.1330 -0.0287 -0.0948
19092TIP3    H178767   3.814   5.354   2.843 -0.9786 -1.9740 -0.2843
19092TIP3    H278768   3.834   5.369   2.694 -0.1297  0.2488  0.0193
19093TIP3   OH278769   6.529   0.185   0.239  0.1594 -0.8133 -0.0605
19093TIP3    H178770   6.461   0.250   0.222 -2.2748 -3.1262  0.0829
19093TIP3    H278771   6.498   0.138   0.317  2.7566 -1.0203  0.9530
19094TIP3   OH278772   6.772   1.880  15.149 -0.1582 -0.3706  0.2547
19094TIP3    H178773   6.810   1.864  15.235 -0.7040  0.4648  0.6635
19094TIP3    H278774   6.794   1.802  15.098  0.9907 -0.4542  0.8548
19095TIP3   OH278775   0.245   0.785   3.985 -0.4778  0.3943 -0.5162
19095TIP3    H178776   0.298   0.807   4.062 -0.9729  1.5995 -0.4925
19095TIP3    H278777   0.306   0.740   3.927  0.8479  2.4020 -0.8171
19096TIP3   OH278778   5.636   3.957  14.796 -0.2202 -0.3115  0.2401
19096TIP3    H178779   5.712   3.900  14.808 -1.5257 -2.1743  0.1674
19096TIP3    H278780   5.616   3.951  14.703 -0.0708  0.7003  0.1382
19097TIP3   OH278781   4.489   3.115   3.255 -0.5218 -0.7684 -0.3571
19097TIP3    H178782   4.493   3.127   3.160 -0.2175 -1.9250 -0.5155
19097TIP3    H278783   4.396   3.105   3.274 -0.4830 -2.8951 -0.9178
19098TIP3   OH278784   4.424   5.275   5.954 -0.1233  0.1457  0.0255
19098TIP3    H178785   4.361   5.328   6.004 -0.4210  0.5962 -0.8112
19098TIP3    H278786   4.379   5.254   5.873  0.9284  0.8149 -0.7701
19099TIP3   OH278787   1.183   6.154  15.029 -0.5140  0.2200 -0.5372
19099TIP3    H178788   1.194   6.059  15.036 -1.0565  0.2740  1.8581
19099TIP3    H278789   1.119   6.166  14.959  0.0794 -1.1110 -1.3539
19100TIP3   OH278790   6.110   0.373  10.924  0.1512 -0.4866  0.1408
19100TIP3    H178791   6.063   0.290  10.919 -1.2244  0.2394  0.2838
19100TIP3    H278792   6.134   0.392  10.834 -2.0607  0.2904 -0.3611
19101TIP3   OH278793   4.383   2.139   6.346  0.1125 -0.3328 -0.3827
19101TIP3    H178794   4.451   2.089   6.300  2.3269  1.5950  0.5683
19101TIP3    H278795   4.411   2.139   6.437 -0.4562  1.5708 -0.1637
19102TIP3   OH278796   6.602   2.395   5.734  0.2861  0.3100  0.3430
19102TIP3    H178797   6.658   2.361   5.803  0.1065  0.6527  0.6634
19102TIP3    H278798   6.581   2.484   5.762  1.0208  0.8140 -0.6429
19103TIP3   OH278799   0.926   1.482   5.233 -0.3903  1.0347  0.3424
19103TIP3    H178800   0.986   1.543   5.190 -0.2912  0.9798  0.4002
19103TIP3    H278801   0.859   1.462   5.168  0.0524  0.5334  0.0284
19104TIP3   OH278802   0.185   3.556  13.589 -0.1744  0.2312  0.4908
19104TIP3    H178803   0.243   3.517  13.655 -1.8589 -1.3305  1.1385
19104TIP3    H278804   0.204   3.507  13.509 -0.6286 -0.3272  0.7192
19105TIP3   OH278805   5.795   6.400  11.884 -0.4565  0.4560  0.3152
19105TIP3    H178806   5.774   6.415  11.976  1.1890 -0.0951  0.7963
19105TIP3    H278807   5.890   6.408  11.878 -0.3123 -1.5022 -0.9451
19106TIP3   OH278808   0.840   4.251  12.412  0.4086 -0.0464  0.3471
19106TIP3    H178809   0.832   4.258  12.507 -0.4036 -2.1281  0.4846
19106TIP3    H278810   0.879   4.334  12.385 -0.5085  1.1105  2.3462
19107TIP3   OH278811   2.370   5.344  13.661  0.7751 -0.5577  0.0123
19107TIP3    H178812   2.396   5.279  13.726  1.2579 -0.4548 -0.0700
19107TIP3    H278813   2.432   5.416  13.674 -1.4969  1.1996  2.0682
19108TIP3   OH278814   3.168   4.499  14.052  0.2213 -0.1506 -0.1819
19108TIP3    H178815   3.202   4.475  13.966  0.0550 -0.2607 -0.2183
19108TIP3    H278816   3.123   4.583  14.037  1.5381  0.6419  0.1178
19109TIP3   OH278817   2.057   4.600   3.724 -0.6024  0.3206  0.1584
19109TIP3    H178818   2.115   4.672   3.748  1.2643 -1.5474  1.6099
19109TIP3    H278819   2.050   4.547   3.804 -2.4452 -0.7880 -0.6587
19110TIP3   OH278820   5.703   1.296   0.039 -0.3512  0.0738  0.5473
19110TIP3    H178821   5.653   1.291  -0.043  0.6753  1.0213 -0.1716
19110TIP3    H278822   5.652   1.356   0.094  0.2326  1.5027 -0.4033
19111TIP3   OH278823   2.917   0.046   3.675  0.2075 -0.2616  0.3627
19111TIP3    H178824   2.884   0.119   3.729  0.2406 -0.1873  0.2834
19111TIP3    H278825   2.865   0.051   3.594  0.4900 -0.0716  0.1902
19112TIP3   OH278826   5.007   5.449  16.552 -0.3076  0.3982 -0.0649
19112TIP3    H178827   4.946   5.451  16.625  0.0791  1.7656  0.2615
19112TIP3    H278828   5.088   5.486  16.588  0.3691 -0.3496 -0.7825
19113TIP3   OH278829   5.718   0.366  14.301 -0.2763  0.1599 -0.7830
19113TIP3    H178830   5.686   0.445  14.345 -1.4872  0.4837 -2.1573
19113TIP3    H278831   5.801   0.393  14.261 -1.0394  0.9849 -1.8631
19114TIP3   OH278832   0.771   5.835  10.540  0.6126 -0.0581 -0.5494
19114TIP3    H178833   0.692   5.867  10.583  1.0729  0.5780 -0.1493
19114TIP3    H278834   0.765   5.740  10.546  0.4744  0.0078  0.5845
19115TIP3   OH278835   6.131   3.797   3.818  0.4787  0.0131 -0.2063
19115TIP3    H178836   6.072   3.870   3.837  1.1073  0.7331 -0.8885
19115TIP3    H278837   6.213   3.840   3.792  0.7884 -0.9346 -0.8368
19116TIP3   OH278838   4.981   4.205  13.800  0.0860  0.3883  0.2628
19116TIP3    H178839   5.009   4.115  13.819  0.3893  0.2557 -0.7444
19116TIP3    H278840   5.007   4.219  13.708 -1.7486  0.8024 -0.2334
19117TIP3   OH278841   1.722   4.942  11.409  0.3324  0.2041 -0.1511
19117TIP3    H178842   1.646   4.923  11.354  0.2454  3.2994 -1.2411
19117TIP3    H278843   1.700   5.023  11.454  1.9679 -0.2534  1.6026
19118TIP3   OH278844   1.185   2.209   3.638 -0.4271 -0.3065  0.8413
19118TIP3    H178845   1.136   2.128   3.628 -2.2438  0.8320  0.1433
19118TIP3    H278846   1.233   2.219   3.556  2.8478 -2.4730  2.2524
19119TIP3   OH278847   5.415   3.227  13.908 -0.2829  0.3024  0.5412
19119TIP3    H178848   5.504   3.219  13.874 -0.7523  0.1168 -0.6903
19119TIP3    H278849   5.371   3.287  13.848 -1.1460 -0.0364  0.8123
19120TIP3   OH278850   1.698   5.269   4.674 -0.2040  0.0792 -0.7209
19120TIP3    H178851   1.731   5.359   4.676 -2.1600  0.8197  0.7859
19120TIP3    H278852   1.625   5.268   4.736 -0.1024 -2.6165 -0.5128
19121TIP3   OH278853   4.893   5.666   4.066 -0.1838 -0.3843  0.2012
19121TIP3    H178854   4.932   5.664   4.153 -2.2493  0.5777  1.2215
19121TIP3    H278855   4.954   5.718   4.014  0.1613  0.6826  1.6012
19122TIP3   OH278856   1.921   5.861  12.285  0.4572  0.0047  0.4099
19122TIP3    H178857   1.908   5.784  12.230  2.3535 -0.4803  0.5910
19122TIP3    H278858   1.972   5.921  12.231 -1.6905  1.5437 -0.0348
19123TIP3   OH278859   2.994   1.773  13.896  0.0020 -0.7662  0.7182
19123TIP3    H178860   3.051   1.847  13.875  2.1247 -2.1822  1.1501
19123TIP3    H278861   2.914   1.788  13.845  2.1370 -0.5070 -2.8625
19124TIP3   OH278862   6.391   6.141  16.430 -0.1711  0.3955 -0.2005
19124TIP3    H178863   6.377   6.187  16.512  1.2783  1.4282 -0.4971
19124TIP3    H278864   6.472   6.092  16.443  0.8249  1.6314 -1.4059
19125TIP3   OH278865   3.871   6.259   6.235  0.8708 -0.0234  0.4873
19125TIP3    H178866   3.777   6.242   6.236  0.7723  0.3256 -0.9568
19125TIP3    H278867   3.889   6.291   6.147  2.0263  1.6715  1.2637
19126TIP3   OH278868   2.644   5.189  12.207  0.3463 -1.1940 -0.6305
19126TIP3    H178869   2.682   5.234  12.283 -0.7810 -0.4931 -0.4686
19126TIP3    H278870   2.617   5.104  12.241 -0.1208 -0.8975 -0.2499
19127TIP3   OH278871   4.283   0.236  10.711  0.3099  0.0773  0.2249
19127TIP3    H178872   4.376   0.241  10.691 -0.1099  1.8910 -1.6836
19127TIP3    H278873   4.262   0.142  10.704  1.5944 -0.1370 -1.4120
19128TIP3   OH278874   6.540   3.171  12.940 -0.0571 -0.6411  0.1105
19128TIP3    H178875   6.603   3.100  12.941  0.1876 -0.5109 -2.0332
19128TIP3    H278876   6.464   3.137  12.987  0.5279 -1.8425  0.2117
19129TIP3   OH278877   2.496   1.961   1.703 -0.5431 -0.8598  0.7087
19129TIP3    H178878   2.447   1.883   1.730 -1.0915 -0.0887  2.0315
19129TIP3    H278879   2.586   1.943   1.731 -0.6668 -1.0131  1.0109
19130TIP3   OH278880   5.982   5.256   0.628 -0.1502  0.0592  0.1720
19130TIP3    H178881   5.903   5.209   0.601  0.4542 -0.9619  0.1082
19130TIP3    H278882   5.963   5.288   0.715 -0.1681 -1.3881  0.7331
19131TIP3   OH278883   5.344   3.645   4.296  0.3201 -0.0225 -0.0169
19131TIP3    H178884   5.328   3.590   4.219 -0.1379 -1.6430  1.1948
19131TIP3    H278885   5.257   3.672   4.325  0.3740 -0.7672  0.8708
19132TIP3   OH278886   3.154   0.407  10.481  0.1064  0.2133  0.3651
19132TIP3    H178887   3.238   0.362  10.490  0.2112  0.0644 -1.0401
19132TIP3    H278888   3.092   0.339  10.456 -0.6545  0.1714  2.1807
19133TIP3   OH278889   4.707   1.135  10.979  0.3120  0.3373  0.1615
19133TIP3    H178890   4.723   1.175  10.893 -1.0694  0.2201 -0.1710
19133TIP3    H278891   4.753   1.051  10.975  1.4416  0.9407  0.0773
19134TIP3   OH278892   5.769   4.385   0.793  0.1858 -0.1671 -0.4685
19134TIP3    H178893   5.795   4.444   0.722 -0.5364  2.4143  1.2702
19134TIP3    H278894   5.791   4.433   0.873 -0.3429 -2.3544  1.0726
19135TIP3   OH278895   3.771   0.480  14.779 -0.0393  0.4821  0.3903
19135TIP3    H178896   3.815   0.557  14.742 -2.8430  1.6677 -0.7950
19135TIP3    H278897   3.808   0.406  14.731  1.3450  1.2838  0.1652
19136TIP3   OH278898   2.088   2.125  11.232  0.3637 -0.7678  0.7301
19136TIP3    H178899   2.008   2.094  11.191  1.6670 -0.4065 -2.2901
19136TIP3    H278900   2.078   2.220  11.236  1.0300 -0.6256 -0.6218
19137TIP3   OH278901   3.338   5.609   4.200  0.3267  0.1054 -0.2614
19137TIP3    H178902   3.274   5.619   4.270 -0.3828 -0.3715 -0.8257
19137TIP3    H278903   3.293   5.640   4.121 -0.1836 -2.6569 -1.1594
19138TIP3   OH278904   1.428   2.773   1.337  0.1819 -0.2567 -0.5691
19138TIP3    H178905   1.447   2.691   1.383 -1.4904 -1.4290 -1.8382
19138TIP3    H278906   1.336   2.791   1.359  0.5705  1.4188 -0.1688
19139TIP3   OH278907   5.897   1.844  12.498 -0.0786  0.7578  1.1433
19139TIP3    H178908   5.877   1.775  12.560 -1.0146 -0.7410 -0.7193
19139TIP3    H278909   5.974   1.813  12.451 -0.6118  0.8717  0.1694
19140TIP3   OH278910   1.789   4.991  12.331 -0.1861 -0.7502  0.0834
19140TIP3    H178911   1.763   4.989  12.423  1.3215  0.9346  0.5917
19140TIP3    H278912   1.871   4.941  12.327 -0.1721 -0.7045 -0.3147
19141TIP3   OH278913   0.614   0.857  13.695 -0.4827  0.0806  0.0208
19141TIP3    H178914   0.526   0.894  13.688 -0.8588 -0.8397 -0.2831
19141TIP3    H278915   0.631   0.819  13.609 -0.5581 -1.3979  0.6334
19142TIP3   OH278916   0.785   0.254   5.643 -0.2656 -0.2862 -0.9049
19142TIP3    H178917   0.810   0.324   5.703 -1.5315  1.0559 -1.8773
19142TIP3    H278918   0.728   0.198   5.695  0.3984 -0.3742 -0.2455
19143TIP3   OH278919   3.799   3.681  14.996 -0.0245 -0.4233  0.0107
19143TIP3    H178920   3.806   3.717  14.907 -2.9730  1.3700  0.3401
19143TIP3    H278921   3.733   3.612  14.988 -0.3703 -0.1902  0.8063
19144TIP3   OH278922   2.155   6.697   5.299 -0.6395  0.5361  0.2168
19144TIP3    H178923   2.241   6.661   5.322 -0.5944  1.1660  1.0643
19144TIP3    H278924   2.163   6.718   5.206  0.1502  0.6357  0.2984
19145TIP3   OH278925   0.430   3.458   0.267 -0.8031  0.8359 -0.2208
19145TIP3    H178926   0.387   3.499   0.192 -0.2515  0.1981 -0.8913
19145TIP3    H278927   0.385   3.373   0.277  0.3853  0.0862 -1.0354
19146TIP3   OH278928   4.185   2.376   4.906  0.6635  0.2471  0.2607
19146TIP3    H178929   4.175   2.281   4.911  1.2429  0.2218  1.2218
19146TIP3    H278930   4.165   2.397   4.815  4.4050 -1.2796 -1.1439
19147TIP3   OH278931   6.312   0.547   1.335 -0.1491 -0.5994 -0.1849
19147TIP3    H178932   6.237   0.518   1.387  0.8475 -3.2773 -0.1138
19147TIP3    H278933   6.325   0.639   1.360 -2.2485 -0.6116  1.1376
19148TIP3   OH278934   2.084   2.278  15.648 -0.4338  0.3705 -0.4613
19148TIP3    H178935   2.131   2.198  15.671 -0.2465  1.2032  2.4500
19148TIP3    H278936   2.070   2.271  15.553  1.4643 -2.0624 -0.6734
19149TIP3   OH278937   6.054   3.151   4.844 -0.3898 -0.3024  0.2840
19149TIP3    H178938   5.963   3.121   4.850 -0.0051 -1.2331  1.8762
19149TIP3    H278939   6.078   3.172   4.934  0.4182  1.7111 -0.3505
19150TIP3   OH278940   5.225   4.318  15.004 -0.2599  0.1130  0.0232
19150TIP3    H178941   5.258   4.403  15.030 -0.5543  0.3129 -0.2512
19150TIP3    H278942   5.142   4.336  14.960 -0.0063 -0.2551 -0.6250
19151TIP3   OH278943   5.473   2.653  13.761  0.2850 -0.3348  0.1565
19151TIP3    H178944   5.552   2.708  13.763  1.1443 -1.3924 -1.8722
19151TIP3    H278945   5.507   2.563  13.769 -0.4631 -0.9380 -2.4621
19152TIP3   OH278946   6.327   5.186   5.234  0.3751 -0.2718 -0.5863
19152TIP3    H178947   6.313   5.187   5.329 -0.8724 -0.3583 -0.7508
19152TIP3    H278948   6.258   5.128   5.200 -1.2525  2.2284 -1.8313
19153TIP3   OH278949   0.504   4.282  15.162 -0.3710 -0.0792 -0.0313
19153TIP3    H178950   0.484   4.260  15.071  1.2504  0.4895 -0.5577
19153TIP3    H278951   0.541   4.202  15.199 -1.4503 -0.4473  0.2775
19154TIP3   OH278952   1.287   4.300   1.006  0.5124 -0.1659  0.2752
19154TIP3    H178953   1.293   4.327   1.097  1.8298 -0.6770  0.3579
19154TIP3    H278954   1.222   4.359   0.967 -0.0608  0.0576  1.5227
19155TIP3   OH278955   1.228   3.602   4.782  0.0412 -0.3166  0.3268
19155TIP3    H178956   1.245   3.667   4.714  0.4098 -0.4451  0.2936
19155TIP3    H278957   1.312   3.589   4.825 -0.2440 -0.0457  0.9784
19156TIP3   OH278958   6.026   2.102  16.837 -0.4128  0.2721 -0.3682
19156TIP3    H178959   6.035   2.196  16.818 -1.1004 -0.0057 -2.2965
19156TIP3    H278960   6.112   2.075  16.868 -0.0858  1.4491 -0.2123
19157TIP3   OH278961   1.991   5.266   4.688  0.2031 -0.0730  0.1209
19157TIP3    H178962   1.944   5.308   4.615 -0.1317 -2.8938 -1.4547
19157TIP3    H278963   2.066   5.224   4.646  1.6608  0.6181  1.9309
19158TIP3   OH278964   0.126   3.947   1.830  0.1504  0.3031  0.3014
19158TIP3    H178965   0.110   4.017   1.766  0.4536 -0.7489 -0.9760
19158TIP3    H278966   0.204   3.976   1.877  0.2749  0.8292 -0.2071
19159TIP3   OH278967   3.469   0.056  13.134  1.0727  1.0251  0.2406
19159TIP3    H178968   3.461  -0.023  13.080  0.4887  0.4429  1.1409
19159TIP3    H278969   3.379   0.078  13.157  0.8712  3.9292 -2.6639
19160TIP3   OH278970   4.754   2.436  10.821 -0.0632 -0.6090 -0.6074
19160TIP3    H178971   4.772   2.343  10.806 -1.9408 -1.1584  0.2736
19160TIP3    H278972   4.671   2.452  10.776  0.0666  0.5839 -0.4756
19161TIP3   OH278973   5.409   0.442  10.559  0.4642 -0.3526  0.1732
19161TIP3    H178974   5.419   0.451  10.464 -0.9140  2.2028  0.1535
19161TIP3    H278975   5.331   0.387  10.570  0.4468 -0.4013 -0.1970
19162TIP3   OH278976   4.858   1.402  11.893 -0.4218 -0.3539 -0.0364
19162TIP3    H178977   4.909   1.322  11.900  1.0388  0.5279 -0.1215
19162TIP3    H278978   4.918   1.471  11.919 -0.7752  0.9985 -2.4390
19163TIP3   OH278979   3.065   5.585   3.409 -0.4097 -0.1229 -0.7846
19163TIP3    H178980   3.010   5.532   3.466 -0.2764  1.5813  1.0268
19163TIP3    H278981   3.145   5.534   3.397 -1.5546 -1.7589 -1.8573
19164TIP3   OH278982   4.253   4.603   3.197 -0.3551 -0.3032  1.0102
19164TIP3    H178983   4.301   4.523   3.174  1.1061  0.6324  0.6593
19164TIP3    H278984   4.236   4.646   3.113 -3.4383 -1.4352  0.9427
19165TIP3   OH278985   4.473   6.752   1.504 -0.5762 -0.6886 -0.1505
19165TIP3    H178986   4.514   6.665   1.496 -0.7139 -0.8843  1.1366
19165TIP3    H278987   4.537   6.804   1.552 -1.3897 -0.7046  0.9782
19166TIP3   OH278988   4.119   0.161   3.803 -0.4333  0.0790 -1.0470
19166TIP3    H178989   4.032   0.183   3.836  0.5882  0.8911  1.3427
19166TIP3    H278990   4.144   0.082   3.850  0.8692  0.9700 -0.1510
19167TIP3   OH278991   2.541   0.621  15.868 -0.8912 -0.1466  0.3949
19167TIP3    H178992   2.476   0.687  15.846 -2.3798 -1.1512  1.5927
19167TIP3    H278993   2.491   0.540  15.879  0.9455 -1.7289 -1.8517
19168TIP3   OH278994   4.526   5.854  12.742 -0.1478  0.0799  0.5963
19168TIP3    H178995   4.438   5.824  12.719  0.7030 -2.1813 -0.0153
19168TIP3    H278996   4.566   5.876  12.658 -0.2227  1.5064  0.9105
19169TIP3   OH278997   3.108   4.456   2.507 -0.5894 -0.1397 -0.1484
19169TIP3    H178998   3.074   4.499   2.585  0.3389 -0.7140  0.5990
19169TIP3    H278999   3.035   4.403   2.475 -0.5095 -1.1892  1.3002
19170TIP3   OH279000   1.122   2.217   4.452 -0.1098 -0.4556 -0.3061
19170TIP3    H179001   1.127   2.201   4.357  1.3342  1.8665 -0.7287
19170TIP3    H279002   1.106   2.311   4.459  0.2579 -0.5038  1.7694
19171TIP3   OH279003   5.059   5.658  12.342  0.8352 -0.3656 -0.3609
19171TIP3    H179004   5.004   5.701  12.277 -1.3088 -0.1951  1.4356
19171TIP3    H279005   5.136   5.715  12.351 -0.3748  1.3398 -0.4299
19172TIP3   OH279006   2.980   3.163  13.543  0.6614  0.0791 -0.0609
19172TIP3    H179007   2.979   3.215  13.463 -1.4675  0.9895  0.4767
19172TIP3    H279008   3.073   3.147  13.560  1.2024  0.6306 -2.1967
19173TIP3   OH279009   2.642   1.221   1.362  0.0965  1.0922  0.4267
19173TIP3    H179010   2.681   1.151   1.309  0.2956  1.8008 -0.3741
19173TIP3    H279011   2.651   1.190   1.452 -0.1099 -0.0635  0.0690
19174TIP3   OH279012   2.578   0.657   1.907  0.0073  0.3495 -0.2191
19174TIP3    H179013   2.485   0.666   1.929  0.3700  0.4168  1.4227
19174TIP3    H279014   2.595   0.563   1.914  0.3335  0.4735  0.7026
19175TIP3   OH279015   3.103   3.037   5.289 -0.4853  0.1204 -0.4075
19175TIP3    H179016   3.091   2.942   5.284 -0.5726  0.0881  0.3808
19175TIP3    H279017   3.021   3.070   5.326  0.1970  0.3180  1.0000
19176TIP3   OH279018   4.117   6.122   5.384  0.2627 -0.3056  0.6775
19176TIP3    H179019   4.030   6.161   5.382  0.1441 -0.4709  2.1086
19176TIP3    H279020   4.166   6.171   5.318 -0.5956  0.5388  0.6463
19177TIP3   OH279021   6.124   4.770  15.544 -0.0109 -0.0976  0.5167
19177TIP3    H179022   6.151   4.858  15.567 -1.2966  0.3414  0.4225
19177TIP3    H279023   6.192   4.739  15.484 -0.2294  1.3418 -0.5302
19178TIP3   OH279024   5.268   0.886  15.217 -0.0594  0.3091  0.4950
19178TIP3    H179025   5.192   0.844  15.257  1.3109  0.0242  2.9526
19178TIP3    H279026   5.238   0.974  15.194 -0.9360  0.4776  2.1552
19179TIP3   OH279027   2.401   1.672  16.422 -0.1942 -0.2978  0.3235
19179TIP3    H179028   2.451   1.690  16.502 -0.5094 -0.1883  0.4962
19179TIP3    H279029   2.453   1.711  16.352 -0.5212  0.7005  0.6124
19180TIP3   OH279030   0.097   6.219   4.913  0.3092 -0.0875  0.0690
19180TIP3    H179031   0.159   6.291   4.902  0.2558 -0.1347 -0.5907
19180TIP3    H279032   0.056   6.209   4.827 -2.3386  1.4940  1.0174
19181TIP3   OH279033   5.100   3.883   3.660 -0.3888  0.6206  0.3399
19181TIP3    H179034   5.173   3.832   3.694 -0.9315 -0.5965 -0.2755
19181TIP3    H279035   5.127   3.911   3.573 -0.7775 -0.1178 -0.0241
19182TIP3   OH279036   4.327   2.428   6.052  0.1133  0.1841 -0.0316
19182TIP3    H179037   4.418   2.408   6.029  0.2007  0.4147  0.1103
19182TIP3    H279038   4.331   2.514   6.094 -0.4262  1.1880 -1.9195
19183TIP3   OH279039   2.496   3.955   6.631 -0.0234 -0.7631 -0.3897
19183TIP3    H179040   2.569   3.993   6.581  0.1713  0.3152  0.6630
19183TIP3    H279041   2.490   4.010   6.709 -0.6137 -2.1316  0.5521
19184TIP3   OH279042   0.234   1.150  17.087  0.7237 -0.0291 -0.2646
19184TIP3    H179043   0.220   1.069  17.039 -1.9108 -0.6389  1.3072
19184TIP3    H279044   0.284   1.125  17.164  1.4260  0.1816 -0.6491
19185TIP3   OH279045   0.188   2.516  10.997 -0.4788  0.2472 -0.3132
19185TIP3    H179046   0.228   2.442  10.951  0.4594  0.4247  0.1734
19185TIP3    H279047   0.212   2.593  10.944  2.3030  0.6989  1.3934
19186TIP3   OH279048   4.884   1.195  13.968  0.0426 -0.0895 -0.1124
19186TIP3    H179049   4.975   1.219  13.987 -0.2386  0.6637  0.3300
19186TIP3    H279050   4.876   1.105  13.998  0.8627 -0.4384 -0.8961
19187TIP3   OH279051   2.811   1.955   2.629  0.6503  0.3625  0.4813
19187TIP3    H179052   2.881   1.890   2.634  1.9461  1.5898 -0.7133
19187TIP3    H279053   2.732   1.908   2.658  1.9963 -0.9682  2.2180
19188TIP3   OH279054   1.896   3.357   0.069  0.3078 -0.9752 -0.9631
19188TIP3    H179055   1.831   3.321   0.129  0.8806 -1.3927 -0.5844
19188TIP3    H279056   1.849   3.425   0.021  0.1508  0.2812  0.8613
19189TIP3   OH279057   5.810   1.091   6.589  0.2180 -0.7947 -0.5536
19189TIP3    H179058   5.869   1.019   6.611  2.1213  0.5256 -1.0951
19189TIP3    H279059   5.862   1.150   6.536 -1.3843  0.8226 -0.4411
19190TIP3   OH279060   5.500   5.141  10.687 -0.5461 -0.0122  0.1906
19190TIP3    H179061   5.563   5.086  10.639 -0.0387  0.6928  0.0248
19190TIP3    H279062   5.420   5.137  10.634  0.0668  0.9094 -0.8376
19191TIP3   OH279063   2.554   1.365   3.602 -0.0212 -0.6347  0.4121
19191TIP3    H179064   2.472   1.401   3.636 -0.4832  1.4195 -2.4510
19191TIP3    H279065   2.616   1.374   3.674 -2.0731 -1.5759  2.4290
19192TIP3   OH279066   0.019   3.092  13.440 -0.7378 -0.3278 -0.1350
19192TIP3    H179067   0.009   3.033  13.365  1.8497 -1.9849  0.6732
19192TIP3    H279068  -0.023   3.045  13.513 -0.9626  0.0671 -0.0089
19193TIP3   OH279069   2.402   4.493  14.376  0.3707  0.3362  0.2246
19193TIP3    H179070   2.409   4.570  14.321  0.5903  0.4836  0.4568
19193TIP3    H279071   2.313   4.460  14.361 -0.4898  1.8349  1.6830
19194TIP3   OH279072   3.394   5.253  15.420  0.4358 -0.2702  0.4449
19194TIP3    H179073   3.409   5.343  15.393  0.7094 -0.5726 -0.4489
19194TIP3    H279074   3.478   5.210  15.410  0.1675 -0.7674  0.2664
19195TIP3   OH279075   6.740   3.600  15.050 -0.2137  0.4652  0.2943
19195TIP3    H179076   6.829   3.581  15.022 -1.5403 -2.1401 -2.8252
19195TIP3    H279077   6.727   3.692  15.027  1.3129  0.5829 -0.2213
19196TIP3   OH279078   3.450   2.328   5.751 -0.1322 -0.0424 -0.8149
19196TIP3    H179079   3.370   2.372   5.779  1.1404  1.8463  0.1697
19196TIP3    H279080   3.480   2.282   5.829  1.2855  1.8469 -0.1482
19197TIP3   OH279081   6.399   2.880   1.978  0.2883  0.1483  0.0921
19197TIP3    H179082   6.344   2.959   1.982  1.9365  1.2767  2.7630
19197TIP3    H279083   6.349   2.814   2.025  0.6082  0.7925  1.3684
19198TIP3   OH279084   0.956   5.539   0.430  0.1961  0.5469 -0.0778
19198TIP3    H179085   0.901   5.583   0.365  0.6126  1.8657  0.4380
19198TIP3    H279086   1.045   5.560   0.404  0.3598  2.9349  2.0890
19199TIP3   OH279087   5.598   4.657   1.812 -0.1883  0.1831  0.0141
19199TIP3    H179088   5.539   4.605   1.865 -1.9609  0.7667 -1.3058
19199TIP3    H279089   5.677   4.667   1.866 -0.1333 -3.0020  0.6795
19200TIP3   OH279090   1.454   6.748   4.821 -0.1385 -0.3604 -0.7321
19200TIP3    H179091   1.526   6.704   4.776 -1.4999 -4.2408  0.4026
19200TIP3    H279092   1.492   6.780   4.903  0.4577 -1.9531 -0.3535
19201TIP3   OH279093   4.205   4.814   2.532 -0.1882  0.1957  0.0693
19201TIP3    H179094   4.222   4.751   2.602 -1.9587 -0.0861  0.2997
19201TIP3    H279095   4.201   4.899   2.576 -0.5501  0.1111  0.2052
19202TIP3   OH279096   3.096   2.758  12.715 -0.7960 -0.4320 -0.2956
19202TIP3    H179097   3.148   2.682  12.689 -1.5439 -0.2566 -2.5605
19202TIP3    H279098   3.152   2.807  12.775  0.4653 -1.7606 -0.3449
19203TIP3   OH279099   6.296   2.827   0.299  0.1397  0.4425 -0.0586
19203TIP3    H179100   6.314   2.753   0.357  1.0610  0.3277 -0.4724
19203TIP3    H279101   6.289   2.902   0.359 -0.1166  0.1310  0.3051
19204TIP3   OH279102   1.196   6.318  13.301 -0.5050 -0.2629 -0.6351
19204TIP3    H179103   1.220   6.410  13.301  0.9777 -0.5957  0.6522
19204TIP3    H279104   1.280   6.271  13.302 -1.2194 -1.6023 -0.2829
19205TIP3   OH279105   0.822   5.531  13.488 -0.3115 -0.0423  0.5147
19205TIP3    H179106   0.857   5.539  13.577  0.5455 -0.0273  0.1883
19205TIP3    H279107   0.862   5.603  13.440 -1.0710  0.1847  0.2021
19206TIP3   OH279108   4.154   0.364  11.458  0.5571  0.0643  0.1411
19206TIP3    H179109   4.182   0.316  11.380  0.0712  0.3127 -0.1949
19206TIP3    H279110   4.060   0.346  11.464  0.5473  0.2338  0.5423
19207TIP3   OH279111   3.032   1.248   0.115 -0.3502  0.5133 -0.8941
19207TIP3    H179112   2.993   1.279   0.197  0.7834  0.3774 -0.2849
19207TIP3    H279113   2.976   1.176   0.088 -0.4881  0.2649  0.0079
19208TIP3   OH279114   0.992   3.006  13.418  0.2417  0.6819  0.1929
19208TIP3    H179115   1.079   2.995  13.379  0.0408 -0.1194 -0.0492
19208TIP3    H279116   0.978   3.100  13.420  0.6312  0.7680 -0.8554
19209TIP3   OH279117   0.624   1.908  12.403  0.4588 -0.1416 -0.1026
19209TIP3    H179118   0.530   1.888  12.404  0.2204  0.9186  0.1791
19209TIP3    H279119   0.646   1.908  12.310 -0.4919  2.3882 -0.4130
19210TIP3   OH279120   1.809   0.149   3.372  0.7943  0.2232  0.2902
19210TIP3    H179121   1.788   0.079   3.311  1.0365  0.6873 -0.3451
19210TIP3    H279122   1.884   0.194   3.332  0.6573  0.8256  0.6915
19211TIP3   OH279123   3.905   1.068   2.010 -0.1251 -0.3814  0.3493
19211TIP3    H179124   3.845   0.996   2.033 -0.8095  0.5099  1.4796
19211TIP3    H279125   3.856   1.121   1.948 -0.9443  0.8578  1.9676
19212TIP3   OH279126   6.220   3.664  15.848 -0.8144  0.6103 -0.3972
19212TIP3    H179127   6.237   3.609  15.772 -0.5026 -2.1167  1.4925
19212TIP3    H279128   6.168   3.609  15.907  1.0216  1.6124  2.3959
19213TIP3   OH279129   2.261   0.056   4.681 -0.4130  0.2226  0.4254
19213TIP3    H179130   2.217   0.009   4.610  0.3227 -1.3544  0.9590
19213TIP3    H279131   2.272   0.145   4.648 -1.2755 -0.1383 -0.9066
19214TIP3   OH279132   1.053   5.303   1.881  0.0222 -0.1859 -0.1190
19214TIP3    H179133   1.137   5.276   1.919  0.3298  0.3112 -0.4478
19214TIP3    H279134   1.066   5.394   1.854 -0.4173 -0.3091 -0.7698
19215TIP3   OH279135   0.495   5.841   3.369 -0.2744  0.5520 -0.3213
19215TIP3    H179136   0.539   5.924   3.348  0.4904  0.1378 -0.4083
19215TIP3    H279137   0.546   5.806   3.442  0.9694 -1.0244 -1.8550
19216TIP3   OH279138   0.158   0.944  15.124  0.4422  0.1355 -0.1858
19216TIP3    H179139   0.232   1.002  15.106  0.8028 -0.6822 -1.4484
19216TIP3    H279140   0.198   0.858  15.138 -0.0228  0.2187  2.2479
19217TIP3   OH279141   6.507   3.308   2.652  0.1774 -0.0695  0.1308
19217TIP3    H179142   6.463   3.388   2.679  0.8038  0.2741  0.1708
19217TIP3    H279143   6.574   3.293   2.719  0.9917  0.1620 -0.6045
19218TIP3   OH279144   6.608   4.610   3.685  0.3599 -0.0052 -0.2010
19218TIP3    H179145   6.549   4.571   3.620  1.6099  0.3030 -1.5813
19218TIP3    H279146   6.692   4.567   3.669  0.6869  0.0693  1.2471
19219TIP3   OH279147   3.539   1.646  12.448  0.1948 -0.3186 -0.4740
19219TIP3    H179148   3.512   1.594  12.372 -0.1611 -1.6989  0.5523
19219TIP3    H279149   3.493   1.606  12.522 -1.0709  2.2551  0.2269
19220TIP3   OH279150   5.266   2.789  13.848 -0.0282 -0.4096  0.1177
19220TIP3    H179151   5.302   2.877  13.850 -0.9312  0.0260 -1.4490
19220TIP3    H279152   5.343   2.732  13.854  0.5554  0.4535  1.2823
19221TIP3   OH279153   4.506   3.048   4.171 -0.0575  0.3999  0.5589
19221TIP3    H179154   4.451   3.057   4.093 -0.6571  0.1541  0.9466
19221TIP3    H279155   4.586   3.095   4.149  0.6411 -1.3575 -0.9985
19222TIP3   OH279156   5.035   6.620   2.429 -0.3501  0.1418  0.6437
19222TIP3    H179157   4.960   6.608   2.372 -0.4765  0.5782  0.7189
19222TIP3    H279158   4.998   6.642   2.515 -0.1317  0.6873  0.6014
19223TIP3   OH279159   6.791   5.681   1.823  0.4446 -0.3351 -0.4740
19223TIP3    H179160   6.827   5.698   1.910  0.0364  0.6422 -0.4824
19223TIP3    H279161   6.767   5.589   1.825 -1.1049  0.0578  1.0346
19224TIP3   OH279162   2.175   2.123  15.162 -0.0368  0.3444  0.1462
19224TIP3    H179163   2.228   2.182  15.108  0.7332 -1.2219 -0.8717
19224TIP3    H279164   2.221   2.039  15.158 -1.5523 -0.5540  0.8746
19225TIP3   OH279165   6.723   4.008   5.637  0.0625  0.3445  0.0569
19225TIP3    H179166   6.801   4.022   5.691  0.5950 -0.1464 -0.5721
19225TIP3    H279167   6.666   3.951   5.690 -0.6154  2.0180  1.2034
19226TIP3   OH279168   4.947   3.359   3.535 -0.8455 -0.4224  0.6527
19226TIP3    H179169   5.029   3.318   3.505 -1.6699 -1.3355 -0.4426
19226TIP3    H279170   4.898   3.287   3.576 -1.9330 -0.3719 -0.4977
19227TIP3   OH279171   0.836   2.107  12.418  0.5671  0.2822 -0.2094
19227TIP3    H179172   0.906   2.117  12.483  1.2639  0.7264 -1.0094
19227TIP3    H279173   0.786   2.031  12.449  1.9064 -0.5814 -0.0695
19228TIP3   OH279174   1.705   3.108   5.540 -1.2225 -0.3007  0.0938
19228TIP3    H179175   1.665   3.025   5.566 -1.5864  0.2531  1.3423
19228TIP3    H279176   1.732   3.149   5.622 -1.6359  1.1220 -0.4585
19229TIP3   OH279177   5.111   5.391   3.267  0.3026  0.0138 -0.5879
19229TIP3    H179178   5.174   5.437   3.211 -0.0574  2.3236  0.7962
19229TIP3    H279179   5.031   5.387   3.214  0.3145  1.1191 -0.7149
19230TIP3   OH279180   5.666   4.656  11.802  0.6775  0.6457  0.1867
19230TIP3    H179181   5.700   4.726  11.746 -0.9320  1.7513  0.5318
19230TIP3    H279182   5.665   4.695  11.890 -2.2593  1.0398  0.0716
19231TIP3   OH279183   3.921   0.965   1.719 -0.1641  0.0912  0.1877
19231TIP3    H179184   3.967   1.035   1.765 -0.2153 -0.3234  0.8765
19231TIP3    H279185   3.832   0.967   1.755 -0.1972 -0.2478  0.1302
19232TIP3   OH279186   0.162   5.438  14.829 -0.2311 -0.0465 -0.3950
19232TIP3    H179187   0.115   5.357  14.848  2.0797 -0.4999  5.1459
19232TIP3    H279188   0.252   5.421  14.854  0.9741  3.5113 -1.5892
19233TIP3   OH279189   3.686   0.272   3.342 -0.2183  0.6654  0.2175
19233TIP3    H179190   3.683   0.356   3.297 -0.7669  0.9118  0.7054
19233TIP3    H279191   3.597   0.237   3.336 -0.0802  0.2815  0.3293
19234TIP3   OH279192   1.144   4.197  11.373  0.1727  0.4237  0.1355
19234TIP3    H179193   1.157   4.215  11.466 -0.1743  1.2318  0.0332
19234TIP3    H279194   1.052   4.172  11.365 -0.3810  2.4173 -0.2749
19235TIP3   OH279195   5.436   5.385  12.573 -0.0569 -0.2313  0.0581
19235TIP3    H179196   5.466   5.430  12.652  0.3088  0.1205 -0.2734
19235TIP3    H279197   5.347   5.416  12.560  0.7652  1.8607 -1.1772
19236TIP3   OH279198   3.586   3.613   5.348 -0.2370 -0.2483  0.6017
19236TIP3    H179199   3.589   3.703   5.315  0.9326 -0.5202 -0.1061
19236TIP3    H279200   3.494   3.589   5.341 -0.5422  0.8329  0.6291
19237TIP3   OH279201   5.692   3.051  14.397  0.1852 -0.2534 -0.0478
19237TIP3    H179202   5.685   3.031  14.491  0.1773  1.4233  0.3417
19237TIP3    H279203   5.783   3.076  14.384  0.5169 -1.7222 -0.7891
19238TIP3   OH279204   1.426   5.902  14.163  0.1633 -0.1700 -0.1002
19238TIP3    H179205   1.384   5.987  14.176  0.9653  0.5636 -1.9388
19238TIP3    H279206   1.512   5.911  14.203 -0.1368 -0.4846  0.6232
19239TIP3   OH279207   3.912   0.323   0.102  0.2533  0.7724  0.4281
19239TIP3    H179208   4.007   0.313   0.114  0.1434 -0.9437  0.2147
19239TIP3    H279209   3.879   0.233   0.108 -1.4196  1.3938  0.9382
19240TIP3   OH279210   4.740   5.676   1.223  0.1614 -0.3867 -0.2249
19240TIP3    H179211   4.790   5.632   1.293  1.3479 -0.8776 -1.3443
19240TIP3    H279212   4.705   5.604   1.170  2.0566 -0.0494 -2.0353
19241TIP3   OH279213   6.202   3.276   0.594  0.0082  0.1371 -0.5621
19241TIP3    H179214   6.232   3.361   0.562  0.0230  0.7999  1.0876
19241TIP3    H279215   6.200   3.286   0.689  2.3507 -2.4507 -0.1005
19242TIP3   OH279216   1.086   1.431   0.249 -0.2715 -0.1607  0.0110
19242TIP3    H179217   1.093   1.380   0.330 -0.0281  0.6288  0.4999
19242TIP3    H279218   1.173   1.470   0.238  0.0288 -1.1045 -1.2248
19243TIP3   OH279219   4.156   1.256   6.566  0.0563  0.1804 -0.6378
19243TIP3    H179220   4.187   1.319   6.632  0.6907  0.4345 -1.1685
19243TIP3    H279221   4.087   1.302   6.519  0.1889  0.3104 -0.7063
19244TIP3   OH279222   0.595   6.470   1.503  0.1328  0.1149  0.0446
19244TIP3    H179223   0.523   6.533   1.501 -0.4337 -0.5256 -1.0179
19244TIP3    H279224   0.563   6.397   1.450  2.4186  0.7256 -2.3683
19245TIP3   OH279225   4.574   1.613  13.937  0.0894  0.4380 -0.1357
19245TIP3    H179226   4.635   1.676  13.978 -1.8475  1.6725  1.0320
19245TIP3    H279227   4.546   1.557  14.009 -0.5418  0.2245 -0.5417
19246TIP3   OH279228   3.014   1.193  15.848 -0.2998 -0.5875  0.0389
19246TIP3    H179229   2.993   1.201  15.755  2.6213  1.2706 -0.5904
19246TIP3    H279230   2.960   1.260  15.891 -0.5752 -0.4252 -0.5582
19247TIP3   OH279231   0.473   3.132  16.183 -0.1284 -0.1026 -0.5023
19247TIP3    H179232   0.459   3.119  16.089  1.2032 -1.3985 -0.5433
19247TIP3    H279233   0.537   3.066  16.208  0.8272  1.3153  0.9903
19248TIP3   OH279234   3.776   1.775   0.886  0.0224  0.0543 -0.1446
19248TIP3    H179235   3.848   1.816   0.935 -1.6380  1.8517  0.9238
19248TIP3    H279236   3.713   1.749   0.953 -1.2087  0.3161 -1.1556
19249TIP3   OH279237   0.592   3.253   5.336 -0.0612 -0.3711  0.5152
19249TIP3    H179238   0.609   3.333   5.386  1.4960 -0.7341  0.6468
19249TIP3    H279239   0.568   3.189   5.403 -0.3900 -0.2441  0.5184
19250TIP3   OH279240   3.921   2.070  15.564 -0.0979 -0.1991 -0.2220
19250TIP3    H179241   3.847   2.131  15.569 -0.1320 -0.3264  1.0248
19250TIP3    H279242   3.976   2.091  15.639 -0.1831 -1.7815  0.3246
19251TIP3   OH279243   4.330   0.950  16.883 -0.1251  0.3589 -0.4233
19251TIP3    H179244   4.410   0.951  16.829 -0.2263 -2.0896 -0.7114
19251TIP3    H279245   4.350   1.009  16.956  3.1991 -2.3997  1.1747
19252TIP3   OH279246   1.937   1.202   5.847 -0.0053  0.2620  0.1095
19252TIP3    H179247   1.900   1.118   5.819  2.9768 -1.3335  0.4980
19252TIP3    H279248   1.879   1.231   5.918 -0.2792 -2.3146  1.0548
19253TIP3   OH279249   4.331   4.437  12.714 -0.5890 -0.4813 -0.1846
19253TIP3    H179250   4.379   4.475  12.640 -2.1858  0.7203 -0.6593
19253TIP3    H279251   4.300   4.512  12.764  0.2397 -1.2758  1.6170
19254TIP3   OH279252   3.259   6.040  13.390 -0.0366 -0.3436 -0.3656
19254TIP3    H179253   3.332   5.990  13.352  1.7434 -0.7468  3.1678
19254TIP3    H279254   3.269   6.029  13.485 -3.8925  0.8534  0.3523
19255TIP3   OH279255   3.154   6.818  12.413  0.0549 -0.2176  0.4307
19255TIP3    H179256   3.075   6.768  12.434  0.4305 -1.0847 -0.1547
19255TIP3    H279257   3.199   6.828  12.496 -0.1669 -0.6041  0.5996
19256TIP3   OH279258   2.348   5.306  11.770 -0.7876 -0.5656 -0.2087
19256TIP3    H179259   2.392   5.391  11.766  1.4995 -1.5972  0.8889
19256TIP3    H279260   2.273   5.320  11.828  0.1968  0.4714  0.8698
19257TIP3   OH279261   2.349   4.029   4.580 -0.0505 -0.6628  0.1733
19257TIP3    H179262   2.254   4.018   4.570 -0.4809  0.8079  2.1040
19257TIP3    H279263   2.365   4.120   4.555  0.8691 -0.9231 -0.1966
19258TIP3   OH279264   5.847   3.281  13.060  0.1140  0.6840 -0.3826
19258TIP3    H179265   5.887   3.194  13.057 -0.3514  0.4598 -0.2208
19258TIP3    H279266   5.811   3.287  13.149  0.2462  1.0861 -0.3567
19259TIP3   OH279267   1.679   0.846   4.063 -0.0049 -0.7427  0.5296
19259TIP3    H179268   1.626   0.833   3.985  0.5749  0.4916 -0.0993
19259TIP3    H279269   1.637   0.918   4.109  0.9371  0.0443  0.1788
19260TIP3   OH279270   0.023   0.929   0.446  0.5480 -0.4172  0.2038
19260TIP3    H179271   0.040   0.918   0.353  2.4595 -0.8521  0.5564
19260TIP3    H279272  -0.002   0.842   0.477  0.4572 -0.3917  0.2038
19261TIP3   OH279273   5.765   1.327  14.143 -0.2124  0.1383  0.2852
19261TIP3    H179274   5.762   1.237  14.175 -2.2494 -0.5569 -1.6147
19261TIP3    H279275   5.757   1.319  14.048  0.9035  2.2971 -0.0574
19262TIP3   OH279276   6.064   3.952  13.257 -0.1054  0.5760  0.3852
19262TIP3    H179277   6.157   3.968  13.272  0.0477 -0.4266  0.5702
19262TIP3    H279278   6.026   4.040  13.248  1.0583  0.9875 -0.9594
19263TIP3   OH279279   1.998   1.942  11.999  0.0819  0.2755  0.0090
19263TIP3    H179280   2.001   1.850  11.975  1.6948  0.0881  0.8039
19263TIP3    H279281   2.081   1.978  11.969  0.3717  0.9686  1.5217
19264TIP3   OH279282   3.504   5.464  15.887 -0.3387 -0.0910  0.4419
19264TIP3    H179283   3.415   5.437  15.864 -0.2911 -0.7361  0.9546
19264TIP3    H279284   3.529   5.403  15.957  1.2374 -1.2215 -1.0360
19265TIP3   OH279285   1.098   1.377   4.636  0.1502 -0.3415 -0.3879
19265TIP3    H179286   1.076   1.302   4.691 -3.0353  1.6323  1.2826
19265TIP3    H279287   1.035   1.373   4.564  0.8642 -0.0033 -1.0442
19266TIP3   OH279288   6.592   4.303  11.252  0.3020 -0.0602 -0.3408
19266TIP3    H179289   6.610   4.281  11.160  1.6987  3.0497 -0.9456
19266TIP3    H279290   6.628   4.229  11.301  0.2520 -1.4351 -2.2388
19267TIP3   OH279291   4.915   3.001  12.870  0.0284  0.4690 -0.4617
19267TIP3    H179292   4.965   2.920  12.887 -1.3117 -0.0389  1.4437
19267TIP3    H279293   4.927   3.017  12.777  1.0906 -1.4176 -0.7128
19268TIP3   OH279294   2.780   3.061  12.081  0.0117  0.2218  0.1176
19268TIP3    H179295   2.688   3.035  12.078  0.0914  0.0355 -0.8491
19268TIP3    H279296   2.817   3.008  12.151 -0.3561 -0.5312 -0.2517
19269TIP3   OH279297   2.120   5.747  16.829  0.3609 -1.1439 -0.8048
19269TIP3    H179298   2.153   5.730  16.917 -0.8236 -0.9041 -0.2929
19269TIP3    H279299   2.152   5.834  16.808  0.2818 -1.0221 -0.4319
19270TIP3   OH279300   2.358   5.382   3.666 -0.1205 -0.0399  0.5605
19270TIP3    H179301   2.357   5.428   3.582 -0.0100  0.3050  0.7484
19270TIP3    H279302   2.376   5.291   3.642  0.9260  0.2237  0.2832
19271TIP3   OH279303   2.782   6.339   2.164  0.4519  0.0793  0.2384
19271TIP3    H179304   2.869   6.345   2.204  0.9538  1.2966 -0.9986
19271TIP3    H279305   2.722   6.361   2.235  1.3139  1.8946  0.4553
19272TIP3   OH279306   1.031   1.070  14.299 -0.4466  0.1552  0.5886
19272TIP3    H179307   0.994   0.997  14.350 -2.4504  1.6574  1.4282
19272TIP3    H279308   1.057   1.134  14.365  0.3948  0.6114 -0.1739
19273TIP3   OH279309   6.131   5.540   6.354  0.4199  0.1619 -0.0987
19273TIP3    H179310   6.082   5.538   6.272 -0.4159  0.0055  0.3889
19273TIP3    H279311   6.068   5.572   6.419  1.5988  2.1746  0.1438
19274TIP3   OH279312   3.939   6.849  11.301 -0.5772 -0.0553 -0.2247
19274TIP3    H179313   3.986   6.765  11.306 -0.2959  0.1481  2.7634
19274TIP3    H279314   3.905   6.861  11.390  0.8035  3.7910 -0.0672
19275TIP3   OH279315   4.871   4.216   2.425  0.1649 -0.7374 -0.5502
19275TIP3    H179316   4.862   4.174   2.511  0.2879 -0.2430 -0.2919
19275TIP3    H279317   4.875   4.143   2.363 -1.3773 -1.0845 -0.2825
19276TIP3   OH279318   6.001   2.677   0.544 -0.4072  0.1451  0.1662
19276TIP3    H179319   5.991   2.607   0.608  0.9774  0.0541  0.3263
19276TIP3    H279320   5.959   2.753   0.584 -0.2836 -0.1278  0.8241
19277TIP3   OH279321   2.434   6.778   4.854  0.5361 -0.4569  0.4384
19277TIP3    H179322   2.445   6.697   4.805  0.0684 -0.2969  0.0652
19277TIP3    H279323   2.397   6.840   4.791 -1.9624 -0.7905  1.4511
19278TIP3   OH279324   1.910   5.137  14.328 -0.0443  0.1592  0.5818
19278TIP3    H179325   1.850   5.145  14.403 -0.7905  1.4978 -0.0991
19278TIP3    H279326   1.852   5.121  14.253  0.5928 -0.1061  0.1370
19279TIP3   OH279327   5.371   3.175  12.290  0.0859  0.0036  0.2893
19279TIP3    H179328   5.347   3.245  12.230 -1.4789 -1.2154 -0.5992
19279TIP3    H279329   5.367   3.215  12.377  0.8204  1.3952 -0.2839
19280TIP3   OH279330   3.547   3.252  15.997  0.5540  0.2884  0.5921
19280TIP3    H179331   3.616   3.189  15.980 -2.0527 -3.4809  2.3839
19280TIP3    H279332   3.538   3.254  16.092  0.0937  3.0419  0.5980
19281TIP3   OH279333   4.139   3.735  15.839  0.3895  0.3900  0.4933
19281TIP3    H179334   4.131   3.748  15.745 -1.3118  1.0298  0.7032
19281TIP3    H279335   4.192   3.808  15.870 -0.9982  1.4903  0.3320
19282TIP3   OH279336   1.953   1.339  16.064  0.1364  0.0840  0.1703
19282TIP3    H179337   1.867   1.381  16.067 -0.0202 -0.2028 -0.2918
19282TIP3    H279338   1.950   1.273  16.133  0.5463  1.1194  1.2180
19283TIP3   OH279339   5.738   1.433  14.593  0.1188  0.0695 -0.7555
19283TIP3    H179340   5.689   1.515  14.603 -0.9341 -0.6493  0.2221
19283TIP3    H279341   5.685   1.381  14.533 -1.8088 -1.7124  2.2080
19284TIP3   OH279342   3.976   1.567   3.089  0.4433 -0.4897 -0.2103
19284TIP3    H179343   4.009   1.477   3.090 -0.6824 -0.9138 -0.1331
19284TIP3    H279344   3.944   1.580   3.000 -1.4319 -0.9442  0.3660
19285TIP3   OH279345   1.181   0.019  12.353 -0.4793  0.2293  0.2144
19285TIP3    H179346   1.183  -0.055  12.414 -0.2406  0.6825  0.7704
19285TIP3    H279347   1.114  -0.004  12.289  1.0643 -1.4860 -0.9267
19286TIP3   OH279348   4.931   2.196   0.127  0.4148 -0.2079  0.3935
19286TIP3    H179349   4.963   2.135   0.193  0.8845 -0.4426 -0.0479
19286TIP3    H279350   5.008   2.217   0.074  0.1045  0.2014  0.0952
19287TIP3   OH279351   2.455   6.279  17.049  0.3824 -0.1749 -0.1133
19287TIP3    H179352   2.517   6.210  17.072 -0.4377 -0.4928  1.2924
19287TIP3    H279353   2.494   6.359  17.084  0.6253 -0.1688 -0.4028
19288TIP3   OH279354   3.734   6.017  16.472  0.0583  0.5538  0.3961
19288TIP3    H179355   3.702   6.105  16.450 -0.3614  0.8283  1.9214
19288TIP3    H279356   3.688   5.959  16.412 -2.1168  1.0995  1.4186
19289TIP3   OH279357   5.012   1.349   2.547 -0.0070 -0.0091 -0.5975
19289TIP3    H179358   5.108   1.353   2.543  0.1660  0.4871  2.2181
19289TIP3    H279359   4.983   1.424   2.495  1.2290  1.2120  0.4083
19290TIP3   OH279360   1.057   5.192  11.946 -0.5166 -0.1100  0.1775
19290TIP3    H179361   1.005   5.179  12.026 -1.0199  0.6211 -0.0216
19290TIP3    H279362   1.066   5.104  11.910 -0.4634 -0.4202  0.9323
19291TIP3   OH279363   6.113   5.676   4.845  0.4481 -0.3797  0.3174
19291TIP3    H179364   6.042   5.627   4.885 -1.8863  0.0337 -2.9075
19291TIP3    H279365   6.192   5.646   4.891 -1.2724 -4.1822  1.1885
19292TIP3   OH279366   1.302   6.724  12.574  0.4201 -0.4206 -0.1290
19292TIP3    H179367   1.257   6.746  12.656 -0.2959 -0.3963 -0.5190
19292TIP3    H279368   1.252   6.650  12.539  1.7356 -1.5461  0.2889
19293TIP3   OH279369   6.049   3.504  14.058  0.1929  0.0545 -0.0211
19293TIP3    H179370   6.138   3.471  14.068  0.0374 -0.3614  0.0064
19293TIP3    H279371   6.045   3.581  14.116  0.7723  0.5579 -0.6222
19294TIP3   OH279372   1.979   1.169  13.678 -0.3384  0.1157 -0.2701
19294TIP3    H179373   2.072   1.175  13.659 -0.1738  0.0989  0.4816
19294TIP3    H279374   1.940   1.246  13.636 -0.2416 -0.7053 -1.9500
19295TIP3   OH279375   5.219   3.442   1.780  0.0132 -0.4409  0.3794
19295TIP3    H179376   5.172   3.471   1.702  0.2791  1.2801  0.8374
19295TIP3    H279377   5.249   3.522   1.822  1.6483 -1.4150  1.1672
19296TIP3   OH279378   1.695   3.473   0.964 -0.0019 -0.0551 -0.1839
19296TIP3    H179379   1.685   3.557   0.919 -0.1685  2.1798  3.6487
19296TIP3    H279380   1.616   3.464   1.016  0.8678 -1.6648  0.9504
19297TIP3   OH279381   4.789   3.690  15.717  0.3266  0.0371 -0.4888
19297TIP3    H179382   4.716   3.677  15.657  0.3997 -1.3926 -0.3214
19297TIP3    H279383   4.866   3.694  15.659  0.1950  0.8578 -0.6189
19298TIP3   OH279384   3.045   6.216  16.708 -0.0799 -0.2401  0.7247
19298TIP3    H179385   2.990   6.250  16.638 -0.3911 -0.5177  0.8367
19298TIP3    H279386   3.068   6.293  16.760 -1.3871 -0.2826  1.4042
19299TIP3   OH279387   6.401   3.317  14.654  0.0136  0.2176 -0.2931
19299TIP3    H179388   6.435   3.407  14.649 -0.1793  0.3075 -0.0490
19299TIP3    H279389   6.464   3.271  14.709 -0.3983  0.4566  0.3958
19300TIP3   OH279390   0.222   6.126  15.598 -0.2809  0.0404 -0.3065
19300TIP3    H179391   0.248   6.059  15.662  0.6623 -0.3298 -1.0549
19300TIP3    H279392   0.294   6.189  15.599 -0.6775  0.4989 -0.3718
19301TIP3   OH279393   1.363   0.212   3.548  0.1194 -0.6060  0.1974
19301TIP3    H179394   1.452   0.178   3.553  0.4204  0.2023  4.2579
19301TIP3    H279395   1.368   0.284   3.485  2.1195 -1.0850 -0.2585
19302TIP3   OH279396   1.453   4.635   3.406 -0.3476 -0.2744 -0.1881
19302TIP3    H179397   1.446   4.596   3.318 -0.7444 -0.6152 -0.0138
19302TIP3    H279398   1.519   4.582   3.450  0.6345  0.5679 -0.6184
19303TIP3   OH279399   3.490   4.701   2.129 -0.2853  0.2414  0.1058
19303TIP3    H179400   3.490   4.705   2.225  1.8882 -0.8218  0.2155
19303TIP3    H279401   3.478   4.791   2.101 -0.3974  0.6483  1.3820
19304TIP3   OH279402   2.930   1.633   3.211 -0.0733  0.1268  0.2583
19304TIP3    H179403   2.851   1.630   3.264 -0.3658  2.5041  0.0501
19304TIP3    H279404   2.899   1.632   3.120  0.2490 -0.7149  0.1473
19305TIP3   OH279405   3.778   1.725   2.337 -0.2869 -0.2506  0.1978
19305TIP3    H179406   3.859   1.699   2.293 -0.1154  1.1717 -0.3765
19305TIP3    H279407   3.714   1.733   2.266 -0.8297 -0.9328  0.5937
19306TIP3   OH279408   2.656   2.808   0.753  0.0829 -0.8504 -0.0123
19306TIP3    H179409   2.636   2.894   0.718  1.5527  0.0193  1.1535
19306TIP3    H279410   2.662   2.751   0.676  2.7707  0.8961 -1.2414
19307TIP3   OH279411   6.349   3.528  13.408  0.0691 -0.3844 -0.7374
19307TIP3    H179412   6.390   3.564  13.329 -0.2787 -0.3152 -0.8877
19307TIP3    H279413   6.284   3.594  13.433  0.0723 -0.4776 -0.4795
19308TIP3   OH279414   1.597   5.994   1.036 -0.7524  0.8240 -0.2088
19308TIP3    H179415   1.616   5.993   1.130  1.0806  1.8022 -0.5280
19308TIP3    H279416   1.503   5.977   1.031 -1.0002  1.3093  1.8236
19309TIP3   OH279417   3.617   3.511   3.811 -0.1883  0.2469 -0.6986
19309TIP3    H179418   3.586   3.518   3.721 -0.8741  2.7343 -0.3465
19309TIP3    H279419   3.541   3.480   3.860  0.8502 -3.7245 -1.1857
19310TIP3   OH279420   4.801   5.648   1.813  0.3638 -0.0359  0.2103
19310TIP3    H179421   4.865   5.596   1.862 -1.8587 -2.0630  1.1966
19310TIP3    H279422   4.730   5.586   1.793 -1.9404  2.3268  0.4470
19311TIP3   OH279423   2.035   6.033  13.120  0.0479  0.5170  0.9438
19311TIP3    H179424   2.127   6.056  13.121  0.0904  0.4090  2.6686
19311TIP3    H279425   2.031   5.953  13.067  0.7601  1.0936 -0.0196
19312TIP3   OH279426   3.842   6.241   5.682 -0.1786  0.4659 -0.2459
19312TIP3    H179427   3.747   6.231   5.682 -0.1434  0.1491 -0.5000
19312TIP3    H279428   3.869   6.222   5.592  0.2611 -0.7612  0.1254
19313TIP3   OH279429   1.330   0.838  13.970  0.4857  0.3012  0.2156
19313TIP3    H179430   1.249   0.876  14.002  0.3656  0.5613 -0.3764
19313TIP3    H279431   1.369   0.796  14.046  0.7920  1.8879  0.9625
19314TIP3   OH279432   3.039   5.689   2.857  0.0712 -0.1785  0.6416
19314TIP3    H179433   2.967   5.749   2.837  1.0613  0.8780  0.1632
19314TIP3    H279434   3.050   5.695   2.952 -0.2180 -0.0690  0.6691
19315TIP3   OH279435   6.678   1.088   4.622  0.5766 -0.3892 -0.1055
19315TIP3    H179436   6.585   1.080   4.643  0.7592 -1.9457  0.2045
19315TIP3    H279437   6.680   1.133   4.538 -0.4434 -0.0493  0.0466
19316TIP3   OH279438   0.358   3.969  12.575  0.5066 -0.2257  0.3583
19316TIP3    H179439   0.413   4.008  12.507  1.3010  0.8010  1.5449
19316TIP3    H279440   0.380   4.018  12.655  0.9821 -2.5739  1.7738
19317TIP3   OH279441   6.273   2.581   5.971 -0.5032 -0.1973  0.4076
19317TIP3    H179442   6.254   2.649   6.035 -0.2770  0.3312 -0.0827
19317TIP3    H279443   6.313   2.510   6.022 -0.2005  0.2704  0.8254
19318TIP3   OH279444   0.851   4.964  12.300 -0.3233 -0.8437 -0.4108
19318TIP3    H179445   0.883   4.908  12.229  1.7913 -0.8284  0.4842
19318TIP3    H279446   0.834   4.904  12.372 -0.7789 -0.6334 -0.3351
19319TIP3   OH279447   0.759   2.995   4.125  0.1311 -0.4577 -0.3525
19319TIP3    H179448   0.849   2.993   4.094  0.4608  0.8409  0.4206
19319TIP3    H279449   0.742   2.906   4.155  1.5166 -0.4965  0.4083
19320TIP3   OH279450   1.497   4.431   3.217  0.2876 -0.6393  0.6993
19320TIP3    H179451   1.568   4.388   3.265  0.2631  0.6706  1.9487
19320TIP3    H279452   1.515   4.410   3.125  2.7246  0.2521  0.8968
19321TIP3   OH279453   1.494   6.164  14.380 -0.0763  0.3785 -0.0159
19321TIP3    H179454   1.572   6.220  14.380 -0.3701  0.7952  0.3536
19321TIP3    H279455   1.500   6.117  14.463 -1.5556  2.3383  1.3061
19322TIP3   OH279456   2.557   4.858  14.274 -0.5441 -0.2288  0.7326
19322TIP3    H179457   2.561   4.796  14.201 -0.3117 -0.0052  0.5586
19322TIP3    H279458   2.630   4.917  14.260  0.1905 -0.8718  1.7651
19323TIP3   OH279459   5.911   4.393   5.755 -0.0972  0.0367  0.2184
19323TIP3    H179460   5.838   4.400   5.816  1.3961  0.5172  2.0749
19323TIP3    H279461   5.955   4.312   5.779  0.4085  0.1241 -0.3761
19324TIP3   OH279462   1.059   3.019   4.221  0.7193  0.7238  0.2708
19324TIP3    H179463   1.089   3.053   4.136  0.6717 -0.8179 -0.4064
19324TIP3    H279464   1.062   3.095   4.280  2.7619  1.3839 -0.5853
19325TIP3   OH279465   0.305   6.192   5.294  0.1679 -0.2038  0.4493
19325TIP3    H179466   0.340   6.279   5.275  0.0173  0.0311  1.2179
19325TIP3    H279467   0.236   6.207   5.358 -2.6909 -0.4497 -2.3497
19326TIP3   OH279468   4.008   6.059  16.387  0.4879 -0.1961 -0.4138
19326TIP3    H179469   3.932   6.023  16.432 -0.0631  1.2966 -0.1237
19326TIP3    H279470   3.977   6.139  16.346  2.2691  1.3517  1.0854
19327TIP3   OH279471   6.053   3.655   3.272 -0.1639  0.3445 -0.2084
19327TIP3    H179472   6.032   3.640   3.364 -1.5042  0.9813 -0.3810
19327TIP3    H279473   6.091   3.743   3.270  1.1525 -0.2000 -0.1063
19328TIP3   OH279474   6.328   5.387  12.243 -0.5493 -0.4961 -0.1806
19328TIP3    H179475   6.271   5.349  12.176  1.4960  0.8738 -2.8812
19328TIP3    H279476   6.417   5.369  12.212  0.4876  1.9617  1.0902
19329TIP3   OH279477   5.090   3.775  15.532  0.1422  0.4940 -0.1050
19329TIP3    H179478   5.009   3.810  15.496 -0.3835  0.2848  0.8603
19329TIP3    H279479   5.103   3.822  15.614  1.0332  0.5620 -0.2681
19330TIP3   OH279480   1.285   2.792  16.516 -0.4183  0.4339 -0.1512
19330TIP3    H179481   1.259   2.734  16.588 -1.4566 -2.3124 -2.5362
19330TIP3    H279482   1.370   2.758  16.487 -0.5828  0.6951 -0.9779
19331TIP3   OH279483   2.051   1.686  14.794  0.1219  0.8073  0.0803
19331TIP3    H179484   2.129   1.706  14.846 -0.1446 -1.0447  1.2840
19331TIP3    H279485   2.080   1.619  14.732 -0.3062  0.7391 -0.0513
19332TIP3   OH279486   0.789   1.789  16.824 -0.3843 -0.1258  0.1079
19332TIP3    H179487   0.694   1.801  16.828 -0.4415  0.1342 -1.4810
19332TIP3    H279488   0.817   1.841  16.749  1.0392 -0.1046  0.6220
19333TIP3   OH279489   2.979   0.261  15.621  0.2806  0.0507  0.0915
19333TIP3    H179490   3.006   0.169  15.614  0.7619  0.2374 -0.6497
19333TIP3    H279491   2.908   0.260  15.685  0.3074 -0.8343  0.1273
19334TIP3   OH279492   0.166   6.284   3.106 -0.2096  0.0618  0.3490
19334TIP3    H179493   0.186   6.354   3.044  0.7738 -0.8351 -0.3907
19334TIP3    H279494   0.223   6.301   3.180  0.0386  0.0454  0.1642
19335TIP3   OH279495   4.013   1.641   0.142 -0.0091  0.0918  0.0608
19335TIP3    H179496   3.945   1.697   0.103  0.9530  1.4184  0.2351
19335TIP3    H279497   4.031   1.680   0.227  0.0154 -1.0585  0.5989
19336TIP3   OH279498   3.628   0.051   5.401 -0.2444 -0.6198  0.3072
19336TIP3    H179499   3.549   0.104   5.389 -0.1255 -0.3981  0.5007
19336TIP3    H279500   3.652   0.065   5.492 -0.0590 -0.7976  0.2848
19337TIP3   OH279501   4.568   2.018   4.312  0.5416  0.1868  0.0111
19337TIP3    H179502   4.486   2.040   4.357 -0.2752  0.3958 -1.4848
19337TIP3    H279503   4.621   2.098   4.319  0.1089  0.4873 -0.0638
19338TIP3   OH279504   6.170   2.710  15.700 -0.1039 -0.1525 -0.2897
19338TIP3    H179505   6.245   2.660  15.668  1.6973  1.6518  0.8686
19338TIP3    H279506   6.207   2.773  15.762 -2.9500 -1.0292  2.5664
19339TIP3   OH279507   2.950   6.014  16.109  0.0623 -0.8281  0.1793
19339TIP3    H179508   2.864   6.043  16.080  0.5938 -0.5406 -1.2404
19339TIP3    H279509   2.955   5.923  16.081  0.2267 -0.8373  0.2380
19340TIP3   OH279510   5.132   6.300   1.381 -0.1199 -0.3775 -0.1370
19340TIP3    H179511   5.050   6.261   1.352  0.2514 -0.5220 -1.0148
19340TIP3    H279512   5.116   6.394   1.378  0.3353 -0.3117 -2.2184
19341TIP3   OH279513   0.364   5.908   0.022 -0.0666  0.5493 -0.3442
19341TIP3    H179514   0.456   5.883   0.017  0.0393  1.0033 -0.6731
19341TIP3    H279515   0.364   5.993   0.066 -0.3690  0.3280  0.0952
19342TIP3   OH279516   0.265   3.357  13.845 -0.2617  0.6378  0.1198
19342TIP3    H179517   0.245   3.269  13.816  0.4660  0.7780 -0.8672
19342TIP3    H279518   0.314   3.345  13.927 -2.0531  0.2297  1.1910
19343TIP3   OH279519   2.623   5.602  16.073 -0.4368 -0.4140  0.0761
19343TIP3    H179520   2.587   5.601  16.162 -1.0734 -1.6414 -0.1804
19343TIP3    H279521   2.547   5.621  16.017 -0.1613 -0.3123 -0.2661
19344TIP3   OH279522   2.494   1.596  11.074  0.2589 -0.3357  0.0896
19344TIP3    H179523   2.425   1.616  11.011  2.0376 -0.5401 -2.0224
19344TIP3    H279524   2.448   1.553  11.147 -1.8138 -0.4747 -1.2166
19345TIP3   OH279525   6.595   4.240  13.588 -0.3100 -0.4595 -0.2281
19345TIP3    H179526   6.679   4.257  13.632  0.1478  0.8581 -1.5339
19345TIP3    H279527   6.612   4.161  13.536  0.1521 -0.1830 -0.5132
19346TIP3   OH279528   1.391   2.539   0.041  0.0657  0.1839 -0.2469
19346TIP3    H179529   1.356   2.514  -0.044 -3.8134 -0.0460  1.2279
19346TIP3    H279530   1.350   2.623   0.060  0.8351  0.2262  1.3959
19347TIP3   OH279531   4.711   2.946  11.560  0.2789  0.2434 -0.0010
19347TIP3    H179532   4.661   2.877  11.604  0.9000 -0.3529 -0.2168
19347TIP3    H279533   4.777   2.899  11.509  0.0540  0.9519 -0.9806
19348TIP3   OH279534   1.432   1.580  11.721  0.8130  0.0968 -0.2444
19348TIP3    H179535   1.447   1.659  11.670  1.3688 -0.3952 -0.8548
19348TIP3    H279536   1.469   1.599  11.807 -0.9182  1.2602  0.3026
19349TIP3   OH279537   0.449   0.138   3.991 -0.0334 -0.1329 -0.2601
19349TIP3    H179538   0.518   0.200   4.014  1.2544 -1.8370  0.7424
19349TIP3    H279539   0.371   0.192   3.980  1.0603  1.6757  0.3416
19350TIP3   OH279540   4.713   2.597  16.042 -0.3979  0.1411  0.0519
19350TIP3    H179541   4.726   2.692  16.049  2.1844 -0.2569  3.0969
19350TIP3    H279542   4.643   2.578  16.105 -0.7877  0.0082 -0.4218
19351TIP3   OH279543   1.332   3.567   0.084  0.1511  0.3700 -0.3743
19351TIP3    H179544   1.397   3.571   0.154  0.4133  0.1280 -0.6049
19351TIP3    H279545   1.306   3.475   0.082 -0.8501  0.6159  0.3122
19352TIP3   OH279546   4.175   6.455  12.813 -0.5238 -0.1395  0.0890
19352TIP3    H179547   4.211   6.474  12.726  0.5767 -0.8914  0.3445
19352TIP3    H279548   4.210   6.368  12.834  0.7301  0.7540  2.0211
19353TIP3   OH279549   5.262   3.426  16.612  1.3478 -0.1492  0.1059
19353TIP3    H179550   5.219   3.404  16.530  0.0701  0.1716  0.6559
19353TIP3    H279551   5.267   3.522  16.612  0.5961 -0.0950  0.7372
19354TIP3   OH279552   3.088   4.773  15.198  0.1028 -0.1121 -0.0890
19354TIP3    H179553   3.113   4.864  15.187 -0.4700  0.2886  1.6110
19354TIP3    H279554   3.088   4.759  15.293  3.4457 -2.8180 -0.2511
19355TIP3   OH279555   6.438   3.860   1.716 -0.0559  0.3528 -0.8742
19355TIP3    H179556   6.397   3.856   1.629 -0.5927 -0.2231 -0.6018
19355TIP3    H279557   6.390   3.796   1.768  2.3083 -1.6808 -0.9959
19356TIP3   OH279558   3.676   3.994  13.716  0.5229 -0.1707 -0.0061
19356TIP3    H179559   3.654   4.024  13.804  1.3198 -1.0305  0.5008
19356TIP3    H279560   3.682   4.075  13.664  1.1997  0.4398  0.9898
19357TIP3   OH279561   0.122   5.099   6.231  0.7748 -0.0894 -0.4775
19357TIP3    H179562   0.172   5.103   6.312 -0.3053 -0.3507  0.2260
19357TIP3    H279563   0.067   5.021   6.240 -0.3852  0.6594 -0.8259
19358TIP3   OH279564   6.370   0.903  13.136 -0.2846 -0.4222  0.2310
19358TIP3    H179565   6.425   0.897  13.058  2.0437  1.0965  1.6447
19358TIP3    H279566   6.427   0.875  13.208 -1.4639  0.8853  1.7373
19359TIP3   OH279567   5.945   4.788   5.366 -0.0704 -0.0298 -0.8395
19359TIP3    H179568   5.912   4.877   5.377  0.5162  0.2520 -1.3110
19359TIP3    H279569   5.883   4.746   5.306 -1.1507 -0.3960  0.4915
19360TIP3   OH279570   0.541   6.400  13.466 -0.1420 -0.1915  0.5543
19360TIP3    H179571   0.474   6.462  13.438 -0.8454 -1.3043 -0.2978
19360TIP3    H279572   0.590   6.447  13.534 -1.7822  0.6442  1.2166
19361TIP3   OH279573   5.017   2.041   4.763 -0.4457 -0.2037  0.0984
19361TIP3    H179574   5.072   2.082   4.696 -2.1374  0.3352 -1.0485
19361TIP3    H279575   5.044   2.080   4.845 -0.2591  1.3152 -0.6544
19362TIP3   OH279576   6.578   2.123  16.776  0.3609 -0.0813 -0.6017
19362TIP3    H179577   6.622   2.038  16.771  0.9325  0.1497  0.2447
19362TIP3    H279578   6.634   2.175  16.834 -0.5341  0.5333 -0.2740
19363TIP3   OH279579   0.969   6.034  11.862 -0.4923 -0.4773 -0.5425
19363TIP3    H179580   0.958   5.940  11.850 -0.7710 -0.3404 -1.3966
19363TIP3    H279581   1.061   6.050  11.842 -0.4584 -0.5560 -0.4523
19364TIP3   OH279582   6.206   2.218  16.499 -0.2941 -0.0083  0.5391
19364TIP3    H179583   6.296   2.224  16.531  0.6254  0.0727 -1.8834
19364TIP3    H279584   6.190   2.125  16.487 -0.6537 -0.0420  1.2274
19365TIP3   OH279585   4.177   6.502  16.828  0.1170  0.0209  0.3060
19365TIP3    H179586   4.153   6.592  16.809  1.6495  0.5756  0.8166
19365TIP3    H279587   4.154   6.453  16.749 -1.0099  0.7788  0.1382
19366TIP3   OH279588   5.226   5.927   4.337  0.4470  0.2004 -0.2015
19366TIP3    H179589   5.287   6.000   4.349  0.4453  0.4035 -1.3070
19366TIP3    H279590   5.144   5.968   4.311  0.0229 -0.1132  0.6241
19367TIP3   OH279591   6.751   5.630  13.772  0.0889  0.2746 -0.2704
19367TIP3    H179592   6.670   5.622  13.721 -0.0716 -0.3586  0.0701
19367TIP3    H279593   6.739   5.710  13.824  1.1574  2.2027 -2.7674
19368TIP3   OH279594   6.574   0.355  12.344 -0.0136 -0.4980  0.5293
19368TIP3    H179595   6.630   0.391  12.413  0.2937 -1.0013  0.5431
19368TIP3    H279596   6.620   0.278  12.313  0.5849  0.5007 -1.2440
19369TIP3   OH279597   0.230   1.955   4.653  0.1623 -0.3054 -0.4579
19369TIP3    H179598   0.317   1.923   4.632  0.9746  1.3378  0.2153
19369TIP3    H279599   0.195   1.892   4.715  0.6087 -1.3082 -1.1990
19370TIP3   OH279600   5.525   4.102   0.449  0.0558  0.3552  0.3813
19370TIP3    H179601   5.592   4.069   0.509 -0.9476  0.0330  1.3629
19370TIP3    H279602   5.442   4.078   0.490 -0.6990 -1.0380 -1.7954
19371TIP3   OH279603   1.871   2.637  15.590 -0.8504  0.2060  0.2753
19371TIP3    H179604   1.832   2.633  15.503  0.7438 -1.7993 -0.4235
19371TIP3    H279605   1.827   2.569  15.641  0.5497 -1.0094 -0.0593
19372TIP3   OH279606   4.610   0.663  11.076  0.3866 -0.4706  1.2647
19372TIP3    H179607   4.593   0.570  11.056  0.2178 -0.3652  0.9072
19372TIP3    H279608   4.586   0.709  10.996 -1.4469  0.0972  2.0649
19373TIP3   OH279609   3.734   4.964   0.413  0.3408  0.0509 -0.3112
19373TIP3    H179610   3.784   5.028   0.363  0.7376 -2.1313 -2.9091
19373TIP3    H279611   3.799   4.921   0.468  0.2794  0.9680  0.5151
19374TIP3   OH279612   4.154   5.302   2.740 -0.0355 -0.4880  0.5248
19374TIP3    H179613   4.181   5.371   2.679 -1.1450  0.1177  0.6989
19374TIP3    H279614   4.059   5.308   2.742 -0.0454 -0.8934  1.8810
19375TIP3   OH279615   5.767   1.885  13.566 -0.4676  0.1652 -0.3155
19375TIP3    H179616   5.713   1.897  13.488 -0.2864 -0.1346 -0.4899
19375TIP3    H279617   5.713   1.916  13.639 -0.6894  0.3131 -0.5453
19376TIP3   OH279618   2.264   2.422   4.939 -0.3854  0.0750  0.0556
19376TIP3    H179619   2.333   2.401   4.876  0.0041  2.4149 -0.4172
19376TIP3    H279620   2.298   2.390   5.023 -0.0417 -1.3517 -0.5963
19377TIP3   OH279621   0.557   5.833  11.128  0.0486 -0.1971  0.4446
19377TIP3    H179622   0.615   5.850  11.054  1.1539 -1.1275  1.0625
19377TIP3    H279623   0.612   5.789  11.192 -0.6937  1.1760  2.1212
19378TIP3   OH279624   2.345   4.898  12.185  0.4559 -0.3497  0.6112
19378TIP3    H179625   2.434   4.922  12.212  1.1535 -1.6089 -0.4536
19378TIP3    H279626   2.288   4.948  12.243  1.8239  2.1407 -0.0696
19379TIP3   OH279627   5.986   5.882   1.767 -0.0541  0.3182 -0.7887
19379TIP3    H179628   5.893   5.900   1.785 -0.2081  0.2701 -1.5226
19379TIP3    H279629   5.990   5.872   1.672  0.8123  0.9398 -0.8249
19380TIP3   OH279630   6.468   5.643  13.887 -0.0517 -0.1907 -0.1990
19380TIP3    H179631   6.442   5.735  13.887 -0.3998 -0.2804  0.4227
19380TIP3    H279632   6.473   5.619  13.795 -0.5399  0.2875 -0.3554
19381TIP3   OH279633   5.374   3.693   0.050 -0.5585 -0.1801 -0.1305
19381TIP3    H179634   5.315   3.650   0.112 -0.6850 -0.1103 -0.2006
19381TIP3    H279635   5.315   3.737  -0.012 -0.4302  0.8949  0.4882
19382TIP3   OH279636   5.324   6.187  16.708 -0.4161 -0.0697 -0.0405
19382TIP3    H179637   5.283   6.101  16.696 -3.2837  1.0667  0.7578
19382TIP3    H279638   5.332   6.223  16.620 -1.9967 -0.0184 -0.1917
19383TIP3   OH279639   5.208   1.122   5.799  0.0338 -0.2935 -0.3612
19383TIP3    H179640   5.133   1.141   5.856 -0.7519 -0.4017 -1.3226
19383TIP3    H279641   5.266   1.069   5.853 -0.3220  0.2548  0.5882
19384TIP3   OH279642   1.450   4.870   3.739  0.4302 -0.5624  0.3372
19384TIP3    H179643   1.405   4.840   3.660  0.3085 -0.9982  0.5707
19384TIP3    H279644   1.406   4.952   3.762  0.5391 -0.3813 -0.1115
19385TIP3   OH279645   5.666   2.188   0.570 -0.5790 -0.1056  0.1887
19385TIP3    H179646   5.712   2.137   0.503  0.3187 -1.6457  1.8882
19385TIP3    H279647   5.633   2.264   0.523  2.2129  0.2139 -1.5178
19386TIP3   OH279648   2.115   5.335  10.679  0.5670 -0.0862 -0.1064
19386TIP3    H179649   2.044   5.272  10.685  1.1203 -0.6583  0.6598
19386TIP3    H279650   2.073   5.420  10.690  0.0594 -0.4530  0.9083
19387TIP3   OH279651   1.076   5.179   5.940  0.0869  0.1461  0.2870
19387TIP3    H179652   1.103   5.101   5.988 -1.6944 -0.8460 -0.1960
19387TIP3    H279653   0.984   5.192   5.966 -0.0108  1.3521 -0.5619
19388TIP3   OH279654   1.095   3.621  16.745  0.0338  0.4316 -0.5556
19388TIP3    H179655   1.031   3.689  16.723  1.1586  1.3079 -1.2113
19388TIP3    H279656   1.173   3.645  16.696  0.2764 -1.6836 -1.2835
19389TIP3   OH279657   3.497   4.879   5.776 -0.0685  0.7261 -0.3753
19389TIP3    H179658   3.571   4.901   5.719  2.0601 -2.7760  0.7389
19389TIP3    H279659   3.516   4.924   5.858  2.7953 -2.4421  0.9798
19390TIP3   OH279660   6.545   3.832  15.675 -0.1407 -0.0195  0.0335
19390TIP3    H179661   6.610   3.872  15.616 -0.8829 -1.6005 -1.9877
19390TIP3    H279662   6.598   3.786  15.740  0.7230  1.1668  0.2066
19391TIP3   OH279663   2.582   3.052  11.585 -0.6014  0.1868 -0.2335
19391TIP3    H179664   2.543   3.035  11.671 -0.8022 -0.0093 -0.3642
19391TIP3    H279665   2.519   3.018  11.522  0.0424 -0.6711 -0.4318
19392TIP3   OH279666   2.653   6.238   3.594  0.2490  0.6209 -0.9037
19392TIP3    H179667   2.648   6.145   3.615  0.3845  0.4078 -1.7927
19392TIP3    H279668   2.603   6.281   3.663 -1.8841 -0.3043 -1.8053
19393TIP3   OH279669   6.719   0.141   4.041 -0.3712 -0.7621 -0.4084
19393TIP3    H179670   6.706   0.141   4.136  2.1660  1.1147  0.0288
19393TIP3    H279671   6.669   0.217   4.010 -1.0219 -1.2472 -0.5632
19394TIP3   OH279672   0.235   2.742  10.818 -0.0086 -0.0302  0.7584
19394TIP3    H179673   0.157   2.788  10.848 -0.1103  0.8985 -0.8243
19394TIP3    H279674   0.243   2.766  10.726  0.3637 -2.6050  0.0453
19395TIP3   OH279675   4.296   6.311   0.626 -0.0125  0.3313 -0.6525
19395TIP3    H179676   4.304   6.220   0.598  0.7473  0.1084  0.2375
19395TIP3    H279677   4.226   6.310   0.691  1.7700 -0.1507  1.3696
19396TIP3   OH279678   1.210   1.058  10.732  0.3849  0.4907  0.2200
19396TIP3    H179679   1.153   0.998  10.779 -0.2123  1.9087  1.3943
19396TIP3    H279680   1.152   1.129  10.704  1.1554  0.7855 -0.6843
19397TIP3   OH279681   5.501   2.056   5.423  0.0511 -0.4130  0.0672
19397TIP3    H179682   5.474   2.014   5.341 -0.5488 -0.4119  0.2630
19397TIP3    H279683   5.421   2.097   5.456  0.8657  2.1461 -0.8539
19398TIP3   OH279684   2.130   5.067  13.948 -0.3058  0.1517  0.1432
19398TIP3    H179685   2.041   5.086  13.979 -0.2475 -1.7808  1.7800
19398TIP3    H279686   2.184   5.135  13.987 -0.6755 -0.5049  1.9077
19399TIP3   OH279687   5.338   0.388  17.091  0.3397 -0.1330  0.1738
19399TIP3    H179688   5.321   0.304  17.049 -1.2138 -0.3236  1.0821
19399TIP3    H279689   5.404   0.369  17.157 -0.4563 -0.8165  0.8056
19400TIP3   OH279690   4.572   6.462   0.836 -0.5485 -0.9404  0.1608
19400TIP3    H179691   4.625   6.383   0.843 -0.1910 -0.6619  0.8009
19400TIP3    H279692   4.536   6.460   0.748  2.3534 -0.0140 -1.1940
19401TIP3   OH279693   3.180   6.201   3.559 -0.6911 -0.6080  0.9473
19401TIP3    H179694   3.163   6.294   3.547  2.4323 -0.0519  0.0740
19401TIP3    H279695   3.275   6.193   3.559 -0.8404 -3.8517  0.8230
19402TIP3   OH279696   2.490   5.866  13.121 -0.0778  0.1486 -0.4552
19402TIP3    H179697   2.402   5.897  13.099 -1.2335 -2.1989  0.5855
19402TIP3    H279698   2.484   5.771  13.115  1.4763 -0.2741  2.8107
19403TIP3   OH279699   2.358   3.010  16.907  0.0241 -0.1291  0.1265
19403TIP3    H179700   2.366   2.998  17.002 -1.3901  0.6181  0.3533
19403TIP3    H279701   2.274   3.053  16.894  0.8289  1.0996 -1.3704
19404TIP3   OH279702   5.718   0.337  11.453 -0.3744  0.2922 -0.2603
19404TIP3    H179703   5.804   0.346  11.493 -0.0686  0.0700 -0.8617
19404TIP3    H279704   5.657   0.374  11.518  0.1470  0.2693  0.2464
19405TIP3   OH279705   3.505   4.476  15.346  0.2235 -0.5269 -0.5733
19405TIP3    H179706   3.540   4.437  15.265 -3.0918 -0.9970 -1.9359
19405TIP3    H279707   3.510   4.570  15.331  0.0333 -0.6064 -1.1872
19406TIP3   OH279708   2.462   2.771  15.342 -0.5848  0.4642  0.4662
19406TIP3    H179709   2.546   2.785  15.385 -0.4364 -1.3104  0.8657
19406TIP3    H279710   2.397   2.806  15.403 -0.1647  1.9681  0.0957
19407TIP3   OH279711   3.341   0.906  13.251 -0.1016  0.2148  0.0207
19407TIP3    H179712   3.419   0.940  13.208  0.9891  0.2146  1.8831
19407TIP3    H279713   3.368   0.822  13.288 -0.4467  0.9385  2.0709
19408TIP3   OH279714   2.760   5.511  13.086 -0.6487  0.1808  0.4479
19408TIP3    H179715   2.795   5.444  13.143 -0.9320 -0.1783  0.2002
19408TIP3    H279716   2.758   5.590  13.140  1.4510  0.4691  0.2106
19409TIP3   OH279717   1.027   5.671  12.377 -0.2429  0.4616  0.7524
19409TIP3    H179718   0.944   5.630  12.350 -1.1086  1.9766  1.0116
19409TIP3    H279719   1.023   5.674  12.472  0.9654 -1.0928  0.9066
19410TIP3   OH279720   1.806   5.891  15.292 -0.5872 -0.3188  0.1866
19410TIP3    H179721   1.834   5.944  15.218 -0.0669  1.3658  1.5345
19410TIP3    H279722   1.715   5.869  15.272 -0.4392  0.0611 -0.9698
19411TIP3   OH279723   0.383   6.832  14.158 -0.5691  0.1730  0.2754
19411TIP3    H179724   0.394   6.891  14.084  0.4757  0.9029  0.9917
19411TIP3    H279725   0.429   6.752  14.132 -0.4108  0.3398  0.0442
19412TIP3   OH279726   5.671   0.534   4.542 -0.1386 -0.1302  0.1575
19412TIP3    H179727   5.758   0.515   4.506  0.0923  0.2437  0.5114
19412TIP3    H279728   5.686   0.604   4.606 -0.9429  1.1925 -1.0281
19413TIP3   OH279729   2.837   6.629   2.482  0.0610  0.2252 -0.5148
19413TIP3    H179730   2.876   6.708   2.446 -0.6426  0.2458 -1.2574
19413TIP3    H279731   2.862   6.560   2.420 -0.6194  0.1473 -0.7068
19414TIP3   OH279732   2.548   4.216  12.563 -0.3792  0.2020  0.1301
19414TIP3    H179733   2.493   4.228  12.486  1.4123  0.4084 -1.1793
19414TIP3    H279734   2.491   4.239  12.637 -1.3231  2.8391 -1.2841
19415TIP3   OH279735   2.814   4.725  11.020  0.1879  0.0450  0.7229
19415TIP3    H179736   2.738   4.674  11.049  2.5173 -3.0742  2.0042
19415TIP3    H279737   2.792   4.756  10.933 -3.3013  1.1731  1.8492
19416TIP3   OH279738   2.769   5.568   1.011  0.1592 -0.1026 -0.3316
19416TIP3    H179739   2.842   5.628   0.993  0.6960 -0.8095 -0.5720
19416TIP3    H279740   2.784   5.539   1.101 -0.6416  0.8460  0.1269
19417TIP3   OH279741   0.149   6.243   1.339  0.0937  0.5437  0.1915
19417TIP3    H179742   0.068   6.208   1.377 -0.7653  0.9808 -1.1478
19417TIP3    H279743   0.190   6.167   1.297  0.5653  0.2563  1.1359
19418TIP3   OH279744   5.031   4.535  15.989 -0.3176  0.2873 -0.6055
19418TIP3    H179745   5.106   4.594  15.997  0.0823 -0.4154  1.1822
19418TIP3    H279746   5.011   4.508  16.078 -2.7860  0.5073 -1.0035
19419TIP3   OH279747   5.128   5.329  14.114 -0.1236  0.1526 -0.1325
19419TIP3    H179748   5.136   5.318  14.019  1.9622  1.4345 -0.1848
19419TIP3    H279749   5.188   5.263  14.150  0.0263  0.4786  0.2210
19420TIP3   OH279750   4.951   1.700   1.782  0.4239  0.0764 -0.1636
19420TIP3    H179751   4.923   1.731   1.868  1.3866 -0.8186  0.4859
19420TIP3    H279752   4.869   1.672   1.740  0.0793 -0.6683  0.9504
19421TIP3   OH279753   5.466   3.515   3.133  0.7319 -0.4497 -0.0951
19421TIP3    H179754   5.444   3.553   3.218 -0.2964  0.8519 -0.9047
19421TIP3    H279755   5.543   3.461   3.151  1.0750  0.4837  1.4988
19422TIP3   OH279756   3.157   2.406  11.580  0.2475 -0.0690 -0.6801
19422TIP3    H179757   3.205   2.411  11.662 -1.5622  1.6486  0.3949
19422TIP3    H279758   3.143   2.498  11.555 -2.2033 -0.4558 -1.0071
19423TIP3   OH279759   5.019   0.873  11.891 -0.2872 -0.5104  0.1713
19423TIP3    H179760   5.050   0.897  11.804 -1.6121  3.9844  0.7252
19423TIP3    H279761   4.945   0.813  11.873 -1.1470  1.0342 -1.9000
19424TIP3   OH279762   0.267   0.221   6.824  0.5195 -0.0704 -0.4410
19424TIP3    H179763   0.200   0.286   6.847  0.1235  0.0755 -1.8927
19424TIP3    H279764   0.234   0.139   6.861  0.8470  0.4632  1.1000
19425TIP3   OH279765   3.491   1.569   2.369  0.5648  0.0229 -0.6452
19425TIP3    H179766   3.521   1.593   2.457 -0.3180 -1.8690  0.2371
19425TIP3    H279767   3.425   1.635   2.347 -1.7081 -1.3480  1.6256
19426TIP3   OH279768   0.176   1.467  11.377 -0.3135 -0.1560 -0.1124
19426TIP3    H179769   0.213   1.512  11.453  0.1827 -1.0930  0.2115
19426TIP3    H279770   0.213   1.379  11.380  0.1511 -0.0509 -1.7505
19427TIP3   OH279771   2.108   2.062  16.637 -0.2342  0.1986 -0.4339
19427TIP3    H179772   2.060   2.031  16.560 -0.5970 -2.7730  0.8671
19427TIP3    H279773   2.196   2.025  16.626 -0.3130 -0.3156  0.5969
19428TIP3   OH279774   0.395   0.517  13.467 -0.2906  0.0206 -0.1750
19428TIP3    H179775   0.313   0.555  13.498  1.4063  2.9500  1.0893
19428TIP3    H279776   0.385   0.423  13.482 -2.8079  0.4669  1.4238
19429TIP3   OH279777   3.139   5.656  15.751 -0.0890 -0.5799 -0.0425
19429TIP3    H179778   3.056   5.636  15.794 -0.8885 -2.4787 -2.2500
19429TIP3    H279779   3.115   5.705  15.673  0.9940 -0.1055 -0.1040
19430TIP3   OH279780   4.814   5.237  14.692 -0.5325  0.2431  0.2001
19430TIP3    H179781   4.894   5.290  14.687 -0.8213  0.5729 -1.5261
19430TIP3    H279782   4.750   5.285  14.640 -0.4829 -2.3055 -2.4400
19431TIP3   OH279783   1.573   0.279  15.841 -0.8753  0.6981 -1.1684
19431TIP3    H179784   1.516   0.260  15.766  0.6697 -0.4449 -2.0967
19431TIP3    H279785   1.606   0.367  15.823 -1.6949  1.0499 -1.0239
19432TIP3   OH279786   5.791   4.667   1.990 -0.0141 -0.1415  0.2529
19432TIP3    H179787   5.880   4.643   1.967  0.4296  1.8570 -0.2978
19432TIP3    H279788   5.798   4.706   2.077 -0.6891 -1.7334  1.0653
19433TIP3   OH279789   0.174   2.334   1.235  0.3042  0.2480  0.0476
19433TIP3    H179790   0.130   2.342   1.320  3.0940  0.3886  1.6340
19433TIP3    H279791   0.169   2.422   1.197 -1.5755  0.0140 -0.3086
19434TIP3   OH279792   5.693   4.280  11.824  0.2303 -0.3651 -0.7255
19434TIP3    H179793   5.768   4.233  11.788  0.2340  0.3383 -1.6719
19434TIP3    H279794   5.672   4.346  11.758  0.0185  0.7444  0.3981
19435TIP3   OH279795   3.108   4.749   2.286 -0.5446 -0.2296  0.1073
19435TIP3    H179796   3.186   4.774   2.236 -0.3621  1.2988  1.0894
19435TIP3    H279797   3.129   4.772   2.377 -1.8369 -0.5531  0.5118
19436TIP3   OH279798   1.075   4.633  12.989 -0.2099  0.3371 -0.7270
19436TIP3    H179799   1.083   4.667  13.078 -3.7388 -1.3368  0.3857
19436TIP3    H279800   1.149   4.572  12.980  1.8801  2.6239 -0.1274
19437TIP3   OH279801   1.945   0.152  13.634 -0.5557 -0.0889  0.1118
19437TIP3    H179802   1.996   0.226  13.601  0.9006 -1.0805  0.0258
19437TIP3    H279803   1.954   0.159  13.730 -0.5941 -0.0278  0.1108
19438TIP3   OH279804   2.337   0.381   0.468 -0.4232  0.1169  0.5307
19438TIP3    H179805   2.317   0.292   0.498  0.3522 -0.0659  0.5312
19438TIP3    H279806   2.255   0.413   0.430 -0.6001 -0.7528  0.1646
19439TIP3   OH279807   3.450   1.161  11.678  0.5176 -0.1058  0.2876
19439TIP3    H179808   3.513   1.118  11.619 -0.5129 -0.2810 -0.7237
19439TIP3    H279809   3.505   1.202  11.745  1.8743  1.4431 -1.6413
19440TIP3   OH279810   5.262   3.087  13.378  0.4405 -0.2608 -0.1885
19440TIP3    H179811   5.314   3.159  13.342 -2.1329  2.5376  1.2532
19440TIP3    H279812   5.184   3.084  13.323 -1.3033  0.8475  2.0468
19441TIP3   OH279813   1.335   5.211   2.705  0.5048  1.5086  0.1896
19441TIP3    H179814   1.357   5.130   2.751 -1.3008  1.4259  0.9994
19441TIP3    H279815   1.369   5.280   2.762  0.1477  1.3565  0.5946
19442TIP3   OH279816   2.115   0.068   3.461  0.0227 -0.5084  0.4652
19442TIP3    H179817   2.072   0.057   3.377  0.1795 -3.0931  0.6408
19442TIP3    H279818   2.080  -0.003   3.515  0.8735  0.3171  2.1806
19443TIP3   OH279819   4.289   1.390   1.545 -0.1801  0.4704  0.3308
19443TIP3    H179820   4.347   1.458   1.579 -0.8521  2.0683 -1.5231
19443TIP3    H279821   4.233   1.435   1.482 -1.9548 -1.4553  0.4201
19444TIP3   OH279822   5.326   5.933   3.579  0.1638  0.3692 -0.5094
19444TIP3    H179823   5.285   5.854   3.545 -2.7159  0.7827  1.6179
19444TIP3    H279824   5.417   5.908   3.596 -0.4680 -2.2373 -0.6062
19445TIP3   OH279825   0.871   1.223   5.333  0.1058 -0.0459 -0.1861
19445TIP3    H179826   0.869   1.149   5.273 -2.3700 -1.0615  1.0182
19445TIP3    H279827   0.932   1.285   5.293 -0.4373 -1.2190 -3.0408
19446TIP3   OH279828   6.798   4.525   5.199  0.0037  0.5246 -0.4373
19446TIP3    H179829   6.780   4.539   5.106  0.3865  1.4013 -0.3886
19446TIP3    H279830   6.821   4.611   5.232 -1.2653  0.4518  0.7363
19447TIP3   OH279831   6.620   5.223   1.000  0.3251 -0.4267 -0.5319
19447TIP3    H179832   6.625   5.128   0.992 -1.9151 -0.8364  1.8834
19447TIP3    H279833   6.558   5.249   0.931 -1.3588 -1.1479  0.6333
19448TIP3   OH279834   4.571   1.415   0.472  0.0163  0.4606 -0.5624
19448TIP3    H179835   4.481   1.441   0.492 -0.2835 -2.1739  2.2920
19448TIP3    H279836   4.565   1.370   0.388 -1.3508  0.2497 -0.3779
19449TIP3   OH279837   3.540   0.560  16.596 -0.0827 -0.6602  0.4077
19449TIP3    H179838   3.576   0.481  16.555  1.3994  0.5822 -0.8353
19449TIP3    H279839   3.617   0.613  16.618 -1.0524  1.2589 -0.5572
19450TIP3   OH279840   0.670   1.373  16.267  0.1158  0.1153 -0.1611
19450TIP3    H179841   0.689   1.428  16.191  0.9433  1.5111  1.0084
19450TIP3    H279842   0.725   1.295  16.254 -0.7233 -0.2701 -1.6090
19451TIP3   OH279843   3.024   4.644   3.288 -0.0216  0.5451  0.2091
19451TIP3    H179844   3.048   4.733   3.315 -2.6854  1.2197  0.6107
19451TIP3    H279845   3.006   4.652   3.194  2.7507 -0.3404 -0.4929
19452TIP3   OH279846   5.959   0.912  11.641  0.6019 -0.4814 -0.0274
19452TIP3    H179847   5.969   0.997  11.598  1.1305 -0.5908 -0.1239
19452TIP3    H279848   5.884   0.923  11.699 -0.4141 -0.4689 -1.3147
19453TIP3   OH279849   2.770   1.248   5.937 -0.0291  0.3349 -0.3793
19453TIP3    H179850   2.822   1.328   5.944  0.2819  0.0785  0.3512
19453TIP3    H279851   2.685   1.277   5.902 -0.0224  1.0293  0.1535
19454TIP3   OH279852   2.349   3.636  15.428 -0.2746  0.0251 -0.0220
19454TIP3    H179853   2.394   3.617  15.346  0.8790 -1.0169  0.8231
19454TIP3    H279854   2.257   3.639  15.404 -0.0919 -1.6424 -1.1283
19455TIP3   OH279855   1.051   6.475  13.785  0.0525 -0.2324  0.6305
19455TIP3    H179856   0.998   6.425  13.848 -0.4329  0.4841  0.8073
19455TIP3    H279857   0.987   6.530  13.740  0.4119 -0.6426 -0.4105
19456TIP3   OH279858   1.113   5.616   2.850 -0.0772 -0.6002  0.5903
19456TIP3    H179859   1.200   5.651   2.831 -0.6092  0.8268  0.7170
19456TIP3    H279860   1.086   5.575   2.768  0.3726 -0.3344  0.3044
19457TIP3   OH279861   0.876   0.960   2.162  0.1604 -0.5981  0.0002
19457TIP3    H179862   0.851   0.931   2.250 -0.7045  0.5682  0.1641
19457TIP3    H279863   0.885   0.879   2.112 -2.4340 -1.1965  0.3642
19458TIP3   OH279864   5.401   4.821   2.048 -0.4548  0.2925 -0.1326
19458TIP3    H179865   5.422   4.728   2.037 -1.5955  0.0399 -0.3791
19458TIP3    H279866   5.454   4.866   1.982 -0.8087 -0.3253 -0.8622
19459TIP3   OH279867   0.368   1.024  13.698 -0.7436  0.2408  0.4741
19459TIP3    H179868   0.410   1.110  13.699 -0.5165  0.1740 -0.8100
19459TIP3    H279869   0.342   1.008  13.788 -2.0188  2.2521  0.5139
19460TIP3   OH279870   4.714   5.502   0.847  0.0678 -0.6295  0.0464
19460TIP3    H179871   4.670   5.493   0.931  1.0240  2.4843  1.0231
19460TIP3    H279872   4.807   5.501   0.869  0.3614  2.9803 -0.4103
19461TIP3   OH279873   5.905   5.331  13.541  0.0325  0.0200 -0.5311
19461TIP3    H179874   5.994   5.367  13.537  0.4054 -0.5542  1.2744
19461TIP3    H279875   5.888   5.321  13.635 -1.9370  0.0621 -0.8401
19462TIP3   OH279876   2.864   1.696  11.995  0.5389  0.1604 -0.2869
19462TIP3    H179877   2.876   1.720  12.087 -0.2917 -0.3185 -0.0469
19462TIP3    H279878   2.833   1.776  11.953  0.4850  0.2604 -0.0550
19463TIP3   OH279879   1.475   1.684  14.389 -0.3389 -0.1393  0.3863
19463TIP3    H179880   1.429   1.763  14.362 -0.1306 -0.2244 -0.2237
19463TIP3    H279881   1.496   1.639  14.307  0.2986 -0.4002  0.6860
19464TIP3   OH279882   5.925   3.828  15.383  0.2325  0.3645  0.6789
19464TIP3    H179883   5.862   3.756  15.382  0.3308  0.2206 -1.7856
19464TIP3    H279884   5.901   3.882  15.308  1.1940  1.9891  1.4924
19465TIP3   OH279885   1.356   5.257   4.451  0.5754 -0.6577  0.0473
19465TIP3    H179886   1.448   5.236   4.438  0.8451  0.0083  0.7661
19465TIP3    H279887   1.357   5.337   4.503 -0.4112 -0.6479  0.0757
19466TIP3   OH279888   6.565   0.324  12.006 -0.3349 -0.1218  0.8624
19466TIP3    H179889   6.641   0.287  11.961 -0.6345 -0.1386  0.3537
19466TIP3    H279890   6.591   0.412  12.030  1.0641 -1.2311  3.7650
19467TIP3   OH279891   5.175   3.440  12.023  0.5825 -0.1663  0.2097
19467TIP3    H179892   5.093   3.398  12.051  2.7362 -3.5937  2.2516
19467TIP3    H279893   5.178   3.427  11.928 -0.4529 -1.6870  0.3444
19468TIP3   OH279894   3.991   6.344  15.174  0.3260  0.1845  0.1626
19468TIP3    H179895   4.027   6.256  15.187  0.4566  0.2229  0.0644
19468TIP3    H279896   4.068   6.399  15.161  0.3986  0.6740  2.2630
19469TIP3   OH279897   3.655   4.759   0.149 -0.3644 -0.6895  0.0888
19469TIP3    H179898   3.728   4.818   0.166 -2.5769  2.3192 -0.1765
19469TIP3    H279899   3.624   4.733   0.236 -1.2510  1.0673  0.3294
19470TIP3   OH279900   4.259   3.062   6.305 -0.3103  0.4428  0.1646
19470TIP3    H179901   4.236   3.149   6.336 -0.1550 -0.3635  2.7813
19470TIP3    H279902   4.175   3.022   6.280 -1.0318 -0.0899  3.1001
19471TIP3   OH279903   1.568   6.577  13.903 -0.0845 -0.1368 -0.0965
19471TIP3    H179904   1.497   6.559  13.965 -0.9875  0.2666 -0.9894
19471TIP3    H279905   1.621   6.498  13.904 -0.0186 -0.1050  1.2529
19472TIP3   OH279906   1.255   5.919   0.800 -0.2974  0.3425 -0.2782
19472TIP3    H179907   1.245   5.851   0.733 -2.1584  0.6792 -0.3910
19472TIP3    H279908   1.255   6.001   0.751  1.2757  0.4894 -0.0823
19473TIP3   OH279909   2.314   3.132   4.696 -0.1565  0.0661  0.1304
19473TIP3    H179910   2.389   3.177   4.656  0.4886 -2.1005 -1.2820
19473TIP3    H279911   2.339   3.121   4.787  0.3552  1.1062  0.1392
19474TIP3   OH279912   0.552   6.188  12.341 -0.1923  0.5411 -0.2493
19474TIP3    H179913   0.552   6.274  12.383  0.4296  1.9792 -2.9232
19474TIP3    H279914   0.482   6.140  12.384 -0.7971  2.5193  1.1131
19475TIP3   OH279915   6.077   6.004  16.545  0.3695 -0.6119  0.1152
19475TIP3    H179916   6.043   5.931  16.596  2.3682 -1.1343  0.7893
19475TIP3    H279917   6.072   6.079  16.603 -1.9074 -0.1020 -0.6606
19476TIP3   OH279918   4.000   1.810  13.584  0.3513  0.3670  0.1537
19476TIP3    H179919   3.909   1.787  13.564  0.3441  0.0947  0.4966
19476TIP3    H279920   3.995   1.862  13.665  0.6174 -0.8001  0.9399
19477TIP3   OH279921   6.213   4.792  13.330 -0.2595 -0.1884 -0.2845
19477TIP3    H179922   6.222   4.858  13.261 -0.9084 -0.1158 -0.3059
19477TIP3    H279923   6.121   4.768  13.328  0.2888 -2.4307 -1.5083
19478TIP3   OH279924   1.045   3.138   4.718 -0.1016 -0.6617  0.1585
19478TIP3    H179925   1.099   3.071   4.760  1.3670 -0.9154 -1.9971
19478TIP3    H279926   1.101   3.216   4.714 -1.2624  0.2877  1.2652
19479TIP3   OH279927   6.632   3.489   2.491 -0.1247  0.3880 -0.0180
19479TIP3    H179928   6.567   3.468   2.424 -1.4787  2.7763  0.4377
19479TIP3    H279929   6.617   3.425   2.560  0.9596 -1.8025 -1.6676
19480TIP3   OH279930   6.253   3.345   4.823  0.3083 -0.6779 -0.4824
19480TIP3    H179931   6.279   3.397   4.747  1.3216 -1.7250 -0.8667
19480TIP3    H279932   6.180   3.291   4.792 -0.3163  0.0057 -0.2565
19481TIP3   OH279933   3.841   3.851   0.457 -0.4689  0.0413  0.5234
19481TIP3    H179934   3.815   3.762   0.435  0.9059  0.3057 -2.7795
19481TIP3    H279935   3.835   3.855   0.553 -3.0489 -2.7290  0.6159
19482TIP3   OH279936   1.937   4.258   4.302 -0.3322 -0.1187 -0.0769
19482TIP3    H179937   2.023   4.246   4.263  0.2076  2.4643  0.1307
19482TIP3    H279938   1.887   4.181   4.275  2.2721 -2.1851  0.6056
19483TIP3   OH279939   5.368   0.390   3.580  0.2250 -0.4619 -0.4758
19483TIP3    H179940   5.309   0.315   3.580  1.4238 -1.4958  1.7616
19483TIP3    H279941   5.333   0.448   3.648 -0.1450  0.5790 -1.5270
19484TIP3   OH279942   6.764   0.113  10.402  0.3261 -0.1523 -0.0208
19484TIP3    H179943   6.684   0.113  10.454 -0.1053 -0.8023 -0.6576
19484TIP3    H279944   6.806   0.029  10.422 -1.9913 -2.5360 -3.7943
19485TIP3   OH279945   1.818   4.742  13.775  0.0882  0.0393 -0.0824
19485TIP3    H179946   1.906   4.769  13.802  1.4938 -2.6782 -1.5122
19485TIP3    H279947   1.763   4.758  13.852  1.7659  1.9641  0.7990
19486TIP3   OH279948   0.379   5.490   5.221 -0.4961  0.0470  0.2052
19486TIP3    H179949   0.430   5.452   5.293 -1.0194 -0.5883  0.2520
19486TIP3    H279950   0.382   5.584   5.236  0.6614  0.0156  0.2035
19487TIP3   OH279951   3.176   2.205   4.792  0.5106  0.1753 -0.4462
19487TIP3    H179952   3.159   2.182   4.701  0.3305  3.7430 -1.4388
19487TIP3    H279953   3.089   2.220   4.830  0.6572  0.5472 -0.2504
19488TIP3   OH279954   5.184   2.032   4.047 -0.3697  0.1600 -0.1319
19488TIP3    H179955   5.217   2.076   4.125  0.1781  0.6437 -0.6203
19488TIP3    H279956   5.236   2.070   3.975 -0.2248 -0.9380 -0.6225
19489TIP3   OH279957   4.536   5.661  16.454 -0.4603 -0.5055 -0.6715
19489TIP3    H179958   4.494   5.687  16.536  0.5160  1.1153 -0.6386
19489TIP3    H279959   4.565   5.571  16.470 -2.2079 -1.0026 -0.0474
19490TIP3   OH279960   6.132   5.936  16.900  0.7649  0.6531  0.0075
19490TIP3    H179961   6.172   5.993  16.966 -0.0301 -0.0242  1.1137
19490TIP3    H279962   6.158   5.848  16.926  1.4146  0.4299 -1.2926
19491TIP3   OH279963   0.257   6.287  14.649 -0.0331  0.0011 -0.1135
19491TIP3    H179964   0.270   6.285  14.554 -0.4757 -1.0664 -0.1634
19491TIP3    H279965   0.289   6.373  14.676 -0.1804  0.4288 -1.2681
19492TIP3   OH279966   2.808   3.445   3.460 -0.7114  0.3741  0.0712
19492TIP3    H179967   2.805   3.359   3.501 -0.5419 -0.7797 -2.2135
19492TIP3    H279968   2.897   3.454   3.428 -1.0661  0.8232 -0.8342
19493TIP3   OH279969   0.534   3.181   0.127 -0.0963  0.2466 -0.1732
19493TIP3    H179970   0.482   3.254   0.093  2.2454  2.7980  1.2526
19493TIP3    H279971   0.613   3.181   0.073 -0.2714 -1.6542 -0.4803
19494TIP3   OH279972   2.767   5.470   2.930  0.3885  0.2034  0.3834
19494TIP3    H179973   2.712   5.519   2.868 -1.4330 -1.5666  0.5159
19494TIP3    H279974   2.810   5.538   2.982  0.8799  1.7122 -1.8478
19495TIP3   OH279975   5.788   0.506  15.571  0.2481 -0.2822  0.0609
19495TIP3    H179976   5.834   0.570  15.626  1.1933  0.2056 -1.2349
19495TIP3    H279977   5.824   0.520  15.483 -2.1870 -0.1082 -0.9689
19496TIP3   OH279978   1.416   3.027  12.490 -0.0655 -0.3168  0.1742
19496TIP3    H179979   1.445   3.065  12.573 -1.7335  1.1386  0.1362
19496TIP3    H279980   1.459   3.082  12.424 -1.7140  0.9740  0.1196
19497TIP3   OH279981   4.705   4.980  16.270 -0.5697 -0.3483  0.5491
19497TIP3    H179982   4.728   5.029  16.349 -0.4069  0.5283 -0.0275
19497TIP3    H279983   4.781   4.924  16.255 -0.3834 -0.1552  0.7378
19498TIP3   OH279984   6.610   4.803  14.550  0.1668 -0.1173 -0.1225
19498TIP3    H179985   6.523   4.812  14.590 -0.0188  0.4435 -0.6340
19498TIP3    H279986   6.636   4.713  14.570  0.2352  0.2254  1.5501
19499TIP3   OH279987   3.318   4.060  12.390  0.2698 -0.2860 -0.1751
19499TIP3    H179988   3.255   4.014  12.445 -2.4962  2.0966 -1.0930
19499TIP3    H279989   3.313   4.016  12.305 -0.1343 -0.1364 -0.2291
19500TIP3   OH279990   2.677   5.519   0.750  0.2086 -0.0461  0.6769
19500TIP3    H179991   2.762   5.532   0.708 -0.1144  0.8418  0.2736
19500TIP3    H279992   2.689   5.552   0.839  0.0646  0.8236  0.3772
19501TIP3   OH279993   4.555   5.941   3.160  0.1693  0.3476  0.0267
19501TIP3    H179994   4.633   5.901   3.121  0.2183  0.3444  0.1258
19501TIP3    H279995   4.585   5.971   3.246 -0.1533 -0.4231  0.4187
19502TIP3   OH279996   1.875   2.455  10.993  0.4725  0.0787  0.0788
19502TIP3    H179997   1.944   2.392  10.972 -0.2004 -0.6427 -0.0100
19502TIP3    H279998   1.817   2.452  10.917  0.9233  1.5216 -0.3590
19503TIP3   OH279999   2.390   1.396   2.467 -0.0340 -0.1883  0.2129
19503TIP3    H180000   2.321   1.412   2.403  1.7959  2.0656 -1.3222
19503TIP3    H280001   2.472   1.410   2.420  1.5695 -2.5615  2.0108
19504TIP3   OH280002   4.458   0.949  14.637 -0.1610 -0.4672  0.1621
19504TIP3    H180003   4.533   0.915  14.590  0.3037  0.4212  0.2476
19504TIP3    H280004   4.413   1.005  14.574 -0.7124 -0.9348  0.1338
19505TIP3   OH280005   5.418   0.090  16.052  0.1200 -0.0301 -0.6128
19505TIP3    H180006   5.493   0.139  16.085 -0.9043  0.6957  0.7345
19505TIP3    H280007   5.427   0.093  15.957  2.4396 -1.0245 -0.5068
19506TIP3   OH280008   1.896   6.197   2.530 -0.2838 -0.0145  0.2852
19506TIP3    H180009   1.885   6.210   2.435  0.6939 -0.1201  0.1424
19506TIP3    H280010   1.843   6.266   2.569 -0.2894  0.3638 -0.3584
19507TIP3   OH280011   0.161   1.223   3.636  0.2026  0.0864  0.1274
19507TIP3    H180012   0.150   1.247   3.544 -0.0240 -0.6601 -0.0480
19507TIP3    H280013   0.081   1.255   3.679  0.7418  1.3143  0.2663
19508TIP3   OH280014   0.492   1.667   1.797  0.2861  0.5954 -0.2394
19508TIP3    H180015   0.511   1.584   1.753 -1.3828  0.0362  0.0297
19508TIP3    H280016   0.520   1.654   1.888  1.1515  0.7796 -0.4673
19509TIP3   OH280017   5.654   4.459   0.381 -0.1994 -0.4233  0.2418
19509TIP3    H180018   5.672   4.366   0.392  1.3481 -0.3494 -1.3005
19509TIP3    H280019   5.684   4.499   0.463  0.1059 -1.1534  0.4959
19510TIP3   OH280020   3.380   3.820  10.574  0.3467  0.1043  0.1927
19510TIP3    H180021   3.441   3.892  10.590  0.3929 -0.0329  0.6628
19510TIP3    H280022   3.410   3.750  10.632 -2.2300  1.1681  3.1079
19511TIP3   OH280023   3.769   0.654   5.951  0.5936 -0.0686 -0.1069
19511TIP3    H180024   3.778   0.661   5.856 -1.3740  1.1230 -0.2732
19511TIP3    H280025   3.676   0.634   5.965  0.9745 -0.8772  1.5523
19512TIP3   OH280026   1.162   0.135   5.033 -0.0853 -0.8068 -0.2212
19512TIP3    H180027   1.148   0.212   5.088 -0.0237 -0.0117 -1.3026
19512TIP3    H280028   1.243   0.154   4.985  1.4371 -2.6743  1.4099
19513TIP3   OH280029   4.989   4.842  10.509 -0.1614  0.3115 -0.2954
19513TIP3    H180030   4.939   4.810  10.584 -1.3281 -0.6037 -1.4146
19513TIP3    H280031   4.967   4.936  10.505 -0.3063  0.3090  0.3382
19514TIP3   OH280032   3.969   6.749   1.743 -0.1254  0.0138 -0.3759
19514TIP3    H180033   4.054   6.751   1.698  0.4328  0.3250  0.6505
19514TIP3    H280034   3.955   6.840   1.770 -0.8054 -0.0342 -0.5552
19515TIP3   OH280035   5.176   5.411  12.479  0.2994 -0.1621 -0.0363
19515TIP3    H180036   5.116   5.337  12.471 -0.0788  0.2366 -1.1397
19515TIP3    H280037   5.155   5.466  12.404  0.7265  0.9543  0.6444
19516TIP3   OH280038   6.808   6.276   5.776 -0.1259 -0.1972 -0.2274
19516TIP3    H180039   6.745   6.218   5.733 -0.0775 -1.1156  0.8916
19516TIP3    H280040   6.885   6.222   5.792  0.6625  0.6998 -0.8467
19517TIP3   OH280041   6.797   2.829  11.576  0.0463 -0.0234  0.1626
19517TIP3    H180042   6.713   2.875  11.568 -0.9524 -1.5983  1.0176
19517TIP3    H280043   6.793   2.787  11.662  2.7659  1.8023  1.3481
19518TIP3   OH280044   2.188   5.156   3.831 -0.0660 -0.0860 -0.5412
19518TIP3    H180045   2.208   5.103   3.909 -0.6935 -2.3964 -1.8593
19518TIP3    H280046   2.269   5.153   3.779  0.4442  1.6843  0.1022
19519TIP3   OH280047   4.758   1.884   4.151 -0.1352 -0.0299 -0.1452
19519TIP3    H180048   4.705   1.930   4.216  0.8675  1.5671 -0.4058
19519TIP3    H280049   4.780   1.801   4.193 -1.8283 -0.2321  0.4200
19520TIP3   OH280050   5.180   0.456  16.384 -0.4239  0.1542 -0.1973
19520TIP3    H180051   5.264   0.418  16.409  0.5018  2.0851 -0.1584
19520TIP3    H280052   5.180   0.455  16.289 -0.1358  0.6132 -0.2011
19521TIP3   OH280053   3.948   6.530  15.546  0.1901 -0.3963 -0.2299
19521TIP3    H180054   3.879   6.582  15.505  0.3141 -0.2033 -0.1976
19521TIP3    H280055   3.906   6.446  15.566  0.1083 -0.4596 -0.6697
19522TIP3   OH280056   4.439   3.710   2.303 -0.2812 -0.0650 -0.4718
19522TIP3    H180057   4.412   3.619   2.309  0.4597 -0.2667 -0.0423
19522TIP3    H280058   4.363   3.760   2.334  0.1857 -0.6644  1.8883
19523TIP3   OH280059   6.196   5.960   3.422  0.5649  0.1721  0.1875
19523TIP3    H180060   6.136   5.901   3.468 -1.1795  1.4728 -0.2966
19523TIP3    H280061   6.261   5.985   3.487 -0.4248  0.0659  1.2386
19524TIP3   OH280062   4.596   4.896   0.026  0.5706 -0.0959 -0.2592
19524TIP3    H180063   4.584   4.838  -0.049 -2.5976 -1.9053  1.4227
19524TIP3    H280064   4.535   4.968   0.010  0.9941  0.2980 -0.1073
19525TIP3   OH280065   2.397   5.597   3.095 -0.1480  0.0411 -0.3417
19525TIP3    H180066   2.430   5.516   3.133  0.2690  0.8268  1.0478
19525TIP3    H280067   2.341   5.635   3.162 -0.1672  1.0069 -0.8766
19526TIP3   OH280068   6.031   4.937  14.292 -0.2373 -0.2702 -0.3176
19526TIP3    H180069   6.058   4.985  14.215 -1.2514  2.4924  0.9266
19526TIP3    H280070   6.026   4.846  14.263  0.1378  0.5489 -3.2656
19527TIP3   OH280071   1.848   1.642   0.332 -0.4613  0.4585 -0.1873
19527TIP3    H180072   1.886   1.722   0.295  0.7058 -0.5834 -1.3463
19527TIP3    H280073   1.767   1.629   0.282  0.4643 -0.2437 -1.5833
19528TIP3   OH280074   4.788   1.236   4.053  0.0767 -0.3221  0.4541
19528TIP3    H180075   4.871   1.256   4.010 -0.2728 -0.6532 -0.4053
19528TIP3    H280076   4.742   1.319   4.057  0.8911  0.0825  1.9453
19529TIP3   OH280077   0.951   6.432  16.505  0.1966  0.5269 -0.5103
19529TIP3    H180078   0.859   6.408  16.513  0.3239 -0.3375 -1.3822
19529TIP3    H280079   0.967   6.492  16.577 -1.4281  1.8932 -1.2112
19530TIP3   OH280080   5.859   2.121  14.772 -0.1921  0.0200 -0.2686
19530TIP3    H180081   5.934   2.156  14.820 -1.2324 -0.5167  1.8846
19530TIP3    H280082   5.893   2.043  14.728  0.0271 -1.8175  2.8898
19531TIP3   OH280083   3.172   0.298  11.463  0.1529  0.0896  0.1255
19531TIP3    H180084   3.181   0.384  11.503  0.6814  0.5249 -0.8922
19531TIP3    H280085   3.103   0.309  11.398  0.4012 -0.1922 -0.1846
19532TIP3   OH280086   5.092   4.023   1.254  0.0462  0.0135  0.1899
19532TIP3    H180087   5.104   4.059   1.166  1.1328  1.3240  0.8313
19532TIP3    H280088   5.145   3.944   1.255  0.0697  0.0224 -0.3318
19533TIP3   OH280089   1.703   4.541  13.150 -0.2609 -0.8126 -0.8908
19533TIP3    H180090   1.707   4.606  13.220 -2.4391  0.0292 -1.4902
19533TIP3    H280091   1.610   4.520  13.141  0.2829 -3.4271 -1.2945
19534TIP3   OH280092   5.115   6.553  15.251 -0.3863 -0.0234 -0.4118
19534TIP3    H180093   5.055   6.479  15.241 -0.8283 -0.0025  1.6991
19534TIP3    H280094   5.091   6.592  15.335  1.8204  0.6924 -0.0622
19535TIP3   OH280095   1.612   2.659  14.326  0.0422 -0.2551 -0.2189
19535TIP3    H180096   1.685   2.720  14.316 -1.2454  1.2869 -0.6904
19535TIP3    H280097   1.534   2.713  14.317 -1.1829 -1.9417 -0.3110
19536TIP3   OH280098   1.761   0.808  16.818 -0.6458 -0.0218 -0.3850
19536TIP3    H180099   1.696   0.854  16.871 -0.5019  1.6630 -1.5691
19536TIP3    H280100   1.760   0.719  16.851 -0.9765  0.7976  2.0224
19537TIP3   OH280101   0.423   6.003   1.493  0.5234 -0.1748  0.4200
19537TIP3    H180102   0.430   6.010   1.588  1.3499  1.0627  0.2877
19537TIP3    H280103   0.512   5.982   1.465  0.8117  1.7524 -0.2374
19538TIP3   OH280104   5.973   5.773   2.669  0.3409 -0.3886  0.4132
19538TIP3    H180105   5.881   5.754   2.686  0.6079 -2.1716  0.1094
19538TIP3    H280106   5.975   5.805   2.579 -0.0199  0.1177  0.5814
19539TIP3   OH280107   0.387   2.885   3.501 -0.3914  0.3609 -0.2938
19539TIP3    H180108   0.326   2.868   3.573 -2.9401 -0.3974 -2.4616
19539TIP3    H280109   0.351   2.836   3.427  2.4880  0.5021 -1.9517
19540TIP3   OH280110   5.881   0.909  16.632  0.2578  0.7816  0.0134
19540TIP3    H180111   5.907   0.853  16.559  1.9390  0.3849  0.8666
19540TIP3    H280112   5.795   0.944  16.606  0.6209  0.3460 -1.9518
19541TIP3   OH280113   4.794   4.154  13.534  0.3590  0.3074  0.0732
19541TIP3    H180114   4.752   4.209  13.468 -0.1659  0.3251  0.4122
19541TIP3    H280115   4.887   4.157  13.512 -0.0446 -2.5685 -2.8887
19542TIP3   OH280116   4.949   4.945   6.229 -0.1653 -0.1965 -0.1508
19542TIP3    H180117   4.921   5.001   6.157 -0.6165 -0.2478 -0.0159
19542TIP3    H280118   4.872   4.937   6.285  0.5001  0.7632  0.9409
19543TIP3   OH280119   0.986   2.114  13.828 -0.5660  0.3243 -0.5858
19543TIP3    H180120   1.031   2.110  13.912 -0.6723  2.6346 -0.3593
19543TIP3    H280121   0.955   2.024  13.813  1.5201 -0.6875  0.6555
19544TIP3   OH280122   1.566   4.553   6.146  0.0495  0.0530  0.2990
19544TIP3    H180123   1.479   4.593   6.142  0.7921  1.8640  1.1530
19544TIP3    H280124   1.552   4.470   6.193 -0.9963  1.0033  1.7386
19545TIP3   OH280125   1.273   1.664   2.590  0.3535 -0.1421  0.1816
19545TIP3    H180126   1.326   1.610   2.532  1.2717  1.8656 -0.9769
19545TIP3    H280127   1.211   1.708   2.532 -1.3334 -0.9459  1.2704
19546TIP3   OH280128   0.656   2.893  13.007  0.3201  0.1592 -0.1315
19546TIP3    H180129   0.717   2.966  13.018  0.5709 -0.0594 -0.0894
19546TIP3    H280130   0.659   2.847  13.090 -1.4248  1.3107  0.6370
19547TIP3   OH280131   4.582   4.881   6.124  0.1814  0.3855  0.2688
19547TIP3    H180132   4.647   4.938   6.084  0.9575 -0.1819  0.6927
19547TIP3    H280133   4.598   4.888   6.218  1.0425 -1.3829  0.2913
19548TIP3   OH280134   4.815   1.614   4.254  0.0359 -0.1371  0.2688
19548TIP3    H180135   4.891   1.560   4.276 -0.4787 -0.2758  1.8680
19548TIP3    H280136   4.742   1.573   4.301 -0.3840  1.8835  1.5036
19549TIP3   OH280137   3.564   4.827   2.897 -0.5539 -0.3699  0.4874
19549TIP3    H180138   3.582   4.896   2.833 -0.2846 -1.7355 -0.9620
19549TIP3    H280139   3.471   4.807   2.885 -1.2667  1.2865  2.5460
19550TIP3   OH280140   1.300   3.496   2.395 -0.1928  0.1212 -0.2649
19550TIP3    H180141   1.245   3.517   2.470 -0.0419  0.4271 -0.2369
19550TIP3    H280142   1.383   3.468   2.433 -0.2486 -0.1127 -0.3122
19551TIP3   OH280143   5.059   0.887  13.182 -0.0456 -0.2785 -0.1440
19551TIP3    H180144   5.129   0.881  13.117 -0.3022  0.7871 -0.5454
19551TIP3    H280145   4.985   0.841  13.141  0.8633 -2.9595  1.0021
19552TIP3   OH280146   5.146   5.169   3.394 -0.0799  0.4553  0.3079
19552TIP3    H180147   5.227   5.171   3.444  1.0658 -0.7476 -1.4026
19552TIP3    H280148   5.145   5.253   3.347  0.4756  0.2336 -0.1063
19553TIP3   OH280149   2.068   0.782   4.904  0.9836  0.0704  0.0558
19553TIP3    H180150   2.109   0.808   4.986  1.0623 -0.8900  0.3395
19553TIP3    H280151   2.141   0.770   4.843  0.9482  0.4960 -0.0722
19554TIP3   OH280152   1.370   3.529  15.701 -0.0438  0.1323  0.1604
19554TIP3    H180153   1.365   3.434  15.709 -1.6744  0.0660 -1.0710
19554TIP3    H280154   1.416   3.544  15.618  1.4100  0.4751  0.9928
19555TIP3   OH280155   1.785   2.029  11.208 -0.3102  0.3075 -0.2437
19555TIP3    H180156   1.715   1.982  11.162 -0.2189 -0.0433 -0.0328
19555TIP3    H280157   1.771   2.006  11.300  1.3082 -1.4656 -0.3777
19556TIP3   OH280158   0.926   0.133   5.881 -0.0576  0.7514  0.9905
19556TIP3    H180159   0.947   0.058   5.936 -1.2973 -0.0682  0.3868
19556TIP3    H280160   0.835   0.153   5.903  0.2533  2.0912  1.1415
19557TIP3   OH280161   0.006   0.600  16.840 -0.0954 -0.5179  0.4261
19557TIP3    H180162  -0.002   0.517  16.887  1.4012 -0.7995  0.2351
19557TIP3    H280163   0.089   0.593  16.793 -0.1598  0.9172  0.0547
19558TIP3   OH280164   3.184   0.041  10.645 -0.4795 -0.7481  0.6285
19558TIP3    H180165   3.247   0.071  10.711  0.6315  0.9865 -1.1203
19558TIP3    H280166   3.218   0.074  10.562 -0.5969 -4.6873 -1.2147
19559TIP3   OH280167   0.552   5.300   3.058  0.3631  0.3695  0.3121
19559TIP3    H180168   0.617   5.369   3.071 -1.1638  1.5164  2.5089
19559TIP3    H280169   0.600   5.218   3.074  1.4672  1.1084  0.8941
19560TIP3   OH280170   5.836   2.906   3.267 -0.0145  0.7085  0.4112
19560TIP3    H180171   5.844   2.999   3.289 -1.4581  0.4296  2.4219
19560TIP3    H280172   5.743   2.893   3.249  0.3107 -0.1872 -0.7413
19561TIP3   OH280173   3.593   3.475   3.541  0.7599 -0.1197 -0.3807
19561TIP3    H180174   3.662   3.523   3.496  1.3017 -0.1888  0.3530
19561TIP3    H280175   3.626   3.385   3.547  1.6051  0.2753  1.8675
19562TIP3   OH280176   0.917   0.046   4.232 -0.4554 -0.4076 -0.1148
19562TIP3    H180177   0.835   0.091   4.251  0.3024  0.3817  1.5059
19562TIP3    H280178   0.951   0.021   4.319  1.4344  0.0523 -0.6780
19563TIP3   OH280179   2.508   4.157  13.178  0.4821 -0.0924  0.4108
19563TIP3    H180180   2.573   4.217  13.141  0.4290  0.7537  1.6265
19563TIP3    H280181   2.523   4.162  13.272 -0.2174 -1.2150  0.5934
19564TIP3   OH280182   5.749   3.838   2.558 -0.9637  0.6172 -0.5939
19564TIP3    H180183   5.757   3.930   2.585  1.5071 -0.0800  1.4373
19564TIP3    H280184   5.673   3.805   2.606 -1.8474  1.5439 -1.3048
19565TIP3   OH280185   0.218   0.385  16.250 -0.5019  0.0593 -0.6897
19565TIP3    H180186   0.258   0.322  16.310  2.4922  1.2677 -1.2514
19565TIP3    H280187   0.138   0.413  16.294  0.0392 -1.2973  1.3062
19566TIP3   OH280188   4.511   5.612   1.429  0.3182  0.0635 -0.5352
19566TIP3    H180189   4.586   5.635   1.374  0.6455  2.0684  0.6338
19566TIP3    H280190   4.504   5.517   1.422  2.2704 -0.0495 -1.5779
19567TIP3   OH280191   2.554   0.132  14.947 -0.6817 -0.4376  0.0321
19567TIP3    H180192   2.497   0.057  14.930  1.5668 -2.0950 -0.7952
19567TIP3    H280193   2.629   0.118  14.890 -0.0682  2.4006  0.0037
19568TIP3   OH280194   2.639   3.669  16.739  0.4439  0.3322  0.6126
19568TIP3    H180195   2.546   3.657  16.757  0.1856  0.6035 -0.4620
19568TIP3    H280196   2.669   3.729  16.807  0.2681 -1.1917  2.0858
19569TIP3   OH280197   0.505   3.824   0.466  0.0222 -0.3241  0.1020
19569TIP3    H180198   0.506   3.729   0.472  1.0524 -0.4023 -0.9568
19569TIP3    H280199   0.429   3.844   0.412  1.2512 -0.7535 -1.9061
19570TIP3   OH280200   5.006   5.098   5.235  0.0099 -0.4678  0.0544
19570TIP3    H180201   4.955   5.171   5.200 -0.0246 -1.0755 -1.2096
19570TIP3    H280202   5.052   5.062   5.159  1.6794 -0.4581  1.0113
19571TIP3   OH280203   2.574   2.928   0.465  0.1131 -0.0589  0.0920
19571TIP3    H180204   2.536   2.868   0.401 -0.5731  0.1806  0.2624
19571TIP3    H280205   2.500   2.981   0.495  1.0429  2.5245 -1.7765
19572TIP3   OH280206   1.642   1.532  13.202 -0.0562  0.5806  0.2990
19572TIP3    H180207   1.651   1.620  13.239  1.6309 -0.0699  1.5398
19572TIP3    H280208   1.682   1.538  13.116  2.8332  0.4047  1.5124
19573TIP3   OH280209   1.345   4.876  14.341 -0.7124  0.3613 -0.0563
19573TIP3    H180210   1.423   4.840  14.298  0.8325  2.0723  1.1876
19573TIP3    H280211   1.326   4.957  14.294 -0.8060  0.7318  0.6029
19574TIP3   OH280212   6.037   5.235   1.514  0.3650 -0.3577 -0.4644
19574TIP3    H180213   6.026   5.144   1.485 -1.4152 -0.3357  0.0421
19574TIP3    H280214   6.122   5.261   1.479  0.7282 -2.0902 -0.9531
19575TIP3   OH280215   3.424   4.079  14.057 -0.3794  0.3380  0.2795
19575TIP3    H180216   3.413   4.022  14.133 -2.0279 -1.4152 -1.2021
19575TIP3    H280217   3.504   4.047  14.014 -0.0735  0.6079  0.6364
19576TIP3   OH280218   3.368   0.066   0.750  0.0393 -0.2461 -0.1631
19576TIP3    H180219   3.272   0.070   0.757 -0.0514  3.1364 -1.5882
19576TIP3    H280220   3.385  -0.009   0.694 -1.7002 -1.4078  0.7855
19577TIP3   OH280221   5.073   2.412  14.821 -0.4055  0.2760 -0.0666
19577TIP3    H180222   5.060   2.426  14.728 -0.0186 -0.2861 -0.2079
19577TIP3    H280223   5.161   2.445  14.839  0.9029 -2.6046 -0.5804
19578TIP3   OH280224   2.875   4.236   4.010 -0.1378 -0.8980 -0.7652
19578TIP3    H180225   2.901   4.328   4.011  1.0888 -1.2271 -0.5451
19578TIP3    H280226   2.886   4.209   3.919  1.9918 -1.4618 -0.3991
19579TIP3   OH280227   2.711   5.917   4.741 -0.5182 -0.6460 -0.5844
19579TIP3    H180228   2.724   5.824   4.725 -2.1762 -0.6698 -1.9988
19579TIP3    H280229   2.684   5.923   4.833 -0.7034 -1.5868 -0.5751
19580TIP3   OH280230   5.704   0.035  12.293  0.1861  0.3582 -0.2570
19580TIP3    H180231   5.775   0.089  12.257  0.2562  0.2623 -0.2632
19580TIP3    H280232   5.625   0.068  12.250  0.3379 -0.1404 -0.9413
19581TIP3   OH280233   3.348   5.569   1.524 -0.3310 -0.0946  0.6281
19581TIP3    H180234   3.330   5.582   1.617 -1.3735 -0.9173  0.5622
19581TIP3    H280235   3.329   5.654   1.484  0.7921  0.4673  1.2383
19582TIP3   OH280236   5.628   4.754  17.097 -0.5810 -0.3391 -0.1992
19582TIP3    H180237   5.684   4.719  17.167  0.0206  1.4053  0.2442
19582TIP3    H280238   5.633   4.849  17.108 -1.8023 -0.0824 -1.6083
19583TIP3   OH280239   2.869   6.116  12.027  0.1307 -0.6632 -0.1990
19583TIP3    H180240   2.861   6.029  12.065  0.3697 -0.9520 -0.7933
19583TIP3    H280241   2.897   6.172  12.099 -1.0527 -0.8578  0.4377
19584TIP3   OH280242   6.680   6.074   5.036  0.3898  0.6853  0.1393
19584TIP3    H180243   6.604   6.056   4.980  0.4005 -0.0846  0.3588
19584TIP3    H280244   6.746   6.108   4.976  0.1282  0.6359 -0.1810
19585TIP3   OH280245   3.651   0.168   2.930 -0.1481 -0.3201 -0.4247
19585TIP3    H180246   3.732   0.124   2.904  0.2790  0.6314 -0.7501
19585TIP3    H280247   3.658   0.256   2.892 -1.9472 -0.6409 -1.6078
19586TIP3   OH280248   3.139   1.933   1.067  0.2105  0.0965  0.5950
19586TIP3    H180249   3.122   1.943   1.161 -1.4361 -0.4554  0.3889
19586TIP3    H280250   3.101   2.012   1.028  0.6578  0.1978  0.3587
19587TIP3   OH280251   5.742   6.211   4.476  0.2252 -0.1541  0.0933
19587TIP3    H180252   5.695   6.128   4.487  0.4414 -0.1594  1.0297
19587TIP3    H280253   5.833   6.185   4.460  0.1122 -0.1161 -0.6455
19588TIP3   OH280254   3.753   5.418   6.167  0.2763  0.0480  0.3339
19588TIP3    H180255   3.822   5.402   6.232  0.2823 -1.4662 -0.0187
19588TIP3    H280256   3.748   5.337   6.116 -1.6097  0.2145  0.1950
19589TIP3   OH280257   3.696   0.761  15.856 -0.2115 -0.1794  0.5963
19589TIP3    H180258   3.662   0.850  15.850  0.5972  0.1671  1.0143
19589TIP3    H280259   3.707   0.746  15.950 -1.8287 -1.3042  0.6441
19590TIP3   OH280260   1.974   3.909  11.590  0.1735  0.1052  0.0113
19590TIP3    H180261   1.934   3.946  11.512  0.1876  0.6410  0.2506
19590TIP3    H280262   2.058   3.953  11.597  0.6370 -0.7130 -0.2582
19591TIP3   OH280263   3.879   3.626  16.780  0.0085  0.3416  0.0668
19591TIP3    H180264   3.939   3.633  16.706 -1.2424  0.8414 -0.9350
19591TIP3    H280265   3.923   3.674  16.850  0.2200  1.8218 -1.0264
19592TIP3   OH280266   6.808   0.981  14.090 -0.5527  0.3381  0.1670
19592TIP3    H180267   6.721   0.962  14.126 -0.6864 -0.1023 -0.3774
19592TIP3    H280268   6.828   1.069  14.122 -1.0660  0.3226  0.5486
19593TIP3   OH280269   3.822   3.698   3.390 -0.6828 -0.1477  0.0903
19593TIP3    H180270   3.730   3.726   3.380 -0.1204  0.8836 -4.1590
19593TIP3    H280271   3.861   3.765   3.446 -2.0031  0.8573 -0.1422
19594TIP3   OH280272   3.267   1.436  16.677 -0.8298  0.8769  0.3592
19594TIP3    H180273   3.334   1.495  16.714  1.0191  1.8394 -3.8801
19594TIP3    H280274   3.194   1.493  16.655 -1.0076  0.7213  0.5455
19595TIP3   OH280275   5.222   2.640  13.610  0.0125 -0.0400  0.3440
19595TIP3    H180276   5.309   2.651  13.650  0.1817 -0.7060  0.1578
19595TIP3    H280277   5.167   2.705  13.655  0.6271  0.4595  0.3912
19596TIP3   OH280278   1.718   5.278  13.233  0.6653  0.7247  0.2974
19596TIP3    H180279   1.654   5.228  13.184  1.8204  0.4843 -1.0228
19596TIP3    H280280   1.667   5.346  13.278 -0.7009 -0.5568  0.7397
19597TIP3   OH280281   1.822   3.904  13.490  0.3697  0.3916 -0.6177
19597TIP3    H180282   1.758   3.974  13.476  0.1238  0.4643  0.7056
19597TIP3    H280283   1.770   3.823  13.485  0.4960  0.3487 -1.2783
19598TIP3   OH280284   4.583   0.213  13.720 -0.6432 -0.4126 -0.4222
19598TIP3    H180285   4.512   0.229  13.658  1.4734  0.8043 -2.6803
19598TIP3    H280286   4.582   0.119  13.734 -2.6173 -0.4396 -0.4387
19599TIP3   OH280287   2.497   2.172   4.884 -0.1526  0.2633  0.2610
19599TIP3    H180288   2.558   2.135   4.820  0.8442  2.5017 -0.1843
19599TIP3    H280289   2.432   2.220   4.832 -1.7663 -1.2512  0.7864
19600TIP3   OH280290   4.464   5.426   6.351  0.2540  0.6052 -0.5380
19600TIP3    H180291   4.505   5.504   6.313 -1.0416  2.2510  1.2617
19600TIP3    H280292   4.391   5.407   6.293  1.0072  0.2551 -1.3925
19601TIP3   OH280293   2.467   6.777  14.690 -0.5545  0.4147 -0.3634
19601TIP3    H180294   2.461   6.864  14.651 -0.3385  1.3589  1.5850
19601TIP3    H280295   2.546   6.738  14.650  1.0009  2.2406  0.7504
19602TIP3   OH280296   5.770   3.370  11.098 -0.0523  0.0795 -0.4397
19602TIP3    H180297   5.744   3.284  11.064 -0.1256 -0.8410  1.7657
19602TIP3    H280298   5.773   3.358  11.192  1.6313  2.0746 -0.1788
19603TIP3   OH280299   0.061   6.116  16.851  0.3442 -0.0017 -0.3213
19603TIP3    H180300   0.074   6.117  16.946 -1.9140  0.3013  0.0319
19603TIP3    H280301   0.053   6.023  16.829 -1.0920 -0.0171  0.1433
19604TIP3   OH280302   1.708   1.532  14.716 -0.1517  0.1407  0.4208
19604TIP3    H180303   1.714   1.618  14.675  0.3399  0.7130  1.6711
19604TIP3    H280304   1.656   1.546  14.795 -0.6568 -0.8533  0.2806
19605TIP3   OH280305   0.779   2.283  14.718 -0.0436 -0.2058 -0.0248
19605TIP3    H180306   0.772   2.326  14.633  0.2929  1.1580  0.6179
19605TIP3    H280307   0.807   2.194  14.696 -1.5566 -0.3882 -1.4285
19606TIP3   OH280308   1.211   5.391  14.231  0.3421  0.1233  0.5283
19606TIP3    H180309   1.116   5.390  14.230  0.3343 -1.1133 -1.2775
19606TIP3    H280310   1.235   5.484  14.233 -0.8262  0.4686  3.1213
19607TIP3   OH280311   2.854   3.549  12.380 -0.0934 -0.0490 -0.2918
19607TIP3    H180312   2.848   3.548  12.285  0.3879 -0.2855 -0.3248
19607TIP3    H280313   2.830   3.460  12.407 -1.0658  0.2504 -0.1294
19608TIP3   OH280314   6.214   2.136   0.699  0.0333  0.1916 -0.4391
19608TIP3    H180315   6.273   2.065   0.725  1.1538  0.1149 -2.8992
19608TIP3    H280316   6.157   2.149   0.775 -0.4100 -3.5056  0.0721
19609TIP3   OH280317   1.946   4.875  11.592 -0.2538 -0.6835 -0.5007
19609TIP3    H180318   1.902   4.798  11.556 -1.2288 -0.4238  0.1351
19609TIP3    H280319   1.879   4.921  11.643  0.4287  0.3526 -0.5010
19610TIP3   OH280320   1.356   3.627  12.033 -0.3067 -0.3858 -0.2124
19610TIP3    H180321   1.429   3.566  12.044  0.1096  0.0146 -0.6760
19610TIP3    H280322   1.366   3.660  11.943 -1.3879 -0.7448 -0.4807
19611TIP3   OH280323   6.622   1.042   0.414  0.3132  0.6402 -0.0333
19611TIP3    H180324   6.707   0.999   0.414  0.9133  1.8077 -0.3048
19611TIP3    H280325   6.616   1.084   0.329 -0.1108  1.3790  0.3497
19612TIP3   OH280326   5.595   5.248  13.194 -0.1023  0.0433 -0.1189
19612TIP3    H180327   5.622   5.156  13.192  1.5813  0.4528  1.3411
19612TIP3    H280328   5.504   5.247  13.164  0.3888 -1.8864 -1.7682
19613TIP3   OH280329   5.808   0.042   1.279  0.8707  0.1671 -0.3646
19613TIP3    H180330   5.714   0.041   1.299  0.9346 -1.2455 -0.0479
19613TIP3    H280331   5.850   0.003   1.355  1.6257 -0.1220 -0.9078
19614TIP3   OH280332   6.522   3.964  13.866  0.3674  0.0725 -0.5384
19614TIP3    H180333   6.443   4.009  13.836 -0.6078  0.2451  2.1058
19614TIP3    H280334   6.516   3.877  13.827 -0.5767  0.4271 -1.2329
19615TIP3   OH280335   1.173   3.862  11.585 -0.0849 -0.6182 -0.2050
19615TIP3    H180336   1.237   3.839  11.518 -0.9565  0.5365 -1.4960
19615TIP3    H280337   1.107   3.793  11.581 -0.2541 -0.4260 -0.6988
19616TIP3   OH280338   3.276   3.004  11.761  0.3727 -0.0722  0.2835
19616TIP3    H180339   3.230   3.087  11.772 -0.9515 -0.8996  1.4404
19616TIP3    H280340   3.325   3.014  11.680  2.2218  2.6830  1.5854
19617TIP3   OH280341   6.531   4.303   0.332  0.3060  0.1409 -0.2184
19617TIP3    H180342   6.515   4.359   0.408  0.6673  0.2005 -0.1866
19617TIP3    H280343   6.455   4.245   0.328 -0.0223  0.5647 -0.1885
19618TIP3   OH280344   1.369   0.700   3.868  0.1625 -0.0982  0.1596
19618TIP3    H180345   1.286   0.709   3.820  0.7793 -0.6363 -1.0740
19618TIP3    H280346   1.342   0.683   3.958 -1.0872 -0.4660 -0.2466
19619TIP3   OH280347   6.117   0.682   0.881  0.2485  0.3098  0.0597
19619TIP3    H180348   6.115   0.778   0.888 -1.5296  0.2831  0.3377
19619TIP3    H280349   6.183   0.655   0.945  0.0142  1.2845  0.7386
19620TIP3   OH280350   3.164   2.231  12.001  0.1315 -0.6903 -0.3077
19620TIP3    H180351   3.111   2.256  11.925  0.1793 -1.5576 -0.6296
19620TIP3    H280352   3.103   2.236  12.075 -0.4221 -1.6977 -0.6766
19621TIP3   OH280353   1.155   1.369  16.029 -0.1760 -0.6350  0.2510
19621TIP3    H180354   1.092   1.403  16.093 -0.4339 -1.5788  0.5111
19621TIP3    H280355   1.216   1.441  16.015 -0.2202 -0.3534  1.4326
19622TIP3   OH280356   0.299   2.526   2.112  0.4717 -0.3510 -0.2194
19622TIP3    H180357   0.393   2.510   2.118  1.0210  2.0449 -1.3254
19622TIP3    H280358   0.272   2.545   2.202  1.3965  0.6237 -0.1394
19623TIP3   OH280359   3.050   0.478  14.086  0.3366  0.0918 -0.2185
19623TIP3    H180360   3.084   0.405  14.034  0.6323 -0.3067  0.5113
19623TIP3    H280361   2.975   0.441  14.132 -0.2983  0.6093 -0.8182
19624TIP3   OH280362   4.854   4.440  15.100  0.6213 -0.0607 -0.1589
19624TIP3    H180363   4.861   4.416  15.007  2.4386 -1.9606  0.3983
19624TIP3    H280364   4.783   4.385  15.133 -0.2262  0.8283 -0.4378
19625TIP3   OH280365   5.494   5.945  12.396  0.1531 -0.4946  0.0733
19625TIP3    H180366   5.421   5.918  12.340  0.8106 -0.0348 -1.0517
19625TIP3    H280367   5.459   6.016  12.449  0.1248  0.6518 -1.4242
19626TIP3   OH280368   3.281   2.101   2.032  0.5204  0.3761  0.7909
19626TIP3    H180369   3.224   2.025   2.043 -0.6081  1.2553  1.1918
19626TIP3    H280370   3.349   2.071   1.971 -2.1124  0.1580 -2.2971
19627TIP3   OH280371   3.473   1.230   5.144  0.3283  0.1622  0.7409
19627TIP3    H180372   3.477   1.317   5.105  0.9488  0.6726  1.8695
19627TIP3    H280373   3.525   1.175   5.086  0.7778  0.7737  0.5560
19628TIP3   OH280374   0.058   0.535   2.277 -0.5585  0.0683  0.1625
19628TIP3    H180375   0.061   0.629   2.292  1.3351  0.0265  0.2195
19628TIP3    H280376  -0.035   0.516   2.264 -0.8247  2.2705 -1.9971
19629TIP3   OH280377   3.816   2.092  11.499  0.1176 -0.0795  0.5328
19629TIP3    H180378   3.811   2.113  11.406  1.3081  2.0648  0.8877
19629TIP3    H280379   3.752   2.022  11.511  0.6560 -1.1513 -2.0659
19630TIP3   OH280380   1.619   4.542   5.879 -0.2362 -0.1395 -0.1737
19630TIP3    H180381   1.534   4.549   5.836 -0.4105  0.0089  0.1950
19630TIP3    H280382   1.614   4.603   5.953 -0.3754 -1.2750  0.7824
19631TIP3   OH280383   3.194   6.411   6.598  0.0149 -0.0768  0.1938
19631TIP3    H180384   3.217   6.332   6.648 -2.5311 -1.5734 -0.7561
19631TIP3    H280385   3.250   6.408   6.521 -0.9413 -1.7705 -0.4878
19632TIP3   OH280386   5.466   6.688   2.893  0.1488  0.5271 -0.2122
19632TIP3    H180387   5.442   6.701   2.801 -0.0533 -0.8790 -0.3856
19632TIP3    H280388   5.481   6.593   2.900  0.5959  0.6832  1.1012
19633TIP3   OH280389   5.825   1.593   5.508  0.4367 -0.3624  0.6428
19633TIP3    H180390   5.895   1.604   5.444  1.5704 -0.0236  1.9045
19633TIP3    H280391   5.818   1.498   5.520  1.4956 -0.3618  1.3653
19634TIP3   OH280392   0.149   1.430   0.371  0.4240 -0.0478  0.2939
19634TIP3    H180393   0.098   1.396   0.297 -0.5221  1.6802  0.0911
19634TIP3    H280394   0.162   1.354   0.428 -2.4458 -0.6062  0.3600
19635TIP3   OH280395   0.929   1.776  13.260  0.2723  0.1711 -0.2897
19635TIP3    H180396   0.913   1.684  13.241  0.7704 -0.0352  0.2591
19635TIP3    H280397   0.861   1.801  13.322 -0.6258  0.5219 -1.3873
19636TIP3   OH280398   2.078   4.936   5.223  0.3411 -1.0512  0.9078
19636TIP3    H180399   2.000   4.901   5.266 -0.9974 -1.3478 -1.5993
19636TIP3    H280400   2.089   5.023   5.260 -1.2267 -0.9915  1.2896
19637TIP3   OH280401   4.153   5.872   5.688 -0.6955  0.4402 -0.7267
19637TIP3    H180402   4.060   5.891   5.701 -1.8902 -3.9269 -1.1361
19637TIP3    H280403   4.187   5.859   5.777 -0.5821  1.5663 -0.5986
19638TIP3   OH280404   6.255   0.495  11.466  0.1364 -0.2203 -0.2192
19638TIP3    H180405   6.203   0.480  11.546 -0.5971  0.0078 -0.6442
19638TIP3    H280406   6.310   0.417  11.459 -1.8930 -1.6730 -1.0855
19639TIP3   OH280407   4.764   4.845  13.649  0.0655  0.1675  0.0425
19639TIP3    H180408   4.832   4.863  13.584  0.3098 -1.2181 -0.1108
19639TIP3    H280409   4.803   4.781  13.708 -2.4983 -4.5568 -2.7571
19640TIP3   OH280410   5.779   5.765   1.378  0.0012 -0.1928  0.4250
19640TIP3    H180411   5.726   5.765   1.458 -1.4684 -0.4890 -0.5031
19640TIP3    H280412   5.717   5.741   1.309  0.9708  1.0961 -0.9604
19641TIP3   OH280413   5.970   3.169   1.735  0.1797  0.0938 -0.2508
19641TIP3    H180414   5.919   3.088   1.730 -0.3343  0.3604  0.5320
19641TIP3    H280415   5.905   3.236   1.757  0.3276  0.9985 -2.3217
19642TIP3   OH280416   6.055   0.405   5.216 -0.4598  0.2418  0.1890
19642TIP3    H180417   6.034   0.323   5.171 -1.1767 -0.4674  1.7023
19642TIP3    H280418   6.148   0.398   5.237 -0.4717 -0.1081  0.1286
19643TIP3   OH280419   2.259   5.587  14.240 -0.5455 -0.0222  0.0963
19643TIP3    H180420   2.207   5.509  14.222 -4.4186  2.4973 -0.9106
19643TIP3    H280421   2.274   5.625  14.153 -2.0234  2.1545  0.7162
19644TIP3   OH280422   2.426   0.165  14.565  0.0618 -0.2525  0.3872
19644TIP3    H180423   2.455   0.254  14.541 -0.7229 -0.1273 -0.1186
19644TIP3    H280424   2.338   0.158  14.529 -0.1801 -0.9702  1.0951
19645TIP3   OH280425   1.809   6.281   6.002 -0.6201 -0.9711 -0.3292
19645TIP3    H180426   1.893   6.235   6.014  0.6800  1.2989 -0.1066
19645TIP3    H280427   1.788   6.314   6.090 -1.4090 -0.9605 -0.5190
19646TIP3   OH280428   6.274   6.498   0.570 -0.1056  0.7984 -0.0019
19646TIP3    H180429   6.338   6.548   0.621 -0.2136  0.5276  0.4041
19646TIP3    H280430   6.302   6.407   0.579  0.1259  0.7893 -0.7886
19647TIP3   OH280431   0.704   6.675  14.658 -0.1379 -0.4113 -0.3597
19647TIP3    H180432   0.623   6.669  14.606 -0.4632 -1.2966  0.2364
19647TIP3    H280433   0.676   6.713  14.741  0.0573 -0.7574 -0.1372
19648TIP3   OH280434   4.854   4.014   1.377  0.2497 -0.0969  0.1543
19648TIP3    H180435   4.798   4.082   1.340  0.9322  0.3290 -0.1128
19648TIP3    H280436   4.935   4.019   1.326  0.8341 -0.1719  1.0392
19649TIP3   OH280437   2.480   3.986  14.647  0.1507  0.0194  0.2808
19649TIP3    H180438   2.561   4.011  14.601  0.5455  1.2836  1.5960
19649TIP3    H280439   2.449   4.067  14.687 -1.1597 -0.6853  0.7571
19650TIP3   OH280440   0.947   5.345  14.191 -0.1294 -0.6252  0.0430
19650TIP3    H180441   0.919   5.321  14.280 -2.3641  1.1220 -0.0906
19650TIP3    H280442   0.889   5.417  14.166  1.9960  0.5367 -1.9621
19651TIP3   OH280443   5.604   3.092   4.248 -0.0651  0.2938  0.4164
19651TIP3    H180444   5.691   3.124   4.227 -0.2088  0.2063 -0.3426
19651TIP3    H280445   5.548   3.170   4.241 -0.1739  0.1882  0.0692
19652TIP3   OH280446   3.262   1.365  13.245 -0.4337 -0.0830  0.2021
19652TIP3    H180447   3.341   1.417  13.231 -0.5273  0.3725  1.2702
19652TIP3    H280448   3.291   1.293  13.301 -0.3792 -1.0323 -0.9897
19653TIP3   OH280449   3.484   0.206   5.805  0.4514 -0.3789 -0.2142
19653TIP3    H180450   3.409   0.237   5.857 -0.2788  0.5797 -1.7740
19653TIP3    H280451   3.507   0.121   5.845  0.8550  0.9116  2.5395
19654TIP3   OH280452   2.452   2.322   4.037 -0.6932 -0.8376 -0.0034
19654TIP3    H180453   2.502   2.399   4.065  1.3141 -2.3905  0.9315
19654TIP3    H280454   2.429   2.278   4.119 -0.4432 -2.0418 -0.5637
19655TIP3   OH280455   6.233   2.739   6.197 -0.1054  0.3120  0.0928
19655TIP3    H180456   6.179   2.751   6.275  1.1159 -1.4925  1.3176
19655TIP3    H280457   6.276   2.824   6.184 -0.1945  0.6036  1.5241
19656TIP3   OH280458   4.434   4.076   2.326 -0.4337  0.5027 -0.1640
19656TIP3    H180459   4.364   4.034   2.374  0.8748 -1.5358  0.1097
19656TIP3    H280460   4.512   4.064   2.381  0.3256  1.8131 -0.8953
19657TIP3   OH280461   3.296   0.425   1.609  0.4825  0.1489 -0.3055
19657TIP3    H180462   3.327   0.355   1.552  0.0483 -0.6748  0.4499
19657TIP3    H280463   3.299   0.387   1.697  0.1621  1.0527  0.1075
19658TIP3   OH280464   3.296   6.069  13.036 -0.1691  0.2072 -0.0127
19658TIP3    H180465   3.242   6.026  13.102 -1.4710  1.8579  0.0624
19658TIP3    H280466   3.335   5.997  12.986  0.4216 -1.0841  2.1521
19659TIP3   OH280467   0.537   6.523  14.239 -0.2730  0.1890  0.0085
19659TIP3    H180468   0.491   6.469  14.174  0.3090 -1.0590  0.5957
19659TIP3    H280469   0.630   6.515  14.216 -0.0364 -0.4904  1.1389
19660TIP3   OH280470   3.638   5.652   4.270  0.1023 -0.2849 -0.1394
19660TIP3    H180471   3.543   5.638   4.261 -0.1028  1.0977 -0.3079
19660TIP3    H280472   3.674   5.564   4.277 -0.9396 -0.9837 -2.5764
19661TIP3   OH280473   4.008   2.999  11.070  0.4289 -0.1528  0.1459
19661TIP3    H180474   3.915   2.977  11.073  0.4920 -0.4894 -0.2963
19661TIP3    H280475   4.052   2.924  11.111  0.6619 -1.0004 -1.5665
19662TIP3   OH280476   5.704   3.689   0.288 -0.0743 -0.0410 -0.2089
19662TIP3    H180477   5.642   3.624   0.257 -1.0315  0.1438  1.2092
19662TIP3    H280478   5.682   3.769   0.240 -0.7819 -0.0459  0.0984
19663TIP3   OH280479   5.031   0.456   3.634 -0.1358 -0.0694  0.1163
19663TIP3    H180480   5.075   0.508   3.701 -0.1148  1.1552 -0.8094
19663TIP3    H280481   4.938   0.465   3.653 -0.0812 -0.8905  0.8048
19664TIP3   OH280482   5.356   4.987  13.321  0.5256  0.6334 -0.3318
19664TIP3    H180483   5.268   5.007  13.289 -0.6370  0.1412  2.2754
19664TIP3    H280484   5.370   4.895  13.297  0.3949  0.7539 -0.8771
19665TIP3   OH280485   1.615   6.577   5.680  0.4160 -0.0138  1.1759
19665TIP3    H180486   1.588   6.668   5.668  0.4374  0.0288  1.4428
19665TIP3    H280487   1.688   6.582   5.742  0.9837 -0.1341  0.5412
19666TIP3   OH280488   0.356   6.808   3.041 -0.4474 -0.0864 -0.2440
19666TIP3    H180489   0.445   6.840   3.056 -0.4487 -0.2129  0.0383
19666TIP3    H280490   0.351   6.794   2.947 -0.2298  0.1039 -0.2845
19667TIP3   OH280491   3.954   6.153  13.299 -0.2003  0.3535  0.1767
19667TIP3    H180492   3.966   6.240  13.260  1.9199 -0.4659 -1.1560
19667TIP3    H280493   3.884   6.113  13.247 -0.6339  0.9495  0.2875
19668TIP3   OH280494   0.663   0.282   1.859  0.2837 -0.7427 -0.6249
19668TIP3    H180495   0.686   0.270   1.767  1.0694  0.9457 -0.6802
19668TIP3    H280496   0.595   0.349   1.858 -0.3625 -1.3680 -0.0164
19669TIP3   OH280497   4.149   5.745   4.696 -0.5089 -0.2346  0.4663
19669TIP3    H180498   4.087   5.817   4.697  0.2280  0.4158  0.0199
19669TIP3    H280499   4.178   5.738   4.605 -1.0290 -1.4994  0.3816
19670TIP3   OH280500   0.638   2.566   0.949  0.1264  0.1408  0.6796
19670TIP3    H180501   0.646   2.651   0.993 -1.2748 -0.8619  3.0579
19670TIP3    H280502   0.548   2.565   0.916  0.0316 -0.5335  0.9496
19671TIP3   OH280503   0.891   3.391   0.996 -0.7200  0.5226 -0.5016
19671TIP3    H180504   0.867   3.313   1.045  0.7403 -0.3853 -1.1500
19671TIP3    H280505   0.808   3.430   0.970 -1.5754  1.1603  2.7676
19672TIP3   OH280506   4.322   3.691  14.152  0.1115  0.1425  0.4405
19672TIP3    H180507   4.353   3.639  14.226  1.0998  0.1501  0.0392
19672TIP3    H280508   4.388   3.759  14.141 -0.1581  0.2927 -0.2916
19673TIP3   OH280509   5.590   2.763   5.588 -0.4348  0.4158 -0.4377
19673TIP3    H180510   5.590   2.855   5.614 -0.8850  0.5733 -0.9790
19673TIP3    H280511   5.498   2.739   5.584 -0.3547  0.2182 -1.2398
19674TIP3   OH280512   1.544   4.524   4.305 -0.1486  0.3504 -0.3067
19674TIP3    H180513   1.604   4.528   4.379 -0.7150 -2.2379  0.3992
19674TIP3    H280514   1.458   4.540   4.343 -0.3493 -0.0963 -0.5664
19675TIP3   OH280515   1.664   1.696   5.430  0.0476  0.5649  0.2229
19675TIP3    H180516   1.690   1.655   5.347  3.4502  0.9158  0.9673
19675TIP3    H280517   1.592   1.642   5.462 -0.3043 -0.5162 -2.1742
19676TIP3   OH280518   3.707   4.073  14.006 -0.5836  0.1437 -0.1756
19676TIP3    H180519   3.784   4.027  14.041 -0.2270  0.5962 -0.3489
19676TIP3    H280520   3.705   4.155  14.055 -1.3667 -0.1622  0.3134
19677TIP3   OH280521   3.071   4.705   5.456  0.0522 -0.1435 -0.3936
19677TIP3    H180522   3.162   4.712   5.429  0.2709  0.8969  0.5774
19677TIP3    H280523   3.059   4.611   5.472  1.4669 -0.1232  1.1249
19678TIP3   OH280524   3.497   2.831   5.488 -0.2020  0.6946 -0.0788
19678TIP3    H180525   3.562   2.901   5.486  1.0126 -0.4108 -0.7411
19678TIP3    H280526   3.517   2.777   5.411 -2.0496  0.4419 -0.4168
19679TIP3   OH280527   4.183   0.399   0.218  0.3411  0.3705  0.0672
19679TIP3    H180528   4.121   0.437   0.281 -1.9134 -0.0725 -1.7660
19679TIP3    H280529   4.240   0.472   0.195 -1.2632  1.5927 -0.2482
19680TIP3   OH280530   1.765   4.652   2.611 -0.0715 -0.0270  0.1958
19680TIP3    H180531   1.765   4.725   2.672 -0.5314 -0.2091  0.4142
19680TIP3    H280532   1.836   4.595   2.641 -1.8791 -1.4362  2.1698
19681TIP3   OH280533   0.790   0.374   4.625 -0.2227 -0.0211 -0.9681
19681TIP3    H180534   0.694   0.365   4.624 -0.1260 -1.3305 -2.7805
19681TIP3    H280535   0.808   0.441   4.559  0.0918  0.5456 -0.3094
19682TIP3   OH280536   0.851   6.045  16.773 -0.3629  0.3007  0.4122
19682TIP3    H180537   0.783   6.022  16.835 -2.0632  1.5064 -0.9049
19682TIP3    H280538   0.823   6.129  16.737  1.3552  0.3874 -0.8540
19683TIP3   OH280539   2.392   0.736   2.385 -0.6620  0.3795 -0.2024
19683TIP3    H180540   2.350   0.656   2.353 -2.3612 -0.1020  2.8309
19683TIP3    H280541   2.320   0.796   2.401  0.0865  0.8574  1.7234
19684TIP3   OH280542   6.281   4.535  13.453 -0.5148 -0.0880 -0.9189
19684TIP3    H180543   6.294   4.542  13.358  1.7375 -1.1311 -0.7666
19684TIP3    H280544   6.195   4.495  13.463 -0.4632 -0.6986 -2.5602
19685TIP3   OH280545   4.056   0.655   5.411 -0.0423  0.2744 -0.2902
19685TIP3    H180546   4.076   0.621   5.498 -0.7072 -1.8602 -0.8990
19685TIP3    H280547   4.132   0.708   5.388  1.4212 -1.3462  0.5429
19686TIP3   OH280548   4.554   0.398  11.118 -0.4641 -0.0519  0.2339
19686TIP3    H180549   4.508   0.335  11.174 -0.1447 -0.5173 -0.0196
19686TIP3    H280550   4.643   0.364  11.112 -0.3110  0.3791  0.0188
19687TIP3   OH280551   3.211   2.883   1.172  0.6618 -0.1675 -0.1239
19687TIP3    H180552   3.173   2.947   1.232  1.4100  0.7083 -0.5654
19687TIP3    H280553   3.141   2.819   1.158  0.2887 -0.0888  1.2275
19688TIP3   OH280554   6.377   4.344   0.656  0.7916  0.1112 -0.1022
19688TIP3    H180555   6.319   4.326   0.729  1.2163  2.0118  0.7518
19688TIP3    H280556   6.319   4.354   0.580  0.2980 -1.1504  0.0788
19689TIP3   OH280557   4.125   1.946  15.127 -0.3704  0.4428  0.2238
19689TIP3    H180558   4.069   1.990  15.190  0.5584  0.3852  1.1148
19689TIP3    H280559   4.196   2.008  15.110 -0.3194  0.2362 -0.3394
19690TIP3   OH280560   4.950   4.529   3.360 -0.1591 -0.2857  0.0337
19690TIP3    H180561   4.996   4.605   3.394  0.9414 -0.4828 -0.9403
19690TIP3    H280562   4.889   4.565   3.295  1.1081 -0.2857 -1.2003
19691TIP3   OH280563   4.321   6.346  13.982 -0.2244  0.7369  0.0979
19691TIP3    H180564   4.241   6.299  13.958  0.6639 -0.1040 -1.4084
19691TIP3    H280565   4.377   6.279  14.023  0.1284  1.0441  0.1288
19692TIP3   OH280566   1.485   0.246  16.393  0.4047 -0.3882  0.8120
19692TIP3    H180567   1.427   0.322  16.404 -1.1672 -1.5998  1.2154
19692TIP3    H280568   1.486   0.231  16.298 -1.2962 -1.3247  0.9075
19693TIP3   OH280569   6.812   2.596  12.469 -0.5199 -0.2437 -0.2965
19693TIP3    H180570   6.784   2.642  12.390 -1.3291 -0.2356 -0.0150
19693TIP3    H280571   6.763   2.638  12.540 -0.5482 -0.9000  0.0850
19694TIP3   OH280572   5.052   4.727  16.542  0.6282  0.3744  0.2412
19694TIP3    H180573   5.015   4.755  16.459  0.2469  0.3041  0.3855
19694TIP3    H280574   5.117   4.794  16.564  0.1864  0.7995  0.2616
19695TIP3   OH280575   1.330   3.719   4.070  0.4366 -0.1876 -0.2214
19695TIP3    H180576   1.275   3.661   4.017  0.0478  0.1359 -0.1796
19695TIP3    H280577   1.268   3.768   4.124  0.8742 -1.6009  1.6945
19696TIP3   OH280578   2.648   3.966   4.988  0.5968 -0.5343 -0.3788
19696TIP3    H180579   2.619   3.882   5.025  1.2379 -0.9584 -0.8212
19696TIP3    H280580   2.568   4.017   4.978  0.4465 -0.1197  2.2620
19697TIP3   OH280581   1.156   3.250  11.906  0.6067 -0.1799 -0.2919
19697TIP3    H180582   1.142   3.229  11.998  0.5793 -0.4606 -0.3595
19697TIP3    H280583   1.142   3.168  11.860 -1.1227  0.3264 -0.7353
19698TIP3   OH280584   6.758   0.822   3.145  0.4474  0.5010  0.0088
19698TIP3    H180585   6.815   0.745   3.145  0.3760  0.4268 -1.1295
19698TIP3    H280586   6.809   0.889   3.100 -0.8582  0.0083 -2.3595
19699TIP3   OH280587   5.374   6.234   0.154  0.4445 -0.4726 -0.0326
19699TIP3    H180588   5.444   6.267   0.098  0.5333 -0.5703  0.0219
19699TIP3    H280589   5.321   6.179   0.096 -0.0903  0.2976 -0.2956
19700TIP3   OH280590   2.489   0.745  15.243  0.2865 -0.4578 -0.3175
19700TIP3    H180591   2.502   0.823  15.189 -0.1477 -2.1415 -3.0547
19700TIP3    H280592   2.541   0.677  15.200  1.1980 -1.5797  2.3644
19701TIP3   OH280593   4.678   0.884  14.836  0.0184  0.7736  0.3390
19701TIP3    H180594   4.649   0.819  14.771 -2.1704  1.0369  0.9811
19701TIP3    H280595   4.613   0.954  14.831  1.4825  2.2172  0.7589
19702TIP3   OH280596   3.090   0.659  15.498 -0.0575  0.4393 -0.4777
19702TIP3    H180597   3.137   0.601  15.556 -0.5522  0.5848  0.0803
19702TIP3    H280598   3.145   0.665  15.420 -0.5696 -1.7467 -1.0758
19703TIP3   OH280599   1.012   2.654  12.323 -0.5318  0.2603 -0.2338
19703TIP3    H180600   0.928   2.686  12.354  0.2783  0.9519  1.3466
19703TIP3    H280601   1.067   2.732  12.318  0.5441 -0.4251  0.5705
19704TIP3   OH280602   4.110   4.368   1.950  0.3194  0.2456 -0.3159
19704TIP3    H180603   4.020   4.377   1.981  0.1189  1.0084 -1.0571
19704TIP3    H280604   4.163   4.414   2.016  0.0347  0.7630 -0.4381
19705TIP3   OH280605   0.747   2.992   3.199  0.1938 -0.2735  0.1459
19705TIP3    H180606   0.842   2.990   3.194  0.1817 -0.1319 -0.1683
19705TIP3    H280607   0.720   3.046   3.125 -0.2018 -1.4902 -0.6269
19706TIP3   OH280608   5.147   3.586  12.515 -0.1613  0.2875 -0.0322
19706TIP3    H180609   5.144   3.682  12.506 -1.1219  0.4342  1.5023
19706TIP3    H280610   5.084   3.554  12.451 -1.1644  0.7945  0.6882
19707TIP3   OH280611   0.036   2.807   1.589 -0.0744 -0.2085 -0.1117
19707TIP3    H180612   0.013   2.824   1.681  1.2243 -0.5273  0.2970
19707TIP3    H280613   0.106   2.870   1.571  1.4056 -1.7933 -0.0931
19708TIP3   OH280614   5.936   4.532  10.630 -0.7501  0.3667  0.1084
19708TIP3    H180615   5.909   4.454  10.580  1.3658 -1.3228  1.4302
19708TIP3    H280616   5.976   4.590  10.565 -1.0984 -0.2648 -0.6870
19709TIP3   OH280617   5.224   6.772  14.713 -0.1542  0.1210  0.2755
19709TIP3    H180618   5.220   6.847  14.773 -0.4330  1.1331 -0.9651
19709TIP3    H280619   5.268   6.704  14.764  0.4859  1.2528  1.3140
19710TIP3   OH280620   6.488   5.721  16.818 -0.1814  0.2222 -0.1593
19710TIP3    H180621   6.424   5.681  16.877  1.6494 -0.9342  1.1538
19710TIP3    H280622   6.498   5.657  16.747  0.4806 -0.2394  0.3381
19711TIP3   OH280623   5.791   1.324   5.617 -0.0690  0.1675 -0.0065
19711TIP3    H180624   5.779   1.373   5.699  2.3674 -1.0628  1.1730
19711TIP3    H280625   5.740   1.244   5.630 -0.3534  0.3387 -0.0501
19712TIP3   OH280626   0.386   0.355   3.010  0.0640  0.2791  0.3696
19712TIP3    H180627   0.457   0.395   2.962 -0.0627  0.9641  0.7442
19712TIP3    H280628   0.393   0.391   3.099 -1.0369  0.7398  0.2877
19713TIP3   OH280629   1.222   4.365   4.013  0.2365 -0.0619 -0.0982
19713TIP3    H180630   1.306   4.409   4.000  0.8865 -1.1352  0.3339
19713TIP3    H280631   1.235   4.312   4.092 -0.3651 -1.3562 -0.8407
19714TIP3   OH280632   6.575   1.022  11.223  0.0249  0.1954  0.1166
19714TIP3    H180633   6.523   1.069  11.158 -0.6694  1.1051  1.2919
19714TIP3    H280634   6.514   0.960  11.263  0.5105 -0.5319 -0.2426
19715TIP3   OH280635   1.238   2.944  14.684  0.0228  0.4399 -0.3524
19715TIP3    H180636   1.311   2.914  14.738 -2.4400 -0.3837  2.7899
19715TIP3    H280637   1.238   2.884  14.609  2.5028  0.4732 -0.4532
19716TIP3   OH280638   2.304   3.263   5.146 -0.1791 -0.4095  0.3734
19716TIP3    H180639   2.306   3.188   5.205 -0.9386 -0.4411  0.3794
19716TIP3    H280640   2.351   3.235   5.068  1.6773 -0.0428  1.3162
19717TIP3   OH280641   4.300   4.436  14.000 -0.4148  0.2428  0.6184
19717TIP3    H180642   4.328   4.478  13.919 -1.2616 -0.4923 -0.0827
19717TIP3    H280643   4.239   4.499  14.040 -2.7719 -0.7680 -1.1171
19718TIP3   OH280644   4.466   3.660   2.996 -0.5113  0.3333  0.4361
19718TIP3    H180645   4.468   3.583   3.052 -1.7510  1.2745  1.8396
19718TIP3    H280646   4.445   3.732   3.054 -0.5272  1.5777 -1.0333
19719TIP3   OH280647   3.861   3.051  17.013 -0.3373  0.1383  0.0932
19719TIP3    H180648   3.897   3.107  17.082 -0.7082  1.2213 -0.5690
19719TIP3    H280649   3.771   3.034  17.041 -0.3636  0.2496  0.0770
19720TIP3   OH280650   0.143   5.146   2.718  0.4813 -0.3586  0.4564
19720TIP3    H180651   0.198   5.213   2.678  1.6663 -1.2788  0.4617
19720TIP3    H280652   0.054   5.175   2.703  0.9526  0.6345 -0.5442
19721TIP3   OH280653   0.656   6.392   4.569  0.1366  0.2141  0.0930
19721TIP3    H180654   0.680   6.454   4.639  1.6770 -0.6759  0.3977
19721TIP3    H280655   0.732   6.392   4.511 -0.3767 -0.4609 -0.5851
19722TIP3   OH280656   4.649   6.109  14.072 -0.0477  0.2237  0.6840
19722TIP3    H180657   4.715   6.178  14.063 -1.2891  1.3611  0.0482
19722TIP3    H280658   4.657   6.081  14.163 -1.9707  3.8660  2.1917
19723TIP3   OH280659   2.468   1.432  16.794 -0.6988 -0.2483  0.2316
19723TIP3    H180660   2.497   1.397  16.878 -0.2682 -1.9822 -0.5807
19723TIP3    H280661   2.379   1.464  16.810 -0.1145  0.7513  1.6395
19724TIP3   OH280662   5.903   1.037  15.112 -0.6967 -0.2822 -0.2460
19724TIP3    H180663   5.945   1.064  15.030 -2.4077  0.4554 -0.9405
19724TIP3    H280664   5.836   1.104  15.127  0.4071  0.3336  2.4872
19725TIP3   OH280665   2.474   2.434  15.405 -0.2576  0.5701  0.5042
19725TIP3    H180666   2.418   2.375  15.354  1.7032 -0.1282 -0.9277
19725TIP3    H280667   2.412   2.489  15.454 -2.2003 -0.0333 -1.1420
19726TIP3   OH280668   2.348   2.064  11.495  0.0324 -0.6334  0.1181
19726TIP3    H180669   2.362   2.159  11.490  0.4317 -0.7121 -0.2684
19726TIP3    H280670   2.435   2.028  11.508 -0.3731 -0.7598  3.4574
19727TIP3   OH280671   2.375   2.308  17.097  0.0115  0.0932 -0.5514
19727TIP3    H180672   2.287   2.317  17.061  0.3532  1.0196 -1.1741
19727TIP3    H280673   2.433   2.347  17.031  0.6617  1.7327  0.9343
19728TIP3   OH280674   3.113   2.650   4.724  0.6759  0.7153  0.8349
19728TIP3    H180675   3.177   2.679   4.660  0.4577  1.9090  1.1371
19728TIP3    H280676   3.137   2.559   4.743  2.4528  1.2268  1.1479
19729TIP3   OH280677   2.744   5.994  13.722 -0.7062  0.3312  0.1002
19729TIP3    H180678   2.711   5.957  13.803  0.2452 -2.4084 -0.6781
19729TIP3    H280679   2.683   5.964  13.655 -1.2826  2.2708 -0.3076
19730TIP3   OH280680   5.527   2.071  13.507  0.1706  0.4826  1.1797
19730TIP3    H180681   5.456   2.126  13.475  0.9830  1.3709  0.8428
19730TIP3    H280682   5.569   2.037  13.428  1.1935  1.3844  1.3134
19731TIP3   OH280683   3.801   1.870  15.132  0.5531 -0.0015 -0.0142
19731TIP3    H180684   3.768   1.780  15.128  0.2799 -0.0076  1.7306
19731TIP3    H280685   3.836   1.879  15.220 -0.1939  1.8514  0.1421
19732TIP3   OH280686   2.382   3.074   0.847  0.4649 -0.0357  0.2705
19732TIP3    H180687   2.364   3.158   0.891 -0.5165 -1.2176  2.2557
19732TIP3    H280688   2.448   3.032   0.902  0.2731 -0.9563 -0.1943
19733TIP3   OH280689   6.674   6.522   1.550  0.5509  0.3832  0.3158
19733TIP3    H180690   6.642   6.515   1.460 -0.5458 -0.7075  0.7598
19733TIP3    H280691   6.726   6.444   1.563  0.9538  0.6880  0.5439
19734TIP3   OH280692   4.194   1.478   4.657 -0.0853 -0.3025 -0.4331
19734TIP3    H180693   4.198   1.545   4.726 -3.4716  0.6277 -0.9885
19734TIP3    H280694   4.197   1.395   4.705  0.9022  0.2562  0.5263
19735TIP3   OH280695   0.558   5.667  10.693  0.3580  0.2170  0.1416
19735TIP3    H180696   0.501   5.736  10.726 -0.6105 -0.2802 -0.4301
19735TIP3    H280697   0.559   5.681  10.598  0.9401  0.0164  0.1111
19736TIP3   OH280698   3.398   0.828   2.245 -0.3106  0.1731 -0.0734
19736TIP3    H180699   3.375   0.745   2.287 -1.2537  0.9208  0.9627
19736TIP3    H280700   3.483   0.852   2.282  1.3824 -1.6788 -2.4995
19737TIP3   OH280701   1.082   3.873  13.022  0.5078  0.1045  0.2443
19737TIP3    H180702   1.142   3.861  13.095  0.6322 -0.0373  0.1182
19737TIP3    H280703   1.093   3.794  12.968  0.1381  0.0311  0.2737
19738TIP3   OH280704   4.695   1.719   1.651 -0.0847  0.1669  0.2682
19738TIP3    H180705   4.676   1.626   1.665 -0.0187  0.2482  0.9478
19738TIP3    H280706   4.691   1.757   1.739  1.0815  0.5795  0.1611
19739TIP3   OH280707   1.334   1.049  16.810 -0.1171  0.1642 -0.2984
19739TIP3    H180708   1.331   1.005  16.725 -0.9441  1.2273 -0.8456
19739TIP3    H280709   1.402   1.115  16.800  1.2690 -1.0838  0.5909
19740TIP3   OH280710   2.491   3.274   4.910 -0.9294  0.6188  0.5606
19740TIP3    H180711   2.423   3.309   4.852 -0.3158 -0.8420 -1.1371
19740TIP3    H280712   2.571   3.319   4.883 -0.6419 -0.0478  0.2832
19741TIP3   OH280713   0.715   0.168   1.095 -0.4473  0.0503 -0.0116
19741TIP3    H180714   0.685   0.123   1.016  1.5034 -0.7228 -0.3732
19741TIP3    H280715   0.798   0.125   1.117  0.6435  2.3199  0.6406
19742TIP3   OH280716   6.809   4.037  13.237  0.1634  0.5417 -0.1665
19742TIP3    H180717   6.883   3.978  13.221  0.8864  1.3578  0.1242
19742TIP3    H280718   6.792   4.079  13.153 -0.1953  0.1178 -0.3130
19743TIP3   OH280719   2.607   1.332   2.226  0.0599  0.7154 -0.3605
19743TIP3    H180720   2.576   1.249   2.262 -0.4812  0.8520 -0.4918
19743TIP3    H280721   2.692   1.313   2.189 -0.5861 -0.0650 -1.4819
19744TIP3   OH280722   3.015   5.173  15.321 -0.0778 -0.3754  0.6527
19744TIP3    H180723   3.070   5.125  15.259  0.4056 -0.4243  1.1064
19744TIP3    H280724   2.935   5.121  15.328 -0.3494 -0.1022 -0.3061
19745TIP3   OH280725   3.507   4.001   3.665 -0.6670  0.5449 -0.1553
19745TIP3    H180726   3.539   4.051   3.740 -1.6275 -0.9225  1.2923
19745TIP3    H280727   3.586   3.958   3.630 -0.0427  2.0526 -0.6580
19746TIP3   OH280728   2.557   4.653   0.697  0.4857  0.0505 -0.3614
19746TIP3    H180729   2.499   4.660   0.772 -0.3212 -2.0692 -0.7246
19746TIP3    H280730   2.640   4.692   0.727 -0.3019  0.7213  1.0421
19747TIP3   OH280731   1.783   0.263   6.516 -0.5913 -0.1304  0.2387
19747TIP3    H180732   1.763   0.316   6.439  1.3854  0.9582  0.4148
19747TIP3    H280733   1.750   0.315   6.589  0.2001  0.2803  0.3167
19748TIP3   OH280734   3.342   0.998   0.722 -0.9183 -0.1886  0.9655
19748TIP3    H180735   3.404   1.050   0.773  0.1954  1.4405 -1.8410
19748TIP3    H280736   3.256   1.037   0.741 -0.4687  0.6927  1.2075
19749TIP3   OH280737   1.893   3.934   5.497 -0.3479  0.3253  0.7641
19749TIP3    H180738   1.851   4.016   5.523  0.8636  0.7398  1.5126
19749TIP3    H280739   1.851   3.867   5.551 -0.4589  0.6467  1.0746
19750TIP3   OH280740   4.827   1.296  15.828  0.1416  0.7444  0.2829
19750TIP3    H180741   4.920   1.298  15.853 -0.5618  0.6629  3.1969
19750TIP3    H280742   4.813   1.379  15.782  1.2029  1.7768  1.7218
19751TIP3   OH280743   1.935   2.919   1.797  0.2258 -0.4999  0.2489
19751TIP3    H180744   2.029   2.902   1.801  0.4206  0.6430  0.9478
19751TIP3    H280745   1.914   2.918   1.704  0.9400 -0.7096  0.0856
19752TIP3   OH280746   4.333   1.191  15.487  0.1404 -0.1240  0.2823
19752TIP3    H180747   4.313   1.146  15.570 -0.2944  0.5421  0.5451
19752TIP3    H280748   4.357   1.120  15.427  1.5072 -0.5345  1.2634
19753TIP3   OH280749   6.024   3.833  16.030 -0.4265  0.1266  0.0455
19753TIP3    H180750   6.102   3.831  15.975 -0.9159  0.8176 -0.7068
19753TIP3    H280751   6.053   3.800  16.115  0.5091 -0.2898 -0.4252
19754TIP3   OH280752   4.963   5.680  11.052 -0.0840  0.3369  0.3211
19754TIP3    H180753   4.954   5.712  10.962 -0.3988  0.0656  0.2547
19754TIP3    H280754   5.043   5.628  11.051  0.4413  1.1209  0.4310
19755TIP3   OH280755   1.105   5.939  13.791 -0.2850  0.2650 -0.3142
19755TIP3    H180756   1.113   5.976  13.703  2.9354 -0.4699 -0.4372
19755TIP3    H280757   1.102   6.015  13.849 -0.5503  0.7329 -0.9309
19756TIP3   OH280758   6.172   6.054   4.365  0.3565  0.0961 -0.2565
19756TIP3    H180759   6.244   6.052   4.427  0.9660  3.2190 -0.6877
19756TIP3    H280760   6.209   6.020   4.284  1.2035  1.0294 -0.2879
19757TIP3   OH280761   2.766   2.548  17.039 -0.0787 -0.8776  0.0245
19757TIP3    H180762   2.804   2.469  17.078  1.6693  1.4482  3.5637
19757TIP3    H280763   2.841   2.606  17.024 -1.5256  1.1762  0.2598
19758TIP3   OH280764   0.872   1.197  11.927  0.0959  0.1206 -0.1688
19758TIP3    H180765   0.938   1.135  11.956  0.7008  0.3285 -1.0782
19758TIP3    H280766   0.917   1.282  11.926  0.6432 -0.0901 -3.2882
19759TIP3   OH280767   5.321   4.495   4.459 -0.3995  0.1875  0.2204
19759TIP3    H180768   5.266   4.492   4.381 -1.6666  2.0317  0.9826
19759TIP3    H280769   5.353   4.585   4.462  0.3719 -0.1065  1.3437
19760TIP3   OH280770   3.726   2.132   1.335 -0.1029 -0.0692  0.1303
19760TIP3    H180771   3.721   2.092   1.422 -1.0161 -2.0067 -0.7445
19760TIP3    H280772   3.687   2.067   1.277  0.3426  1.2417 -1.7236
19761TIP3   OH280773   4.147   0.780   3.245  0.1150  0.7261 -0.5109
19761TIP3    H180774   4.131   0.828   3.164  2.0281  4.0650  0.8874
19761TIP3    H280775   4.074   0.803   3.301 -0.6353 -0.6982 -0.8625
19762TIP3   OH280776   6.486   6.359   2.636 -0.4284 -0.2068 -0.4996
19762TIP3    H180777   6.516   6.337   2.547  0.6781 -0.3128 -0.1153
19762TIP3    H280778   6.484   6.275   2.682  2.2840  0.1735  0.5167
19763TIP3   OH280779   5.723   6.585  15.923  0.0710  0.1393 -0.4037
19763TIP3    H180780   5.691   6.645  15.856  0.6816  1.9314  0.8183
19763TIP3    H280781   5.657   6.589  15.992 -0.8021 -2.0678 -1.0346
19764TIP3   OH280782   5.511   6.524  10.662 -0.0249  0.1733  0.0963
19764TIP3    H180783   5.547   6.612  10.658 -1.8607  0.9190 -1.0412
19764TIP3    H280784   5.509   6.494  10.572  1.4834 -1.4700  0.5545
19765TIP3   OH280785   5.551   0.512  10.762  0.0145 -0.4387  0.2903
19765TIP3    H180786   5.580   0.603  10.756  0.0201 -0.5004 -0.8482
19765TIP3    H280787   5.491   0.501  10.688 -1.1696 -0.9462  1.2920
19766TIP3   OH280788   6.382   5.299  13.225  0.1498 -0.0221  0.1025
19766TIP3    H180789   6.422   5.259  13.147 -1.6059 -1.0573 -0.3302
19766TIP3    H280790   6.363   5.389  13.198  0.1138 -0.1931 -0.4632
19767TIP3   OH280791   6.837   2.126   3.204  0.6414 -0.6004  0.3548
19767TIP3    H180792   6.795   2.205   3.170  0.0178 -1.1325 -0.1665
19767TIP3    H280793   6.846   2.141   3.298  0.5425  0.0886  0.2601
19768TIP3   OH280794   5.880   3.476  13.850  0.2563 -0.5066 -0.0202
19768TIP3    H180795   5.948   3.442  13.908 -0.2301 -0.5416  0.5445
19768TIP3    H280796   5.871   3.568  13.874 -0.7205 -0.7882  0.7452
19769TIP3   OH280797   5.375   1.122  11.039 -0.6579  0.1203  0.6181
19769TIP3    H180798   5.289   1.120  10.999 -0.1546  1.1804 -0.5838
19769TIP3    H280799   5.432   1.160  10.972  0.5667  0.2981  1.7150
19770TIP3   OH280800   1.746   0.192  14.877  0.5607 -0.2742  0.0935
19770TIP3    H180801   1.781   0.279  14.862  3.0823 -1.3426 -0.8593
19770TIP3    H280802   1.788   0.162  14.958 -0.8897 -0.3249  0.8442
19771TIP3   OH280803   2.232   6.634   3.345 -0.4179 -0.4002 -0.1306
19771TIP3    H180804   2.143   6.661   3.325  0.0926  1.2316 -0.3754
19771TIP3    H280805   2.271   6.616   3.259  0.3239  1.8021 -0.3182
19772TIP3   OH280806   2.766   4.748   4.582 -0.2028 -0.1508 -0.4487
19772TIP3    H180807   2.771   4.827   4.528 -2.1205  0.2498 -0.1050
19772TIP3    H280808   2.800   4.678   4.526 -1.1136  0.4478 -1.8067
19773TIP3   OH280809   1.204   5.951   4.430  0.1415  0.4455  0.6061
19773TIP3    H180810   1.261   6.016   4.390 -0.8710  1.7542  1.2283
19773TIP3    H280811   1.123   5.957   4.381  0.7747 -2.1006 -0.9300
19774TIP3   OH280812   0.345   1.219   1.204 -0.2377  0.5349  0.5243
19774TIP3    H180813   0.379   1.181   1.285 -1.2465  1.5814  1.4767
19774TIP3    H280814   0.271   1.273   1.232 -0.5727  0.9741 -1.0961
19775TIP3   OH280815   2.812   5.995   4.472  0.4551  0.1090 -0.7245
19775TIP3    H180816   2.863   5.918   4.446  0.1604  0.1401 -1.4416
19775TIP3    H280817   2.751   5.963   4.538  1.0562 -0.0366 -0.2313
19776TIP3   OH280818   6.243   6.226   0.759 -0.3434  0.1397 -0.2331
19776TIP3    H180819   6.296   6.209   0.682  1.4132  0.5657  0.8233
19776TIP3    H280820   6.185   6.150   0.766  1.8794 -1.6414 -0.0344
19777TIP3   OH280821   5.016   0.607  15.604  0.0367 -0.2804 -0.3592
19777TIP3    H180822   5.092   0.581  15.553  0.7264 -1.6420  1.2479
19777TIP3    H280823   4.987   0.526  15.646 -1.3164  0.5195  0.3224
19778TIP3   OH280824   4.799   3.102   2.140 -0.1149 -0.1490 -0.3607
19778TIP3    H180825   4.715   3.110   2.184  1.2204 -0.8141  2.5629
19778TIP3    H280826   4.830   3.014   2.162  2.2936  0.8419  0.5719
19779TIP3   OH280827   4.411   2.177   0.412  0.2703  0.1954 -0.4595
19779TIP3    H180828   4.395   2.271   0.417 -1.2007 -0.0651  0.2546
19779TIP3    H280829   4.411   2.158   0.318 -1.5437  0.5985 -0.5722
19780TIP3   OH280830   3.942   4.847   0.131 -0.8595  0.4766  0.6233
19780TIP3    H180831   4.015   4.867   0.189  0.3939 -1.7815 -0.0459
19780TIP3    H280832   3.979   4.787   0.066 -2.6430  1.4838 -1.4467
19781TIP3   OH280833   2.638   2.090  12.460 -0.0273  0.5874 -0.0656
19781TIP3    H180834   2.545   2.108  12.474 -0.2574 -0.4114 -0.2127
19781TIP3    H280835   2.683   2.161  12.504 -0.8659  1.1600 -0.1069
19782TIP3   OH280836   2.860   0.783   2.763 -0.1186 -0.1746 -0.9861
19782TIP3    H180837   2.952   0.797   2.786 -0.6759  0.4382  1.0758
19782TIP3    H280838   2.818   0.759   2.846 -2.1260  1.2253 -1.5115
19783TIP3   OH280839   1.115   5.282  16.064 -0.2712  0.2234  0.3333
19783TIP3    H180840   1.090   5.354  16.006  2.1725  1.2869  0.4821
19783TIP3    H280841   1.140   5.211  16.005  0.5260  0.6960  0.0791
19784TIP3   OH280842   3.896   5.260  15.282  0.4125  0.8062 -0.0487
19784TIP3    H180843   3.863   5.324  15.219 -0.2065 -0.3953 -0.9847
19784TIP3    H280844   3.970   5.304  15.324  1.2442  1.4682 -2.0392
19785TIP3   OH280845   4.424   5.344   0.016  0.1051  0.4564 -0.2196
19785TIP3    H180846   4.443   5.381   0.102  0.1599 -0.9432  0.4006
19785TIP3    H280847   4.407   5.420  -0.040 -1.0413  1.3590  1.2808
19786TIP3   OH280848   1.612   3.106   2.322  0.2699 -0.1255 -0.1586
19786TIP3    H180849   1.606   3.011   2.324  0.3275 -0.1537  2.3934
19786TIP3    H280850   1.701   3.124   2.292  0.2075 -0.8606 -0.8023
19787TIP3   OH280851   0.969   4.947   1.424 -0.1524  0.0427 -0.1040
19787TIP3    H180852   0.893   4.909   1.469 -1.0299  2.5806  0.7858
19787TIP3    H280853   0.953   5.042   1.427  1.7534  0.5312 -2.3068
19788TIP3   OH280854   1.689   5.676  16.465  0.1207 -0.2088 -0.0209
19788TIP3    H180855   1.700   5.724  16.547 -1.7073 -1.1846  0.8754
19788TIP3    H280856   1.646   5.594  16.491  0.3866 -0.9807 -1.8510
19789TIP3   OH280857   0.987   6.641   5.746 -0.5576 -0.6488 -0.3434
19789TIP3    H180858   0.986   6.597   5.832 -2.0277  0.2183  0.1028
19789TIP3    H280859   1.080   6.639   5.720 -0.1011 -1.0261  1.2039
19790TIP3   OH280860   1.944   1.837  12.506 -0.4259 -0.4177  0.3582
19790TIP3    H180861   1.957   1.875  12.419 -1.5490 -1.8412 -0.4932
19790TIP3    H280862   2.030   1.806  12.532  0.0015  0.4021 -0.0690
19791TIP3   OH280863   1.570   1.770   2.788 -0.0588 -0.0587 -0.2032
19791TIP3    H180864   1.623   1.748   2.864 -0.8250 -0.1675  0.3109
19791TIP3    H280865   1.495   1.818   2.824 -0.4517 -0.1532 -0.8812
19792TIP3   OH280866   4.950   1.449  12.987 -0.0299  0.1695  0.3990
19792TIP3    H180867   4.967   1.430  13.079  1.3461 -0.5159  0.0362
19792TIP3    H280868   4.937   1.363  12.946 -1.4903  0.5150  0.0925
19793TIP3   OH280869   6.622   5.568   0.745  0.5087  0.1042 -0.3199
19793TIP3    H180870   6.635   5.518   0.826  2.9789  0.1322 -0.6055
19793TIP3    H280871   6.634   5.659   0.771 -0.6492  0.2886 -0.3950
19794TIP3   OH280872   5.859   0.812  14.366 -0.6366  0.1612 -0.1835
19794TIP3    H180873   5.863   0.886  14.306 -0.0855  0.0384 -0.3048
19794TIP3    H280874   5.949   0.780  14.372 -0.9009 -0.6539 -0.3306
19795TIP3   OH280875   4.328   3.690   2.649 -0.1275 -0.3921 -0.1138
19795TIP3    H180876   4.402   3.655   2.600 -0.8298  0.2103 -1.6901
19795TIP3    H280877   4.366   3.721   2.731  1.0412 -1.7379 -0.1076
19796TIP3   OH280878   3.591   1.901  16.406 -0.3699  0.5351 -0.4435
19796TIP3    H180879   3.629   1.929  16.322  1.6830 -1.5944 -0.3252
19796TIP3    H280880   3.666   1.883  16.462 -1.7005  1.5978  1.8151
19797TIP3   OH280881   0.588   4.011  10.614 -0.3532 -0.0950 -0.4101
19797TIP3    H180882   0.551   3.923  10.606  0.4913 -0.6536  1.3466
19797TIP3    H280883   0.683   3.997  10.617 -0.1277  1.0194 -1.4784
19798TIP3   OH280884   2.563   5.810  10.992 -0.2786  0.2113  0.4398
19798TIP3    H180885   2.533   5.741  11.051  1.8934  0.0020  1.3908
19798TIP3    H280886   2.487   5.829  10.937 -0.9292 -3.0445  0.0041
19799TIP3   OH280887   2.901   5.836   2.433 -0.1692 -0.1600  0.3254
19799TIP3    H180888   2.966   5.847   2.363 -0.0123  1.5621  0.7002
19799TIP3    H280889   2.888   5.925   2.467 -0.0751 -0.9744  2.6410
19800TIP3   OH280890   6.431   4.772   4.412 -0.1542 -0.3351  0.2647
19800TIP3    H180891   6.503   4.815   4.366  0.4362 -0.4624  1.0472
19800TIP3    H280892   6.352   4.802   4.366  0.3686  0.0642 -0.3989
19801TIP3   OH280893   1.451   0.329   2.374 -0.1779 -0.1638  0.4021
19801TIP3    H180894   1.491   0.404   2.330  0.9031 -0.7427  0.3825
19801TIP3    H280895   1.503   0.317   2.453 -1.8894  0.6407  1.7164
19802TIP3   OH280896   6.838   0.056  16.373 -0.2516  0.8071 -0.2617
19802TIP3    H180897   6.917   0.043  16.320 -1.5425 -2.6119 -1.6858
19802TIP3    H280898   6.766   0.054  16.310 -1.8197 -2.6914  1.3097
19803TIP3   OH280899   1.038   5.076  13.594  0.2871  0.6907 -0.0524
19803TIP3    H180900   1.081   5.154  13.559  0.3838  0.9129  0.5517
19803TIP3    H280901   0.993   5.038  13.519 -0.7259  1.9624 -0.1370
19804TIP3   OH280902   4.277   0.765  14.739 -0.5191  0.3606 -0.1634
19804TIP3    H180903   4.237   0.809  14.814  0.5933  1.8987 -0.4347
19804TIP3    H280904   4.361   0.809  14.726  0.0554 -0.9740 -1.2950
19805TIP3   OH280905   5.605   6.439   3.057  0.2432  0.0790 -0.1304
19805TIP3    H180906   5.632   6.443   3.149  0.1213  2.2501 -0.1229
19805TIP3    H280907   5.511   6.424   3.060  0.1158  0.8724  0.1492
19806TIP3   OH280908   4.071   6.698  15.213  0.2969 -0.0033 -0.5628
19806TIP3    H180909   4.045   6.790  15.213  0.9828  0.1954  0.2390
19806TIP3    H280910   4.037   6.663  15.295  1.8932  0.0797  0.1651
19807TIP3   OH280911   3.073   2.238   5.139 -0.0338  0.1302 -0.6691
19807TIP3    H180912   3.016   2.314   5.142 -0.9218 -0.5356  0.5833
19807TIP3    H280913   3.037   2.182   5.071  0.3493  0.6139 -1.2758
19808TIP3   OH280914   1.421   3.522   1.027 -0.9695  0.2553 -0.9193
19808TIP3    H180915   1.354   3.518   0.959 -2.5525  1.0404  0.5293
19808TIP3    H280916   1.417   3.611   1.060  1.3775  0.5700 -1.2843
19809TIP3   OH280917   0.802   4.283   1.058 -0.3762 -0.5203  0.0755
19809TIP3    H180918   0.855   4.204   1.043  0.8010  0.3781 -0.7695
19809TIP3    H280919   0.803   4.328   0.974 -0.6658  0.6094  0.6620
19810TIP3   OH280920   0.228   6.456   4.986 -0.5405  0.4388 -0.2767
19810TIP3    H180921   0.200   6.475   5.075 -1.2015  1.4372 -0.6759
19810TIP3    H280922   0.204   6.534   4.936  1.8481  0.8507 -0.8999
19811TIP3   OH280923   2.150   3.204  15.988  0.1665  0.4503  0.5953
19811TIP3    H180924   2.224   3.245  16.034  0.6043  1.1120 -0.6586
19811TIP3    H280925   2.122   3.269  15.924 -0.6897 -0.2934  0.1884
19812TIP3   OH280926   0.965   2.949   0.607 -0.1391  0.1741  0.5734
19812TIP3    H180927   1.005   3.034   0.627 -0.4020  0.4052  0.1266
19812TIP3    H280928   1.039   2.888   0.603  0.0551  0.3894  0.8509
19813TIP3   OH280929   4.772   1.429   3.408 -0.1563  0.5482  0.0977
19813TIP3    H180930   4.857   1.458   3.441 -0.3626  1.5396 -0.2085
19813TIP3    H280931   4.713   1.437   3.483  0.4118 -2.2094  0.9559
19814TIP3   OH280932   0.758   5.454   3.631 -0.8463  0.7873 -0.2345
19814TIP3    H180933   0.818   5.506   3.685  2.3128 -1.3100 -1.3949
19814TIP3    H280934   0.711   5.399   3.694 -0.4918  1.4596  0.6471
19815TIP3   OH280935   2.941   0.916  13.019  0.6270 -0.0673  0.3388
19815TIP3    H180936   2.991   0.865  13.083  0.8236 -0.1405  0.1291
19815TIP3    H280937   2.859   0.867  13.008  0.7079 -0.2017  0.3297
19816TIP3   OH280938   4.805   2.149   3.599 -0.5414  0.2060 -0.4256
19816TIP3    H180939   4.742   2.083   3.571  1.2002 -0.7681 -2.3035
19816TIP3    H280940   4.842   2.116   3.681 -2.1001  0.5897  0.4718
19817TIP3   OH280941   4.118   2.773  15.937 -0.1868 -0.1430 -0.4900
19817TIP3    H180942   4.176   2.754  15.863 -0.2378 -0.1416 -0.5305
19817TIP3    H280943   4.098   2.866  15.929  0.1163 -0.0564 -0.2515
19818TIP3   OH280944   3.787   6.601   5.628 -0.4439  0.1016  0.1639
19818TIP3    H180945   3.847   6.675   5.627  0.9716 -0.9912  0.4356
19818TIP3    H280946   3.725   6.620   5.698 -1.2610  1.8585 -0.9654
19819TIP3   OH280947   5.501   6.233   1.993 -0.1120  0.0218 -0.4248
19819TIP3    H180948   5.510   6.279   2.077  1.2475 -0.6090 -0.2094
19819TIP3    H280949   5.419   6.184   2.002 -0.5253  0.7888  0.1199
19820TIP3   OH280950   1.028   2.676  11.956  0.6537 -1.1743 -0.3928
19820TIP3    H180951   0.952   2.619  11.972 -0.8055  0.3689 -1.4176
19820TIP3    H280952   1.029   2.687  11.860  0.8492  0.5208 -0.2236
19821TIP3   OH280953   0.074   3.961   0.269 -0.2754  0.6758 -0.6683
19821TIP3    H180954   0.001   4.019   0.246 -0.2773  0.1985 -1.9134
19821TIP3    H280955   0.130   3.961   0.192 -0.4214 -1.2127 -0.8141
19822TIP3   OH280956   6.671   0.053   3.611  0.4492 -0.2880 -0.3157
19822TIP3    H180957   6.651   0.146   3.596  1.4739  0.1493  0.8659
19822TIP3    H280958   6.631   0.008   3.536  0.4310  1.1600 -1.2300
19823TIP3   OH280959   2.221   4.119  12.693 -0.3868  0.1404  0.0285
19823TIP3    H180960   2.253   4.051  12.633  0.8142  1.5775 -1.0468
19823TIP3    H280961   2.131   4.134  12.666  0.1435  0.7760 -1.4923
19824TIP3   OH280962   6.425   1.818  12.218 -0.3226 -0.1183  0.2219
19824TIP3    H180963   6.489   1.750  12.239 -1.5816 -1.5549 -0.3262
19824TIP3    H280964   6.431   1.828  12.123  1.4645  2.2848  0.5156
19825TIP3   OH280965   3.581   0.905   6.185 -0.1978 -0.1132  0.4483
19825TIP3    H180966   3.616   0.992   6.206 -0.7463  0.3569 -0.5358
19825TIP3    H280967   3.500   0.899   6.236 -1.2271  0.7957 -1.0130
19826TIP3   OH280968   0.128   4.103  17.102 -0.1109  0.9653 -0.4437
19826TIP3    H180969   0.076   4.131  17.027  0.1233  1.7717 -0.3145
19826TIP3    H280970   0.218   4.097  17.069 -0.3202 -0.9186 -0.7985
19827TIP3   OH280971   2.167   2.160   3.286  0.2263 -0.5663  0.1161
19827TIP3    H180972   2.211   2.075   3.284  0.7235 -0.3135  0.1656
19827TIP3    H280973   2.200   2.203   3.365  1.2027  0.3034 -0.7212
19828TIP3   OH280974   2.858   3.031   2.378  0.4194  0.1682  0.2680
19828TIP3    H180975   2.872   3.126   2.381 -0.4174  0.2809  1.2884
19828TIP3    H280976   2.862   3.004   2.470  0.3092 -0.7315  0.0082
19829TIP3   OH280977   1.846   5.273   5.516 -0.5921  0.6669 -0.3149
19829TIP3    H180978   1.803   5.358   5.511 -1.2541  0.3348 -0.4457
19829TIP3    H280979   1.939   5.293   5.509 -0.7125  1.4143  0.1354
19830TIP3   OH280980   4.722   3.656   4.011  0.4690 -0.0359  0.1171
19830TIP3    H180981   4.648   3.715   3.999  0.3317 -0.1070  0.6035
19830TIP3    H280982   4.749   3.633   3.922 -0.0497  0.0373 -0.0603
19831TIP3   OH280983   5.068   1.890  16.288 -0.2228 -0.3293 -0.2432
19831TIP3    H180984   5.080   1.979  16.257  0.5608 -0.3743 -0.1139
19831TIP3    H280985   4.995   1.895  16.350  1.4834  0.7803  1.8361
19832TIP3   OH280986   0.899   6.567   0.431  0.2304 -0.2689 -0.7344
19832TIP3    H180987   0.833   6.498   0.424  1.5296 -1.7317  0.6262
19832TIP3    H280988   0.970   6.539   0.373  0.7431 -0.0673 -0.2207
19833TIP3   OH280989   6.006   2.002  13.520 -0.0660  0.1602  0.6681
19833TIP3    H180990   5.952   2.071  13.481 -0.0724  0.2620  0.8523
19833TIP3    H280991   5.952   1.924  13.514  0.8715 -0.3629 -1.7063
19834TIP3   OH280992   5.999   1.139   3.946  0.4143 -0.0465 -0.4082
19834TIP3    H180993   6.081   1.114   3.990 -0.5876 -0.6640  1.2250
19834TIP3    H280994   5.949   1.057   3.941 -1.6184  0.9098  2.0823
19835TIP3   OH280995   0.381   1.530  17.060 -0.0501  0.1421 -0.1219
19835TIP3    H180996   0.453   1.467  17.052 -0.3232 -0.1226 -0.5060
19835TIP3    H280997   0.316   1.484  17.113  1.0321  1.2502  2.3342
19836TIP3   OH280998   5.219   1.368   5.965  0.4884  0.5328 -0.1756
19836TIP3    H180999   5.295   1.310   5.972 -0.5614 -0.6554  2.7856
19836TIP3    H281000   5.147   1.310   5.940 -0.1427  0.9610  0.6247
19837TIP3   OH281001   0.110   4.444  16.570 -0.2602  0.2060 -0.1155
19837TIP3    H181002   0.177   4.503  16.605  0.2696  0.2715 -1.1761
19837TIP3    H281003   0.131   4.438  16.477 -2.2640  0.9444 -0.6667
19838TIP3   OH281004   5.153   4.508   4.779  0.0009  0.3614 -0.0795
19838TIP3    H181005   5.194   4.508   4.865 -0.0172  2.3696 -0.0388
19838TIP3    H281006   5.092   4.581   4.781 -2.0600 -1.2227 -0.8878
19839TIP3   OH281007   5.666   3.006  16.816 -0.1402  0.1090 -0.1757
19839TIP3    H181008   5.738   3.034  16.760  0.3346 -0.0571  0.3451
19839TIP3    H281009   5.705   2.943  16.876 -0.7085  0.0580  0.1477
19840TIP3   OH281010   3.188   3.910  14.988  0.3186 -0.2217  0.5142
19840TIP3    H181011   3.227   3.888  15.072  0.0321  0.1589  0.7534
19840TIP3    H281012   3.096   3.928  15.008 -0.2621 -2.1869 -0.2017
19841TIP3   OH281013   5.994   4.408   3.104  0.1921  0.4860 -0.1188
19841TIP3    H181014   6.039   4.333   3.143  2.5672  1.9468  0.1493
19841TIP3    H281015   5.947   4.448   3.177 -1.7500 -1.0696 -0.4076
19842TIP3   OH281016   1.077   5.313  15.417  0.3985 -0.2655  0.3500
19842TIP3    H181017   1.109   5.402  15.400 -1.3622  0.6693  1.6389
19842TIP3    H281018   1.023   5.291  15.341  1.9061 -0.8234 -0.6093
19843TIP3   OH281019   3.498   0.807  16.877 -0.6019  0.2451 -0.4108
19843TIP3    H181020   3.447   0.733  16.908 -0.3945  0.6821  1.0534
19843TIP3    H281021   3.449   0.839  16.801 -1.3530 -0.6317 -0.3196
19844TIP3   OH281022   0.864   6.451   1.466 -0.5359 -0.0002  0.1868
19844TIP3    H181023   0.884   6.538   1.434 -0.4442 -0.3657 -0.7954
19844TIP3    H281024   0.770   6.453   1.485 -0.2494  0.7557  1.6822
19845TIP3   OH281025   2.496   2.576  13.016 -0.1145 -0.3814  0.4842
19845TIP3    H181026   2.497   2.629  12.937  0.8205 -0.1192  0.6635
19845TIP3    H281027   2.452   2.632  13.081  0.2296 -0.1052  0.4820
19846TIP3   OH281028   0.774   3.835  10.465  1.1691  0.1304 -0.3491
19846TIP3    H181029   0.838   3.893  10.507  0.3649  1.8628 -1.4081
19846TIP3    H281030   0.825   3.783  10.403  1.7548  0.5338 -0.2098
19847TIP3   OH281031   4.180   6.180   3.103  0.1484 -0.1156 -0.2315
19847TIP3    H181032   4.251   6.186   3.167 -0.2618  2.1735  0.0894
19847TIP3    H281033   4.138   6.096   3.122  2.6164 -1.4695 -0.3325
19848TIP3   OH281034   2.327   5.956  12.549  0.3315 -0.2753  0.1722
19848TIP3    H181035   2.377   5.953  12.630  0.7220  0.1488 -0.0420
19848TIP3    H281036   2.319   5.865  12.522  0.6810 -0.3752  0.3991
19849TIP3   OH281037   3.058   5.735  16.242  0.2352  0.0702 -0.2762
19849TIP3    H181038   3.014   5.721  16.158 -1.7681 -2.0711  0.9934
19849TIP3    H281039   3.133   5.676  16.240  0.6705  0.6381 -0.8681
19850TIP3   OH281040   5.122   5.963   5.298  0.5594  0.5297  0.0045
19850TIP3    H181041   5.192   6.021   5.327 -0.9734  1.8894  1.2081
19850TIP3    H281042   5.044   6.019   5.294 -0.1833 -0.5141 -2.9567
19851TIP3   OH281043   3.867   6.202   5.412  0.2175 -0.7717  0.1193
19851TIP3    H181044   3.788   6.153   5.387  0.2627 -1.3575  1.0567
19851TIP3    H281045   3.875   6.270   5.346 -0.5881 -1.2409 -0.4825
19852TIP3   OH281046   2.014   3.950  13.064 -0.1310 -0.1857  0.4973
19852TIP3    H181047   2.081   4.018  13.072  0.3415 -0.7205  1.2213
19852TIP3    H281048   1.933   3.999  13.047  0.5714  0.4198 -1.4486
19853TIP3   OH281049   6.135   6.427   0.939 -0.2807  0.1456 -0.6169
19853TIP3    H181050   6.178   6.380   0.868 -1.1927 -1.5043 -0.1329
19853TIP3    H281051   6.058   6.467   0.899  0.6972  1.6341 -1.1114
19854TIP3   OH281052   3.559   5.217   2.056 -0.1470 -0.2941 -0.2131
19854TIP3    H181053   3.540   5.275   1.983 -0.1904 -2.0860 -1.7099
19854TIP3    H281054   3.491   5.236   2.120  1.1259  2.8134  0.3852
19855TIP3   OH281055   6.222   4.579  12.725 -0.8273  0.0958  0.6361
19855TIP3    H181056   6.194   4.624  12.804 -0.4696 -0.2700  0.9783
19855TIP3    H281057   6.301   4.625  12.697  1.1176 -1.8705  2.4858
19856TIP3   OH281058   0.113   1.177   0.477 -0.0134 -0.0665 -0.3417
19856TIP3    H181059   0.070   1.093   0.461  2.4287 -1.2950 -0.9239
19856TIP3    H281060   0.161   1.164   0.559  0.2669  0.7980 -0.3571
19857TIP3   OH281061   4.940   0.865  12.152 -0.6231  0.4141  0.6516
19857TIP3    H181062   4.946   0.907  12.067  0.3973 -2.1080 -0.6403
19857TIP3    H281063   4.860   0.812  12.147 -0.8594  0.6736  1.4965
19858TIP3   OH281064   2.867   3.619  12.049  0.2173  0.1573 -0.3060
19858TIP3    H181065   2.962   3.628  12.044  0.2813  0.2417  0.7849
19858TIP3    H281066   2.851   3.525  12.052  0.3254  0.1491  0.2023
19859TIP3   OH281067   3.539   0.426   3.722  0.0111 -0.3178  0.0821
19859TIP3    H181068   3.451   0.464   3.722  0.3551  0.4987  1.0719
19859TIP3    H281069   3.571   0.438   3.811  1.6799  0.6959 -0.6186
19860TIP3   OH281070   5.651   5.959   4.258 -0.3398  0.3506 -0.1326
19860TIP3    H181071   5.627   5.986   4.346 -0.6888 -0.3482 -0.0041
19860TIP3    H281072   5.575   5.981   4.204 -1.7851 -2.7138  0.4375
19861TIP3   OH281073   6.740   0.952  10.769  0.2153  0.3778  0.1055
19861TIP3    H181074   6.801   1.002  10.823 -0.7031 -1.5656  3.1801
19861TIP3    H281075   6.654   0.971  10.806 -0.3913 -1.5585 -0.2199
19862TIP3   OH281076   5.902   3.698  12.186 -0.3504  0.2470  0.3509
19862TIP3    H181077   5.841   3.756  12.140  0.7967  0.9865 -0.3103
19862TIP3    H281078   5.877   3.610  12.159 -1.4381  0.4923  0.5015
19863TIP3   OH281079   0.861   3.147  16.209 -0.4072 -0.1979 -0.1342
19863TIP3    H181080   0.851   3.077  16.144  0.5848 -0.6021  0.1310
19863TIP3    H281081   0.941   3.193  16.183 -0.7401  0.4906  0.0292
19864TIP3   OH281082   6.255   4.242   1.472  0.3296 -0.1887 -0.1298
19864TIP3    H181083   6.179   4.183   1.477 -0.0025  0.0775 -1.6332
19864TIP3    H281084   6.251   4.293   1.553  0.0452 -1.5251  0.7272
19865TIP3   OH281085   2.950   2.951  16.705  0.0836  0.0005 -0.3362
19865TIP3    H181086   2.905   3.034  16.688 -0.6942  0.0591  1.6752
19865TIP3    H281087   2.882   2.884  16.690  0.8011 -0.3384 -2.2905
19866TIP3   OH281088   3.740   5.147   4.746  0.1584  0.0199 -0.2748
19866TIP3    H181089   3.696   5.179   4.668 -1.2034 -0.8270  0.1122
19866TIP3    H281090   3.780   5.225   4.785  0.6961  0.4804 -1.6887
19867TIP3   OH281091   0.152   4.546   4.260  0.0827  0.2869 -0.0488
19867TIP3    H181092   0.088   4.589   4.316  0.8403  2.9712 -1.0858
19867TIP3    H281093   0.099   4.492   4.201 -0.8235 -1.2220  2.0501
19868TIP3   OH281094   1.444   4.351  14.355  0.0042  0.0617 -0.1235
19868TIP3    H181095   1.378   4.334  14.287  0.4262 -2.4018 -0.0166
19868TIP3    H281096   1.527   4.351  14.308  0.0574  1.8257 -0.0654
19869TIP3   OH281097   1.048   2.822   2.226  0.7608  0.8450 -0.6314
19869TIP3    H181098   1.036   2.734   2.262  3.5596  0.2706 -0.8202
19869TIP3    H281099   1.008   2.818   2.139 -1.2699  0.5559  0.2663
19870TIP3   OH281100   5.544   5.879   2.447 -0.0718  0.3109 -0.0382
19870TIP3    H181101   5.495   5.828   2.383  0.2671 -0.5655  0.3824
19870TIP3    H281102   5.633   5.844   2.442  0.5394  1.8588 -0.7821
19871TIP3   OH281103   1.722   2.586   0.903  0.1846  0.4851  0.4010
19871TIP3    H181104   1.728   2.496   0.871  0.7492  0.8858 -0.6623
19871TIP3    H281105   1.631   2.595   0.933 -0.0687 -0.2271 -0.1301
19872TIP3   OH281106   3.308   4.861  14.021  0.6212  0.3791 -0.2361
19872TIP3    H181107   3.350   4.783  13.984 -2.1077 -0.9680 -0.7829
19872TIP3    H281108   3.267   4.830  14.101  1.3961  1.8428  0.7584
19873TIP3   OH281109   0.318   5.325   3.222  0.2121 -0.0467  0.3417
19873TIP3    H181110   0.388   5.322   3.157  1.5074 -0.1195  1.6929
19873TIP3    H281111   0.252   5.265   3.187 -0.5029  2.0944 -2.3362
19874TIP3   OH281112   0.403   4.687   0.185  0.7339  0.3522 -0.0679
19874TIP3    H181113   0.490   4.719   0.162  0.0927  1.8953 -0.5175
19874TIP3    H281114   0.385   4.725   0.271  0.0460  1.1043 -0.5165
19875TIP3   OH281115   2.158   2.174   0.173 -0.4905  0.2808  0.1875
19875TIP3    H181116   2.172   2.086   0.206 -1.2634  0.7131  1.7714
19875TIP3    H281117   2.243   2.202   0.141 -0.4152 -1.3442 -1.2202
19876TIP3   OH281118   3.482   5.055   4.750  0.5550  0.8946 -0.6798
19876TIP3    H181119   3.459   5.071   4.842  0.6862 -2.1609  0.0161
19876TIP3    H281120   3.577   5.045   4.752  0.4328 -0.4499 -0.8699
19877TIP3   OH281121   1.132   5.533   4.974  0.1145 -0.0173  0.7781
19877TIP3    H181122   1.200   5.524   5.041 -0.2493 -1.1633  1.0176
19877TIP3    H281123   1.064   5.470   5.000  0.1843 -0.8694 -0.9269
19878TIP3   OH281124   5.496   4.420   5.581 -0.7022 -0.1561 -0.8267
19878TIP3    H181125   5.560   4.387   5.644 -0.3941  1.0418 -0.4906
19878TIP3    H281126   5.497   4.515   5.593 -2.5412 -0.0932 -0.8011
19879TIP3   OH281127   3.100   1.407   3.355  0.0291  0.4136 -0.4605
19879TIP3    H181128   3.119   1.322   3.315 -1.1120 -0.6211  1.0950
19879TIP3    H281129   3.058   1.457   3.285  0.5175 -0.3769 -1.3397
19880TIP3   OH281130   6.250   4.782  11.680  0.2594  0.1915 -0.0904
19880TIP3    H181131   6.228   4.730  11.757  1.1585  0.1635  0.1659
19880TIP3    H281132   6.199   4.743  11.609 -2.0555  1.3861  0.8067
19881TIP3   OH281133   5.343   1.765  16.009  0.4179 -0.0849  0.2293
19881TIP3    H181134   5.252   1.742  16.026  0.1074  0.3542 -0.7440
19881TIP3    H281135   5.390   1.682  16.015 -0.1472 -0.4208  0.1240
19882TIP3   OH281136   5.549   0.405  15.043 -0.1540  0.6532  0.3456
19882TIP3    H181137   5.580   0.476  15.099  1.0426  0.4030  0.0195
19882TIP3    H281138   5.624   0.382  14.989 -1.5405  1.5485 -2.1185
19883TIP3   OH281139   6.250   6.518   2.614  0.1505 -0.6601 -0.5848
19883TIP3    H181140   6.272   6.549   2.526 -1.0797 -0.8667 -0.9727
19883TIP3    H281141   6.333   6.483   2.648  0.7222 -0.2469 -1.5118
19884TIP3   OH281142   3.302   3.399  12.519  0.2495  0.0394 -0.5919
19884TIP3    H181143   3.258   3.481  12.494  0.3412  0.2986  0.0915
19884TIP3    H281144   3.238   3.354  12.574  0.2628 -0.2835 -0.8361
19885TIP3   OH281145   1.488   4.175  14.823 -0.3197 -0.0877  0.0507
19885TIP3    H181146   1.453   4.204  14.739  0.9531  1.5355  0.0426
19885TIP3    H281147   1.491   4.254  14.877  0.0555 -0.8678  1.2190
19886TIP3   OH281148   1.831   0.392   4.170  0.7144 -0.6005  0.0300
19886TIP3    H181149   1.880   0.325   4.121  1.9220  0.7046 -0.6232
19886TIP3    H281150   1.778   0.342   4.232  3.2256 -2.1496  1.1225
19887TIP3   OH281151   0.098   3.886  16.824 -0.2099 -0.4784  0.4957
19887TIP3    H181152   0.043   3.864  16.749  0.6259 -0.4448 -0.1371
19887TIP3    H281153   0.035   3.907  16.894 -1.0166  0.6204 -0.5171
19888TIP3   OH281154   0.929   1.709   4.770 -0.0683 -0.4473  0.5086
19888TIP3    H181155   1.014   1.753   4.773  0.0239 -0.4461 -1.3621
19888TIP3    H281156   0.907   1.704   4.677 -1.5749 -1.5033  0.8815
19889TIP3   OH281157   6.254   4.086   5.651  0.5018 -0.2666  0.4314
19889TIP3    H181158   6.169   4.052   5.682  1.5512 -2.8633  0.7528
19889TIP3    H281159   6.317   4.055   5.716  2.1369 -1.6709 -1.6841
19890TIP3   OH281160   1.332   1.638  13.469 -0.0881  0.4728  0.1416
19890TIP3    H181161   1.280   1.623  13.547  0.8989  0.8360  0.8938
19890TIP3    H281162   1.400   1.571  13.473  0.3197  0.8666 -0.0779
19891TIP3   OH281163   4.413   6.725   4.346  0.2839  0.3097  0.2835
19891TIP3    H181164   4.417   6.768   4.260  0.1039 -0.1783  0.0275
19891TIP3    H281165   4.502   6.694   4.362  0.4421  0.8834  0.5251
19892TIP3   OH281166   1.409   4.912   4.338 -0.4906 -0.5666 -0.7203
19892TIP3    H181167   1.474   4.881   4.401 -1.3330 -2.4770 -0.7191
19892TIP3    H281168   1.349   4.965   4.389  1.1485  1.4817 -0.7744
19893TIP3   OH281169   6.223   5.149   1.773  0.3691 -0.3762 -0.2690
19893TIP3    H181170   6.138   5.193   1.784  0.8499  0.5452 -0.1470
19893TIP3    H281171   6.201   5.065   1.732 -0.6245 -0.2543 -0.0251
19894TIP3   OH281172   6.562   0.348  16.905  0.7214 -0.1390 -0.5519
19894TIP3    H181173   6.490   0.305  16.859  2.0831 -0.2396 -2.7704
19894TIP3    H281174   6.523   0.425  16.945 -1.3955 -2.3209  1.9011
19895TIP3   OH281175   4.416   2.454   0.432  0.5457 -0.1635  0.2255
19895TIP3    H181176   4.433   2.547   0.448  1.7554 -0.1890 -0.7861
19895TIP3    H281177   4.323   2.452   0.406  0.3711  0.6911  0.7335
19896TIP3   OH281178   3.625   2.494  11.536 -0.3255  0.4362  0.0923
19896TIP3    H181179   3.602   2.507  11.628 -1.3993 -0.3359 -0.0574
19896TIP3    H281180   3.548   2.523  11.487 -0.6416 -1.2375 -0.4591
19897TIP3   OH281181   3.883   5.540  14.743 -0.0312  0.1252 -0.2840
19897TIP3    H181182   3.958   5.485  14.768 -0.4742 -0.9680 -1.2362
19897TIP3    H281183   3.807   5.497  14.783 -0.3097  0.4032 -0.5074
19898TIP3   OH281184   6.518   5.592  11.710 -0.1194 -0.4282  0.0490
19898TIP3    H181185   6.424   5.611  11.717 -0.4082 -1.9547  0.8886
19898TIP3    H281186   6.524   5.527  11.640  0.3023 -0.3808  0.0394
19899TIP3   OH281187   0.002   2.662  12.045  0.3219  0.5078  0.0654
19899TIP3    H181188   0.072   2.603  12.017 -1.3426 -1.1964 -0.7157
19899TIP3    H281189   0.047   2.741  12.076  2.5542 -0.5428 -0.3725
19900TIP3   OH281190   0.617   3.425  12.058 -0.6798 -0.1964  0.3797
19900TIP3    H181191   0.687   3.384  12.008 -1.6850 -1.1082 -0.3259
19900TIP3    H281192   0.649   3.513  12.078  0.7101 -0.6458  0.2049
19901TIP3   OH281193   0.694   6.778   5.206 -0.5910  0.1392  0.3724
19901TIP3    H181194   0.670   6.731   5.286 -1.6241  0.1560  0.0857
19901TIP3    H281195   0.787   6.758   5.193 -0.8846 -1.4174  0.5376
19902TIP3   OH281196   4.616   2.091   6.704 -0.1980 -0.3502  0.6898
19902TIP3    H181197   4.601   2.033   6.629  1.6814 -0.5159  0.4076
19902TIP3    H281198   4.528   2.114   6.733 -1.0101 -0.0028 -1.7818
19903TIP3   OH281199   6.025   6.414   5.332 -0.5557 -0.5895  0.3674
19903TIP3    H181200   6.051   6.406   5.241 -2.5900  1.1562 -0.4435
19903TIP3    H281201   5.933   6.440   5.329 -0.9590 -1.4002  2.9485
19904TIP3   OH281202   1.222   2.557  11.378  0.5392 -0.2366  0.1894
19904TIP3    H181203   1.316   2.576  11.374  0.1994  1.4585 -0.7397
19904TIP3    H281204   1.181   2.633  11.336 -1.3170 -0.3893  1.6176
19905TIP3   OH281205   4.636   5.589  14.241  0.1261 -0.3185 -0.0194
19905TIP3    H181206   4.672   5.637  14.166 -0.0673  0.6846  0.5072
19905TIP3    H281207   4.629   5.499  14.211 -1.4025  0.3123 -1.7754
19906TIP3   OH281208   1.052   5.274   3.635  0.1399 -0.2470  0.4911
19906TIP3    H181209   1.002   5.225   3.569  1.1682 -2.0932  1.0032
19906TIP3    H281210   1.013   5.361   3.635 -0.2184 -0.3086 -2.2174
19907TIP3   OH281211   5.942   1.179   1.643 -0.0284  0.5344 -0.3188
19907TIP3    H181212   5.884   1.106   1.666 -0.3242  0.8322 -0.1090
19907TIP3    H281213   5.912   1.206   1.556  0.1468  0.3428 -0.4400
19908TIP3   OH281214   5.272   2.395   1.670 -0.3387  0.2016  0.1906
19908TIP3    H181215   5.245   2.402   1.761 -0.0367 -1.1327  0.4015
19908TIP3    H281216   5.253   2.304   1.646 -0.4400  0.5377 -1.0856
19909TIP3   OH281217   5.918   2.464  13.812  0.0605  0.4757 -0.4944
19909TIP3    H181218   5.836   2.481  13.858 -0.6392  0.2460 -1.6419
19909TIP3    H281219   5.981   2.523  13.854 -1.1849  2.2834 -1.0667
19910TIP3   OH281220   2.184   2.333   5.343  0.4103  0.3949  0.6403
19910TIP3    H181221   2.131   2.413   5.335 -1.2785 -0.6525  0.7356
19910TIP3    H281222   2.219   2.336   5.432  0.1449  0.9177  0.7323
19911TIP3   OH281223   5.290   5.562  13.199  0.2194  0.2079  0.4927
19911TIP3    H181224   5.263   5.621  13.128 -1.5105 -1.3840 -0.2594
19911TIP3    H281225   5.286   5.616  13.278 -1.1229  1.1718 -0.1908
19912TIP3   OH281226   2.225   0.105   5.347  0.2935 -1.2502  0.5159
19912TIP3    H181227   2.237   0.110   5.252  0.6026  1.0596  0.6193
19912TIP3    H281228   2.178   0.023   5.361 -1.0872 -0.9363 -1.7739
19913TIP3   OH281229   4.713   4.372  13.769 -0.2982  0.2065  0.1164
19913TIP3    H181230   4.722   4.281  13.800  0.0110  0.3411  0.4269
19913TIP3    H281231   4.775   4.378  13.696  0.1770  0.3577  0.5266
19914TIP3   OH281232   0.284   2.397  11.769  0.1702  0.0190 -0.3264
19914TIP3    H181233   0.194   2.429  11.763 -0.2443 -0.9141  0.7514
19914TIP3    H281234   0.303   2.364  11.681 -1.3171 -1.7540 -0.0374
19915TIP3   OH281235   5.049   5.260  15.219 -0.4085 -0.0370  0.4497
19915TIP3    H181236   5.009   5.303  15.143 -0.4400 -0.1533  0.4012
19915TIP3    H281237   5.023   5.168  15.210 -2.2853  0.2962  1.7765
19916TIP3   OH281238   5.879   0.760  13.306  0.2071 -0.7089  0.0175
19916TIP3    H181239   5.901   0.768  13.399  0.8709 -0.2311 -0.1723
19916TIP3    H281240   5.953   0.801  13.261  0.0203 -1.1804 -0.7301
19917TIP3   OH281241   4.394   5.493   3.160  0.0567 -0.1598  0.3518
19917TIP3    H181242   4.460   5.477   3.227  1.3829  1.9671 -0.3359
19917TIP3    H281243   4.445   5.519   3.083 -1.5240 -0.5153 -0.8600
19918TIP3   OH281244   3.571   2.334  13.795 -0.0989  0.0445  0.0921
19918TIP3    H181245   3.541   2.265  13.854 -2.7920  0.0064 -1.1643
19918TIP3    H281246   3.533   2.311  13.710 -0.6290  2.7114 -0.5013
19919TIP3   OH281247   1.587   1.726   3.497 -0.9040  0.0565  0.3216
19919TIP3    H181248   1.516   1.785   3.521 -0.4888  0.8006 -0.2240
19919TIP3    H281249   1.663   1.757   3.547 -0.9558 -0.7502  0.9254
19920TIP3   OH281250   0.262   2.939   1.439  0.3250 -0.1232 -0.0774
19920TIP3    H181251   0.303   2.981   1.515  0.2293  1.4706 -0.8715
19920TIP3    H281252   0.282   2.997   1.366 -2.9617  0.5460 -0.5887
19921TIP3   OH281253   3.956   5.252  11.079 -0.6237  0.6561  0.1113
19921TIP3    H181254   3.933   5.266  11.171 -0.5345  0.6868  0.1281
19921TIP3    H281255   3.911   5.170  11.056  2.3390 -1.4775  1.2368
19922TIP3   OH281256   6.209   1.733  14.716 -0.5243 -0.1723  0.0484
19922TIP3    H181257   6.304   1.735  14.710 -0.5373 -0.2600 -0.1822
19922TIP3    H281258   6.191   1.743  14.810 -0.3847  3.1255 -0.1700
19923TIP3   OH281259   4.413   2.555   5.564 -0.1127 -0.2080 -0.4530
19923TIP3    H181260   4.382   2.494   5.496  0.0479  1.3577 -2.0158
19923TIP3    H281261   4.355   2.630   5.557  2.0353  1.4709 -1.3076
19924TIP3   OH281262   5.376   2.495  11.153  0.3742 -0.0651  0.2839
19924TIP3    H181263   5.441   2.512  11.084  1.4884  0.5464  1.4564
19924TIP3    H281264   5.324   2.421  11.119  0.1021  0.9818 -1.7262
19925TIP3   OH281265   6.038   4.132   2.771  0.0689  0.1809 -0.5713
19925TIP3    H181266   6.017   4.065   2.705 -1.8170  0.9168 -0.7818
19925TIP3    H281267   5.957   4.142   2.821  0.3876  2.1366 -0.3975
19926TIP3   OH281268   6.520   4.196   5.064 -0.0625 -0.2488  0.1683
19926TIP3    H181269   6.490   4.111   5.095 -0.0840  0.2906  1.6865
19926TIP3    H281270   6.587   4.176   4.998  0.5504 -1.4412  1.1182
19927TIP3   OH281271   4.300   3.201  11.457 -0.2394  0.8807 -0.0115
19927TIP3    H181272   4.343   3.207  11.372  0.0345  0.5008  0.0953
19927TIP3    H281273   4.207   3.189  11.438 -0.1674  0.7191 -0.2574
19928TIP3   OH281274   5.562   2.819   4.250  0.0631 -0.2679 -0.0731
19928TIP3    H181275   5.556   2.914   4.244 -0.6925 -0.1858  1.5295
19928TIP3    H281276   5.605   2.803   4.334 -0.6588 -1.3535  0.1091
19929TIP3   OH281277   0.146   2.775   2.611 -0.0110  1.0451 -0.0044
19929TIP3    H181278   0.165   2.864   2.581  2.1259  0.3849 -0.8486
19929TIP3    H281279   0.186   2.719   2.544  0.0417 -0.5251  1.2859
19930TIP3   OH281280   3.730   0.562   0.038 -0.3205 -0.7792  0.1325
19930TIP3    H181281   3.655   0.543   0.095 -1.0678  2.1653  0.3017
19930TIP3    H281282   3.709   0.648  -0.000  3.1676  0.3840  0.5375
19931TIP3   OH281283   2.608   0.237  12.735  0.7433 -0.4843 -0.5310
19931TIP3    H181284   2.573   0.199  12.654 -0.3575  0.9588 -0.7710
19931TIP3    H281285   2.547   0.307  12.757  0.1377 -1.8252  2.4346
19932TIP3   OH281286   3.693   1.192  11.846 -0.0642  0.2550 -0.2713
19932TIP3    H181287   3.624   1.241  11.890  0.8358  0.7457  0.6321
19932TIP3    H281288   3.733   1.255  11.786 -0.1329  0.0939 -0.4855
19933TIP3   OH281289   6.718   1.657   3.126  0.5669  0.4362  0.2084
19933TIP3    H181290   6.737   1.745   3.160 -0.4531  0.5812  0.4252
19933TIP3    H281291   6.734   1.598   3.199  0.5609  0.5193  0.2762
19934TIP3   OH281292   3.970   4.912   3.852  0.0342 -0.6679 -0.1248
19934TIP3    H181293   3.915   4.980   3.814  0.8155  0.1843  0.2413
19934TIP3    H281294   4.009   4.868   3.776  1.4515  0.9144 -0.3767
19935TIP3   OH281295   3.151   5.927  10.258 -0.4816 -0.6167  0.5175
19935TIP3    H181296   3.191   5.845  10.230 -1.0199 -1.0830  1.0900
19935TIP3    H281297   3.192   5.994  10.203  0.1247 -1.2378  0.2025
19936TIP3   OH281298   3.629   0.320  17.008 -0.1864  0.3437 -0.8033
19936TIP3    H181299   3.617   0.263  16.932 -0.1684  0.0993 -0.6269
19936TIP3    H281300   3.542   0.330  17.045 -0.0919 -0.1716 -0.4149
19937TIP3   OH281301   0.947   5.391  12.930  0.6717 -0.1367  0.0161
19937TIP3    H181302   0.913   5.473  12.892  1.7973  0.8890  1.1181
19937TIP3    H281303   0.971   5.415  13.020  0.3832 -1.8746  0.5790
19938TIP3   OH281304   5.223   6.037   0.049 -0.3346  0.1178 -0.0564
19938TIP3    H181305   5.144   6.067   0.004 -0.1714 -0.9418 -1.0962
19938TIP3    H281306   5.194   5.964   0.103  0.1154 -1.0970 -1.3997
19939TIP3   OH281307   6.627   3.766  14.190 -0.3854  0.0214  0.5804
19939TIP3    H181308   6.689   3.836  14.168 -0.9043  0.9920  2.1053
19939TIP3    H281309   6.615   3.719  14.107 -0.1018  1.7966 -0.5295
19940TIP3   OH281310   2.189   4.212  14.596 -0.2907 -0.6881 -0.5262
19940TIP3    H181311   2.113   4.269  14.589  1.4262  1.5855 -2.1068
19940TIP3    H281312   2.185   4.157  14.518 -0.5481 -0.8945 -0.3685
19941TIP3   OH281313   2.132   2.235   0.833  0.0591 -0.0391  0.0714
19941TIP3    H181314   2.073   2.268   0.901  1.2162  0.0153  1.0692
19941TIP3    H281315   2.133   2.305   0.767  0.4823  0.8018  0.9439
19942TIP3   OH281316   4.673   0.510   0.973  0.1956 -0.4679 -0.5023
19942TIP3    H181317   4.624   0.591   0.957  1.1203  0.4198  0.9241
19942TIP3    H281318   4.626   0.468   1.046  0.5652 -0.4738 -0.2660
19943TIP3   OH281319   6.549   3.874   5.785  0.5028  1.0449 -0.2541
19943TIP3    H181320   6.462   3.839   5.764  0.5444  1.0895 -0.4990
19943TIP3    H281321   6.573   3.830   5.867  0.8545 -0.0335 -0.9138
19944TIP3   OH281322   1.578   1.003   1.543  0.1440  0.4514 -0.9016
19944TIP3    H181323   1.614   0.929   1.495 -0.7666  0.4038 -1.5302
19944TIP3    H281324   1.538   0.965   1.621  1.8722  0.5571  0.0780
19945TIP3   OH281325   2.465   4.894   0.580 -0.0622 -0.1188  0.5582
19945TIP3    H181326   2.370   4.893   0.580 -0.2076 -2.0339 -2.9850
19945TIP3    H281327   2.490   4.805   0.606  0.6967 -0.0854 -0.0132
19946TIP3   OH281328   5.170   4.384   5.201  0.2251  0.2682  0.0470
19946TIP3    H181329   5.170   4.332   5.121 -0.2764 -0.8310  0.7294
19946TIP3    H281330   5.103   4.343   5.256 -0.6215  2.0395  0.3731
19947TIP3   OH281331   0.815   6.239  12.491 -0.6739 -0.4730  0.2561
19947TIP3    H181332   0.782   6.163  12.444 -0.3861 -0.3112 -0.2232
19947TIP3    H281333   0.815   6.309  12.425  0.9126 -0.5461  0.1323
19948TIP3   OH281334   1.557   0.567   4.874 -0.0788  0.0832  0.0741
19948TIP3    H181335   1.542   0.473   4.870  2.2873 -0.4094  1.3744
19948TIP3    H281336   1.484   0.601   4.926 -0.8283 -1.0528 -0.2145
19949TIP3   OH281337   2.476   2.555   4.455 -0.1434 -0.4416  0.5358
19949TIP3    H181338   2.495   2.648   4.442 -0.0786 -0.4066  0.8725
19949TIP3    H281339   2.558   2.510   4.432 -0.6773 -0.5677 -1.3397
19950TIP3   OH281340   6.553   5.672   5.161  0.3732  0.1480 -0.7094
19950TIP3    H181341   6.533   5.585   5.195 -0.3800 -0.0637 -1.6683
19950TIP3    H281342   6.623   5.704   5.219 -0.1858 -0.5825  0.4154
19951TIP3   OH281343   5.047   6.691  11.629 -0.3930 -0.3883  0.9124
19951TIP3    H181344   5.065   6.705  11.536  1.9157  0.0281  1.3665
19951TIP3    H281345   5.034   6.779  11.664 -2.5071 -0.6131  0.8136
19952TIP3   OH281346   0.428   5.234  12.132  0.2314  0.2680 -0.2274
19952TIP3    H181347   0.505   5.187  12.163 -2.1796 -1.4850  4.1027
19952TIP3    H281348   0.387   5.173  12.070 -0.6746 -1.7540  2.1670
19953TIP3   OH281349   5.136   0.949   1.141 -0.1599 -0.1476  0.0538
19953TIP3    H181350   5.107   0.865   1.176  0.3346 -0.0856  0.6247
19953TIP3    H281351   5.064   1.009   1.162 -1.3297 -0.7596 -1.9203
19954TIP3   OH281352   0.987   6.740  16.267 -0.3222 -0.1548 -0.3718
19954TIP3    H181353   0.971   6.756  16.360 -1.6042 -3.4276  0.0831
19954TIP3    H281354   1.079   6.711  16.264 -0.6746 -1.3835  0.1246
19955TIP3   OH281355   5.354   5.283  15.607 -0.3609 -0.1909  0.2425
19955TIP3    H181356   5.306   5.291  15.525  1.3608  1.5080 -0.6727
19955TIP3    H281357   5.360   5.372  15.641 -0.9111 -0.8308  2.1980
19956TIP3   OH281358   3.170   2.859  15.219 -0.4675  0.4845  0.2596
19956TIP3    H181359   3.241   2.914  15.252 -0.7774 -0.2632  2.3235
19956TIP3    H281360   3.215   2.783  15.181 -0.1317  0.6398  0.3358
19957TIP3   OH281361   5.083   2.478  11.897  0.4136 -0.1250 -0.1636
19957TIP3    H181362   5.073   2.416  11.970  0.3721  0.7242  0.5614
19957TIP3    H281363   5.055   2.428  11.821 -1.2886 -0.4828  0.6441
19958TIP3   OH281364   2.497   5.587   5.039  0.5940 -0.0826  0.6201
19958TIP3    H181365   2.481   5.625   5.126  0.7319 -0.0857  0.6464
19958TIP3    H281366   2.410   5.561   5.009  0.4071  0.7882  0.3566
19959TIP3   OH281367   3.568   6.254  13.382  0.6913  0.6171  0.1815
19959TIP3    H181368   3.545   6.222  13.469  0.9431  0.5900  0.2394
19959TIP3    H281369   3.489   6.297  13.350  0.2404 -0.3300 -0.0179
19960TIP3   OH281370   5.615   5.059  16.372 -0.0246 -0.1322 -0.2559
19960TIP3    H181371   5.536   5.020  16.334 -0.1657  1.4576 -1.7120
19960TIP3    H281372   5.595   5.066  16.466 -0.7712 -1.6327 -0.2681
19961TIP3   OH281373   0.369   0.623  16.416  0.0242 -0.1968  0.0586
19961TIP3    H181374   0.326   0.539  16.426 -2.0214  1.1100  6.3487
19961TIP3    H281375   0.298   0.685  16.400  1.1198  0.8474 -1.0647
19962TIP3   OH281376   1.763   4.324  12.244 -0.1190 -0.0872 -0.1734
19962TIP3    H181377   1.707   4.392  12.281  0.2388  0.5471 -0.7702
19962TIP3    H281378   1.709   4.285  12.175  0.1930  0.6024 -0.8268
19963TIP3   OH281379   3.951   6.150   0.998  0.4655  0.1743 -0.0096
19963TIP3    H181380   3.992   6.161   1.084 -2.4230 -0.3897  1.5751
19963TIP3    H281381   3.905   6.233   0.982  1.4851  0.5197 -1.3864
19964TIP3   OH281382   2.240   3.226  12.182 -0.2971  0.3046 -0.0551
19964TIP3    H181383   2.327   3.251  12.213 -0.4729  0.1526  0.5619
19964TIP3    H281384   2.179   3.270  12.242 -0.6479  0.3943 -0.4715
19965TIP3   OH281385   5.203   1.384  12.684 -0.0952 -0.0377  0.8536
19965TIP3    H181386   5.169   1.346  12.602  1.0406  0.1537  0.2791
19965TIP3    H281387   5.224   1.308  12.738 -0.4756 -0.1736  0.8148
19966TIP3   OH281388   4.052   0.735  16.506 -0.1389  0.7497  0.4346
19966TIP3    H181389   4.101   0.669  16.555  1.0440  1.2263 -0.0755
19966TIP3    H281390   3.994   0.775  16.571 -0.5054 -0.4109  0.8635
19967TIP3   OH281391   2.767   1.456  10.473  0.6974 -0.3825 -0.6243
19967TIP3    H181392   2.729   1.380  10.429  1.1661 -1.1503  0.2666
19967TIP3    H281393   2.692   1.507  10.504  0.3853 -0.8451 -0.6145
19968TIP3   OH281394   6.645   2.420   0.521  0.1490 -0.2498 -0.1807
19968TIP3    H181395   6.636   2.510   0.552 -1.1511 -0.6499  0.6945
19968TIP3    H281396   6.725   2.388   0.563  1.4144  0.8989 -1.6175
19969TIP3   OH281397   5.473   3.666   4.671 -0.1777 -0.1719  0.5971
19969TIP3    H181398   5.509   3.650   4.758  1.4651 -0.0210 -0.0209
19969TIP3    H281399   5.412   3.593   4.657  1.8430 -1.9846  0.6861
19970TIP3   OH281400   1.074   4.248   3.175 -0.1201 -0.3292 -0.6535
19970TIP3    H181401   1.042   4.254   3.084 -0.1242  0.7724 -0.5936
19970TIP3    H281402   1.025   4.316   3.221 -1.7048 -2.2720  0.6759
19971TIP3   OH281403   2.121   0.945  13.154 -0.3208  0.0577 -0.4468
19971TIP3    H181404   2.137   1.019  13.096 -1.7561  0.7528 -0.0194
19971TIP3    H281405   2.085   0.984  13.234  1.2748 -0.8993  0.8061
19972TIP3   OH281406   3.720   2.519   2.334  0.2018  0.0562  0.5511
19972TIP3    H181407   3.774   2.546   2.259 -0.8942 -0.1015 -0.3206
19972TIP3    H281408   3.680   2.600   2.364  0.2693  0.0460  0.6687
19973TIP3   OH281409   4.800   0.308   4.729  0.0625 -0.1027 -0.0654
19973TIP3    H181410   4.890   0.333   4.707  0.6078  0.2784  2.3141
19973TIP3    H281411   4.749   0.388   4.717  0.4640  0.2669  0.6384
19974TIP3   OH281412   6.107   1.764   2.175  0.4563  0.1911 -0.1840
19974TIP3    H181413   6.097   1.822   2.100  0.2975  0.3073 -0.0758
19974TIP3    H281414   6.027   1.778   2.226 -0.7462 -1.9209 -1.3792
19975TIP3   OH281415   6.093   2.406  16.327 -0.2345 -0.6298  0.3975
19975TIP3    H181416   6.120   2.353  16.402  0.7939 -0.0232  0.4684
19975TIP3    H281417   6.161   2.473  16.319  1.0448 -2.1310 -2.5976
19976TIP3   OH281418   6.819   5.174  10.736 -0.0695 -0.1358 -0.1453
19976TIP3    H181419   6.914   5.158  10.731 -0.0624  0.0129 -0.5862
19976TIP3    H281420   6.797   5.209  10.649 -0.4657  0.1781  0.0813
19977TIP3   OH281421   4.036   5.674   2.199  0.6354  0.1235  0.5422
19977TIP3    H181422   3.943   5.697   2.191  0.6018  0.0526  0.7311
19977TIP3    H281423   4.069   5.679   2.109  1.2266  3.3751  0.8124
19978TIP3   OH281424   5.057   1.288   0.220  0.1840  0.0523  0.4474
19978TIP3    H181425   5.072   1.196   0.198 -2.1521 -0.1159 -0.7587
19978TIP3    H281426   4.962   1.299   0.215  0.3792  2.4835  0.7901
19979TIP3   OH281427   1.518   6.466   6.723 -0.0115 -0.0997  0.6266
19979TIP3    H181428   1.514   6.558   6.696 -0.7173 -0.3618 -0.2276
19979TIP3    H281429   1.428   6.444   6.746 -0.3450 -1.2033 -1.4606
19980TIP3   OH281430   2.139   3.105   5.708 -0.2472 -0.2254  0.3459
19980TIP3    H181431   2.177   3.096   5.795 -2.5950  2.3491  1.7758
19980TIP3    H281432   2.187   3.178   5.669  0.0642 -0.6765 -0.1353
19981TIP3   OH281433   3.578   0.886   4.248 -0.4803 -0.1267  0.0932
19981TIP3    H181434   3.520   0.819   4.282  1.0083 -1.3376  0.3652
19981TIP3    H281435   3.633   0.910   4.323 -0.1728  0.4938 -0.3228
19982TIP3   OH281436   5.735   1.210   4.524  0.0362 -0.3196 -0.3152
19982TIP3    H181437   5.700   1.175   4.442 -0.0412  0.3362 -0.5700
19982TIP3    H281438   5.781   1.290   4.498  0.6495 -0.4967  0.1849
19983TIP3   OH281439   0.130   5.250   5.291  0.5851  0.5438 -0.2306
19983TIP3    H181440   0.143   5.294   5.375 -0.6752  0.1307  0.2042
19983TIP3    H281441   0.068   5.306   5.244 -0.3787 -0.3091 -0.0087
19984TIP3   OH281442   5.536   1.344   5.796  0.0373  0.1190 -0.4515
19984TIP3    H181443   5.510   1.289   5.870 -1.3214 -0.6671 -1.4622
19984TIP3    H281444   5.528   1.287   5.720  0.7357  1.1056 -1.2923
19985TIP3   OH281445   6.819   0.411  13.657  0.9753 -0.0451 -0.2275
19985TIP3    H181446   6.738   0.433  13.703  1.2668  1.2667 -0.3145
19985TIP3    H281447   6.797   0.332  13.606 -0.1874  0.1833 -0.1033
19986TIP3   OH281448   3.168   3.894  16.680 -0.1540 -0.4393  0.1010
19986TIP3    H181449   3.260   3.911  16.656 -0.2408 -0.3653 -0.1923
19986TIP3    H281450   3.151   3.955  16.752  0.1943 -0.8562  0.5406
19987TIP3   OH281451   2.595   3.640   0.214  0.1510  0.0963  0.0764
19987TIP3    H181452   2.504   3.624   0.240 -0.1712  1.1700 -0.3113
19987TIP3    H281453   2.647   3.614   0.290 -0.5237  0.0076  0.5172
19988TIP3   OH281454   0.404   2.657  12.674  0.0476 -0.4352  0.2618
19988TIP3    H181455   0.483   2.669  12.728 -0.8967  0.0552  1.5931
19988TIP3    H281456   0.423   2.579  12.622  1.7008  0.0967 -0.0199
19989TIP3   OH281457   4.037   2.482   4.627  0.1053  0.1015 -0.3121
19989TIP3    H181458   3.948   2.464   4.596 -0.1322  1.0202 -0.1947
19989TIP3    H281459   4.036   2.575   4.649  1.7197  0.7138 -2.4679
19990TIP3   OH281460   1.901   3.734   2.787  0.5619 -0.1827 -0.4204
19990TIP3    H181461   1.891   3.646   2.823 -0.3541  0.4592  0.9761
19990TIP3    H281462   1.989   3.734   2.748  1.4570 -1.0589  1.4790
19991TIP3   OH281463   1.406   6.187  15.280  0.1888  0.3384  0.4625
19991TIP3    H181464   1.382   6.235  15.360  1.1761  0.4656  0.6926
19991TIP3    H281465   1.501   6.195  15.275  0.3740 -1.5199  0.4498
19992TIP3   OH281466   5.861   2.083   1.269 -0.4764  0.0977  0.1332
19992TIP3    H181467   5.905   2.168   1.265  0.6972 -0.5169 -0.8188
19992TIP3    H281468   5.933   2.019   1.264 -1.4372 -0.9404 -0.9612
19993TIP3   OH281469   0.135   2.117  17.088  0.2656  0.2337 -0.1396
19993TIP3    H181470   0.229   2.101  17.076  0.0322 -1.2482 -0.0743
19993TIP3    H281471   0.124   2.126  17.182  0.0897 -1.3394  0.0039
19994TIP3   OH281472   3.390   3.474  14.845 -0.2497 -0.0948 -0.3772
19994TIP3    H181473   3.312   3.529  14.855  0.7130  1.6005 -1.5099
19994TIP3    H281474   3.358   3.384  14.850 -2.0386  0.5637  0.6326
19995TIP3   OH281475   2.972   4.895  17.027  0.4722 -0.4384 -0.1292
19995TIP3    H181476   3.058   4.853  17.031  0.6734 -0.0608 -0.5133
19995TIP3    H281477   2.977   4.966  17.091  0.6455 -0.0457 -0.5796
19996TIP3   OH281478   0.908   5.704   0.006  1.1307 -0.6171 -0.0650
19996TIP3    H181479   0.914   5.794   0.038 -0.3230 -0.4719 -0.1232
19996TIP3    H281480   0.999   5.676  -0.006  1.7282 -0.2268  2.8650
19997TIP3   OH281481   4.887   6.559  10.688 -0.5398  0.3624 -0.8509
19997TIP3    H181482   4.796   6.539  10.666 -1.1190  0.1014  1.4690
19997TIP3    H281483   4.928   6.473  10.699 -0.3046  0.4816 -0.7889
19998TIP3   OH281484   1.186   1.976  14.945  0.1134 -1.0008 -0.1898
19998TIP3    H181485   1.169   2.063  14.908 -0.5297 -0.6648  0.8517
19998TIP3    H281486   1.171   1.987  15.039 -0.2598 -2.3167 -0.0848
19999TIP3   OH281487   2.264   3.037  16.389  0.0256  0.3506 -0.0042
19999TIP3    H181488   2.260   3.001  16.478  0.9280 -1.6758 -0.7221
19999TIP3    H281489   2.318   3.116  16.397 -2.5805  2.0958  1.7564
20000TIP3   OH281490   6.216   4.637   3.149  0.0006  0.0921 -0.0621
20000TIP3    H181491   6.250   4.563   3.098 -1.0555 -0.0768 -0.5659
20000TIP3    H281492   6.281   4.706   3.138  0.3989 -0.3604 -0.6127
20001TIP3   OH281493   6.084   5.754  11.173 -0.4836 -0.2779  0.1832
20001TIP3    H181494   6.063   5.702  11.095  1.7747  1.8552 -2.0087
20001TIP3    H281495   6.021   5.826  11.170  0.5623  0.6309 -0.6016
20002TIP3   OH281496   0.517   6.405   5.366 -0.3321 -0.3392  0.2687
20002TIP3    H181497   0.567   6.484   5.385  0.1559 -0.8631  1.2830
20002TIP3    H281498   0.449   6.402   5.434 -1.0171 -0.2502 -0.3929
20003TIP3   OH281499   0.074   5.532   3.747 -0.0674 -0.0684 -0.2634
20003TIP3    H181500   0.086   5.519   3.653 -0.7488 -0.8347 -0.2553
20003TIP3    H281501   0.036   5.450   3.778  1.2544 -0.2839  0.9025
20004TIP3   OH281502   4.418   2.713  11.001 -0.0521  0.0459  0.3569
20004TIP3    H181503   4.449   2.722  10.911 -0.4073  1.3438  0.3505
20004TIP3    H281504   4.399   2.619  11.010  0.1756 -0.1356 -0.8530
20005TIP3   OH281505   5.362   6.171   3.130  0.2071  0.5227 -0.0392
20005TIP3    H181506   5.329   6.093   3.084  0.3558 -0.1093  0.9086
20005TIP3    H281507   5.402   6.137   3.209 -0.6086  1.6642  0.8922
20006TIP3   OH281508   6.627   0.774  12.004 -0.1858  0.1078  0.1803
20006TIP3    H181509   6.581   0.801  12.084 -1.8763  1.6719 -1.2363
20006TIP3    H281510   6.587   0.690  11.981 -0.5283  0.2193  0.3501
20007TIP3   OH281511   6.770   5.882  15.979 -0.4050 -0.1011 -0.0792
20007TIP3    H181512   6.809   5.819  16.040 -0.2207  0.0745 -0.0144
20007TIP3    H281513   6.695   5.835  15.942  0.4247 -0.7938 -0.9414
20008TIP3   OH281514   6.716   3.621  13.127 -0.0860  0.5257 -0.5750
20008TIP3    H181515   6.784   3.667  13.178 -1.0854  1.1490  0.2368
20008TIP3    H281516   6.763   3.583  13.053  1.5920 -1.1122  1.2232
20009TIP3   OH281517   4.699   1.277  13.798 -0.4648 -0.9111 -0.3164
20009TIP3    H181518   4.776   1.274  13.855 -0.8596  0.7645  0.3679
20009TIP3    H281519   4.636   1.219  13.840  0.4676 -2.5033 -1.0226
20010TIP3   OH281520   0.186   2.877  14.036  0.0111 -0.1181  0.2508
20010TIP3    H181521   0.092   2.889  14.050  0.1117  1.1612 -0.0545
20010TIP3    H281522   0.221   2.867  14.124 -0.2033  1.1665  0.5008
20011TIP3   OH281523   2.000   6.221   0.991  0.0131 -0.6642  0.4528
20011TIP3    H181524   2.004   6.128   0.970 -1.2391 -0.8962  1.1593
20011TIP3    H281525   1.984   6.225   1.085  1.5123  0.3077  0.7104
20012TIP3   OH281526   0.115   2.470   5.641  0.2870  0.2884  0.1204
20012TIP3    H181527   0.138   2.497   5.730  0.3791  1.7878 -0.3319
20012TIP3    H281528   0.177   2.516   5.585  1.6850 -2.3363 -0.6492
20013TIP3   OH281529   3.986   5.190  14.206 -0.1177  0.0234 -0.6127
20013TIP3    H181530   3.908   5.245  14.202 -0.3925 -0.2322  0.8133
20013TIP3    H281531   3.952   5.100  14.197 -0.2617 -0.2396  1.8720
20014TIP3   OH281532   3.030   1.815   5.583  0.1619  0.2733  0.1434
20014TIP3    H181533   2.936   1.834   5.588  0.2603  0.5018  1.5291
20014TIP3    H281534   3.035   1.737   5.528 -0.7011  1.0732 -1.1543
20015TIP3   OH281535   0.123   4.108  14.808 -0.6515 -0.6956  0.3574
20015TIP3    H181536   0.059   4.109  14.880  0.5987 -1.0404  1.5199
20015TIP3    H281537   0.196   4.160  14.841 -0.5758  0.2398 -1.2026
20016TIP3   OH281538   5.722   2.229   5.475  0.0818  0.0051 -0.1640
20016TIP3    H181539   5.629   2.211   5.459 -0.5634  1.9713  1.0075
20016TIP3    H281540   5.748   2.165   5.541 -0.6526 -0.1049  0.0318
20017TIP3   OH281541   0.791   2.924   4.713 -0.5457  0.5717  0.0198
20017TIP3    H181542   0.765   2.987   4.779 -0.7138  0.2256  0.2862
20017TIP3    H281543   0.887   2.918   4.721 -0.4277  1.4333 -0.5914
20018TIP3   OH281544   4.324   5.965   3.814 -0.2802  0.6668  0.6518
20018TIP3    H181545   4.419   5.969   3.799 -0.0888  0.0285  1.6531
20018TIP3    H281546   4.312   6.003   3.901 -0.6380 -1.6173  1.6699
20019TIP3   OH281547   2.678   3.770  12.748 -0.7311  0.4191  0.4896
20019TIP3    H181548   2.659   3.769  12.654  0.1755  0.0907  0.3001
20019TIP3    H281549   2.601   3.810  12.788 -0.6332  1.6732 -0.5176
20020TIP3   OH281550   6.313   5.752  12.971  0.3877 -0.3308 -0.6200
20020TIP3    H181551   6.232   5.711  12.942 -1.8312  3.6704 -0.7305
20020TIP3    H281552   6.354   5.782  12.890  0.0082  0.9135 -0.3711
20021TIP3   OH281553   6.025   5.711   0.418 -0.0820 -0.3341 -0.5225
20021TIP3    H181554   6.057   5.706   0.327 -1.7063  0.2708 -1.1611
20021TIP3    H281555   6.074   5.644   0.464  1.5974  0.0979 -1.5885
20022TIP3   OH281556   2.942   1.418  12.793 -0.1748  0.0860 -0.1909
20022TIP3    H181557   2.887   1.341  12.812 -0.8762  0.5416 -0.3154
20022TIP3    H281558   2.988   1.434  12.875 -1.2343  0.4785  0.3553
20023TIP3   OH281559   6.370   6.001   5.047 -0.2055 -0.0800  0.4872
20023TIP3    H181560   6.288   5.953   5.054 -0.6283  0.6738  0.8062
20023TIP3    H281561   6.375   6.052   5.128  1.2105 -1.0845  1.0842
20024TIP3   OH281562   6.298   0.529  11.096 -0.2504 -0.0795  0.0976
20024TIP3    H181563   6.382   0.489  11.072  0.0668  0.4718  0.2864
20024TIP3    H281564   6.233   0.479  11.046 -0.4462 -4.1135  3.7422
20025TIP3   OH281565   3.831   3.832  15.599  0.4721 -0.3538  0.1145
20025TIP3    H181566   3.787   3.909  15.563  1.6197  0.0666 -0.4161
20025TIP3    H281567   3.816   3.837  15.693  1.1357  0.8993  0.1618
20026TIP3   OH281568   2.527   1.440   0.740 -0.3167  0.0480  0.0374
20026TIP3    H181569   2.486   1.353   0.733  0.3126 -0.1954 -0.6311
20026TIP3    H281570   2.495   1.474   0.824 -1.2030 -0.4971 -0.0688
20027TIP3   OH281571   3.199   5.770   0.529 -0.1390  0.1226  0.4447
20027TIP3    H181572   3.172   5.766   0.621 -0.4067 -1.1993  0.3377
20027TIP3    H281573   3.222   5.861   0.514 -0.2105  0.3804  1.7927
20028TIP3   OH281574   2.255   1.037  14.439  0.3647  1.2485  0.1243
20028TIP3    H181575   2.180   0.978  14.439  0.4169  1.1459  1.4703
20028TIP3    H281576   2.228   1.110  14.383 -0.7687  1.2328  0.6225
20029TIP3   OH281577   5.134   6.124   5.053 -0.5372  0.4625 -0.3011
20029TIP3    H181578   5.047   6.095   5.026 -0.3152 -0.6307  0.0846
20029TIP3    H281579   5.118   6.189   5.121 -1.0757 -0.8348  0.8716
20030TIP3   OH281580   4.560   2.355  12.636 -0.0639  0.3551 -0.0679
20030TIP3    H181581   4.542   2.420  12.704 -0.7313  0.4580 -0.3396
20030TIP3    H281582   4.625   2.397  12.579 -1.4963  1.3550 -1.0305
20031TIP3   OH281583   1.193   0.544   0.290 -0.2671  0.3849 -0.2584
20031TIP3    H181584   1.146   0.624   0.312 -0.1394  0.3230  0.2356
20031TIP3    H281585   1.131   0.474   0.309 -0.6118  0.3900 -1.2961
20032TIP3   OH281586   5.333   1.101  11.998  0.5330  0.0746  0.5292
20032TIP3    H181587   5.286   1.043  12.058 -1.3978  0.7795 -0.2235
20032TIP3    H281588   5.298   1.079  11.912 -0.4162  2.4227  0.2389
20033TIP3   OH281589   6.810   2.637  13.506 -0.2763  0.0695  0.7551
20033TIP3    H181590   6.766   2.640  13.590  2.0287 -0.1164  2.0421
20033TIP3    H281591   6.850   2.550  13.502  1.1643  0.7058  0.3278
20034TIP3   OH281592   3.818   6.056  11.536 -0.4129  0.1952  0.2011
20034TIP3    H181593   3.729   6.052  11.500 -1.6800  0.6407  3.0501
20034TIP3    H281594   3.855   5.970  11.515 -2.3086 -0.8444  0.7744
20035TIP3   OH281595   0.129   0.737   1.527  0.5463  0.6755  0.3819
20035TIP3    H181596   0.187   0.762   1.455 -0.3376  0.5109 -0.4278
20035TIP3    H281597   0.131   0.641   1.527 -0.5481  0.6285 -0.3945
20036TIP3   OH281598   5.539   4.365  15.705 -0.4844 -0.1380 -0.4177
20036TIP3    H181599   5.613   4.411  15.665 -1.5729  1.2567 -0.9034
20036TIP3    H281600   5.484   4.339  15.631 -0.6569 -0.8720 -0.0398
20037TIP3   OH281601   2.364   4.424   1.962 -0.2881 -0.2860 -0.2262
20037TIP3    H181602   2.418   4.433   2.041 -1.7359  0.9827  0.6825
20037TIP3    H281603   2.323   4.339   1.971  0.6215 -0.7562 -0.3439
20038TIP3   OH281604   0.682   2.163  10.367  0.3058 -0.0559 -0.3681
20038TIP3    H181605   0.654   2.084  10.322 -3.7139  1.0359 -0.1613
20038TIP3    H281606   0.612   2.226  10.350  1.1582  2.0833  3.0516
20039TIP3   OH281607   1.565   5.004  11.021 -0.1312  0.1221 -0.1079
20039TIP3    H181608   1.488   4.952  11.042  0.4277 -0.7528 -0.1940
20039TIP3    H281609   1.598   4.967  10.939 -0.8030  1.8352 -1.2197
20040TIP3   OH281610   4.989   4.137  12.824  0.0942 -0.1020 -0.1063
20040TIP3    H181611   4.909   4.116  12.774 -0.8213 -0.0638  1.2914
20040TIP3    H281612   4.966   4.214  12.875  1.8340  1.3922 -1.4252
20041TIP3   OH281613   4.239   4.115   3.694 -0.2513 -0.1443 -0.3570
20041TIP3    H181614   4.163   4.086   3.744 -0.9601  0.4483 -1.0554
20041TIP3    H281615   4.204   4.182   3.635  1.0122  0.9279  0.0673
20042TIP3   OH281616   3.994   3.510  13.926 -0.4432 -0.0740 -0.0818
20042TIP3    H181617   3.899   3.502  13.919 -0.6088  1.0660  0.5791
20042TIP3    H281618   4.010   3.604  13.921  0.6703 -0.2673 -0.3730
20043TIP3   OH281619   4.741   3.651  16.338 -0.4069  0.2684  0.3483
20043TIP3    H181620   4.743   3.555  16.332 -0.5285  0.2676  0.3248
20043TIP3    H281621   4.820   3.679  16.291 -0.1597  0.1610  0.6927
20044TIP3   OH281622   1.538   6.047  14.635  0.2693 -0.2974 -0.7690
20044TIP3    H181623   1.495   6.094  14.706  1.2029  1.8636 -1.5173
20044TIP3    H281624   1.623   6.091  14.625  1.6158 -2.7536 -0.9939
20045TIP3   OH281625   2.822   5.494  11.686 -0.1803 -0.0415 -0.0316
20045TIP3    H181626   2.788   5.414  11.646  2.5417 -0.5519 -1.5651
20045TIP3    H281627   2.899   5.465  11.736  1.6716  1.6692 -1.7038
20046TIP3   OH281628   1.471   1.402  13.691  0.2838 -0.0587 -0.3589
20046TIP3    H181629   1.473   1.346  13.613  2.1294 -0.6279  0.0479
20046TIP3    H281630   1.388   1.379  13.735  0.1515 -1.1617 -1.1359
20047TIP3   OH281631   2.214   3.020   3.978 -0.4359 -0.1668 -0.1182
20047TIP3    H181632   2.144   3.083   3.961 -0.5974 -0.1060  0.7382
20047TIP3    H281633   2.267   3.022   3.898 -1.0490  0.2541 -0.5259
20048TIP3   OH281634   5.870   2.332  16.518  0.1809  0.2668  0.2752
20048TIP3    H181635   5.937   2.338  16.586  0.7422 -1.8905 -0.0092
20048TIP3    H281636   5.874   2.241  16.488 -1.0648  0.7712 -1.6207
20049TIP3   OH281637   2.806   0.757   0.055  0.3752 -0.3253 -0.1069
20049TIP3    H181638   2.790   0.739  -0.038 -0.9747 -0.4493  0.1373
20049TIP3    H281639   2.726   0.730   0.099  0.5589  0.8000  0.9709
20050TIP3   OH281640   1.904   4.308   4.864  0.3709  0.2917 -0.3098
20050TIP3    H181641   1.969   4.240   4.847 -0.4443 -0.6971  0.4605
20050TIP3    H281642   1.928   4.344   4.950  0.4532  0.5875 -0.4530
20051TIP3   OH281643   2.364   5.969  14.814  0.4913  0.0661  0.1474
20051TIP3    H181644   2.457   5.961  14.793  0.6043 -0.3359  0.7793
20051TIP3    H281645   2.361   6.036  14.883  0.3826 -0.3928  0.5884
20052TIP3   OH281646   2.990   6.317   1.757  0.8233  0.0655  0.2763
20052TIP3    H181647   3.012   6.385   1.820  1.4348 -1.3606  1.6847
20052TIP3    H281648   3.055   6.326   1.687  0.2973  1.5085 -0.0440
20053TIP3   OH281649   5.344   4.138   3.851  0.0252 -0.3694  0.4266
20053TIP3    H181650   5.438   4.135   3.869  0.2240  1.1067 -0.2311
20053TIP3    H281651   5.306   4.074   3.911  1.6772 -2.7113 -0.8440
20054TIP3   OH281652   4.001   2.864  15.112  0.0724  0.2991  0.7577
20054TIP3    H181653   3.971   2.815  15.036  2.5418  1.5192 -1.1290
20054TIP3    H281654   3.948   2.944  15.112  1.3929  1.2421 -0.9872
20055TIP3   OH281655   2.201   4.120  11.677  0.1360  0.3462 -0.3313
20055TIP3    H181656   2.169   4.205  11.707 -0.8855  0.4634 -1.6952
20055TIP3    H281657   2.295   4.122  11.696 -0.2908  0.7344  2.0061
20056TIP3   OH281658   3.379   3.020  14.935  0.0569  0.0367  0.1916
20056TIP3    H181659   3.299   3.011  14.884 -0.5940 -0.9861  1.3195
20056TIP3    H281660   3.434   2.946  14.908  1.5134  1.8060 -1.9972
20057TIP3   OH281661   2.056   6.158  14.266  0.1567  0.0928 -0.5020
20057TIP3    H181662   2.085   6.154  14.357  1.0747 -0.5969 -0.8087
20057TIP3    H281663   2.027   6.249  14.254  0.1645  0.2270  0.4296
20058TIP3   OH281664   1.695   5.226   2.162 -0.1549 -0.5427 -0.0048
20058TIP3    H181665   1.643   5.145   2.169 -1.4225  0.2832  0.4753
20058TIP3    H281666   1.754   5.222   2.237 -0.8686 -0.5874  0.5713
20059TIP3   OH281667   0.196   4.786  10.809  0.5477 -0.0881 -0.5175
20059TIP3    H181668   0.276   4.750  10.771  0.4898  0.3654 -1.0768
20059TIP3    H281669   0.222   4.870  10.846  0.3839 -0.0530 -0.4837
20060TIP3   OH281670   3.362   2.200   6.001  0.4235  0.2544 -0.5454
20060TIP3    H181671   3.272   2.192   6.031  0.8527  1.1296  1.0828
20060TIP3    H281672   3.394   2.110   5.998 -0.2757 -0.0024 -0.4176
20061TIP3   OH281673   4.295   1.899   4.109 -0.0041 -0.5714  0.1998
20061TIP3    H181674   4.326   1.823   4.158 -0.5494 -0.2889  1.0112
20061TIP3    H281675   4.269   1.865   4.024 -0.5230 -1.3432  0.6647
20062TIP3   OH281676   5.538   4.974  16.650 -0.3575 -0.1057 -0.0969
20062TIP3    H181677   5.530   4.889  16.694  0.0136 -1.1415 -1.9340
20062TIP3    H281678   5.608   5.019  16.697 -1.3224 -0.3062  1.6312
20063TIP3   OH281679   5.779   4.349   3.922 -0.1866 -0.4851 -0.4242
20063TIP3    H181680   5.867   4.341   3.957 -0.2880 -0.1786 -0.0830
20063TIP3    H281681   5.791   4.372   3.830  0.1058  0.7455 -0.0971
20064TIP3   OH281682   1.787   2.172  15.676 -0.7575  0.4713  0.7056
20064TIP3    H181683   1.830   2.257  15.686 -0.3992  0.5728 -1.3211
20064TIP3    H281684   1.860   2.110  15.664 -1.0839  0.1282  0.4938
20065TIP3   OH281685   1.968   5.980  16.211  0.1723  0.0825  0.0836
20065TIP3    H181686   2.012   5.995  16.127 -1.2763  0.9888 -0.5628
20065TIP3    H281687   1.989   6.057  16.263  1.3494 -0.6363  0.7093
20066TIP3   OH281688   0.618   5.439   5.808 -0.0573  0.0109  0.1817
20066TIP3    H181689   0.660   5.354   5.819 -0.2790 -0.1362 -0.0878
20066TIP3    H281690   0.681   5.492   5.760  0.1692  0.0697  0.5418
20067TIP3   OH281691   2.661   6.007   5.301 -0.4613 -0.2112  0.0987
20067TIP3    H181692   2.727   6.023   5.234 -0.2589  0.6077  0.4903
20067TIP3    H281693   2.711   5.984   5.379 -0.7144 -2.0529 -0.2286
20068TIP3   OH281694   4.235   2.261   1.888 -0.2929  0.2760 -0.1079
20068TIP3    H181695   4.304   2.198   1.909 -0.9314 -0.4317 -0.0715
20068TIP3    H281696   4.265   2.305   1.809 -0.1605 -0.6015 -0.5588
20069TIP3   OH281697   0.663   4.467  15.446  0.5483  0.9047  0.4671
20069TIP3    H181698   0.663   4.372  15.460  1.9043  0.9700  1.0712
20069TIP3    H281699   0.581   4.484  15.399  1.5100 -0.9274 -2.1235
20070TIP3   OH281700   6.365   0.304   5.561 -0.5818  0.2346  0.1670
20070TIP3    H181701   6.456   0.272   5.562 -0.6865 -0.2797 -2.1199
20070TIP3    H281702   6.360   0.363   5.636  1.8023  0.7034  0.0426
20071TIP3   OH281703   3.142   4.391   4.237  0.4519  0.4704 -0.4441
20071TIP3    H181704   3.192   4.427   4.164 -1.2960 -0.3243 -2.1108
20071TIP3    H281705   3.134   4.298   4.217 -0.0300  0.2218  0.8059
20072TIP3   OH281706   2.198   4.500  13.658  0.5215  0.7257 -0.5154
20072TIP3    H181707   2.241   4.421  13.625  1.9666  1.1888  0.1843
20072TIP3    H281708   2.269   4.564  13.667 -0.5676  2.0229 -0.7750
20073TIP3   OH281709   1.690   4.690   3.167 -0.0288  0.4009  0.0494
20073TIP3    H181710   1.728   4.661   3.251  1.1222  0.3232 -0.4794
20073TIP3    H281711   1.761   4.738   3.124 -0.1358 -0.7666 -1.5013
20074TIP3   OH281712   2.745   4.268   4.264 -0.9403 -0.1146 -0.6624
20074TIP3    H181713   2.771   4.237   4.178 -2.0682  0.9054 -1.4120
20074TIP3    H281714   2.821   4.318   4.295  0.2987 -2.2575 -0.0853
20075TIP3   OH281715   3.000   2.327   2.424  0.1211  0.3184 -0.2123
20075TIP3    H181716   2.914   2.369   2.432  0.1166  0.5564 -1.3608
20075TIP3    H281717   3.007   2.273   2.503 -0.2465  1.7906  0.8851
20076TIP3   OH281718   4.613   5.235  16.136 -0.3036  0.2373 -0.1419
20076TIP3    H181719   4.647   5.156  16.179 -0.9159  0.4453  0.7538
20076TIP3    H281720   4.599   5.208  16.045 -0.3568 -0.6541  0.1191
20077TIP3   OH281721   6.068   6.232  16.701 -0.1355  0.0310 -0.1610
20077TIP3    H181722   6.044   6.324  16.698 -2.9881 -0.6389 -1.8858
20077TIP3    H281723   6.122   6.223  16.779 -0.9622  2.8865  0.8404
20078TIP3   OH281724   1.539   0.169   1.471  0.1290  0.2118 -0.5090
20078TIP3    H181725   1.521   0.258   1.441  1.0323  0.8827  0.8093
20078TIP3    H281726   1.635   0.164   1.475  0.1132 -1.0774 -1.2546
20079TIP3   OH281727   1.918   5.455  13.556  0.1145 -0.1253 -0.3821
20079TIP3    H181728   1.899   5.547  13.537 -0.0088 -0.3032 -1.1833
20079TIP3    H281729   1.911   5.448  13.651 -2.4038  0.1698 -0.4625
20080TIP3   OH281730   6.790   5.111   4.502  0.3721 -0.7305 -0.3817
20080TIP3    H181731   6.827   5.084   4.586 -0.6997  0.8017  0.6146
20080TIP3    H281732   6.862   5.156   4.458  0.3901  0.1744  0.5517
20081TIP3   OH281733   3.530   3.038   3.042 -0.0978 -0.6979  0.4868
20081TIP3    H181734   3.598   2.996   2.990 -0.2891  0.2712 -0.5932
20081TIP3    H281735   3.546   3.131   3.032 -1.0856 -0.4706  0.8946
20082TIP3   OH281736   2.085   5.854   0.475  0.1892 -0.1856 -0.1148
20082TIP3    H181737   2.088   5.810   0.390  0.4197  0.1222 -0.2689
20082TIP3    H281738   2.111   5.787   0.538 -0.7314 -0.6279 -0.1968
20083TIP3   OH281739   5.446   5.157  13.753 -0.3893 -0.4400 -0.0286
20083TIP3    H181740   5.440   5.152  13.657  1.5720 -0.8324 -0.1797
20083TIP3    H281741   5.432   5.067  13.783 -0.1011 -0.4801 -0.0155
20084TIP3   OH281742   3.918   5.083  12.294  0.7428 -0.0774  0.7861
20084TIP3    H181743   3.839   5.074  12.348  0.3195  0.7686  0.3363
20084TIP3    H281744   3.884   5.089  12.204  1.5023 -2.9752  0.1944
20085TIP3   OH281745   0.820   6.179  12.946 -0.3660 -0.1701 -0.5701
20085TIP3    H181746   0.890   6.242  12.926  1.0461 -1.6287 -0.4118
20085TIP3    H281747   0.799   6.195  13.038  1.1069 -0.9449 -0.0680
20086TIP3   OH281748   3.278   4.814   5.101 -1.0236 -0.0677  0.0227
20086TIP3    H181749   3.362   4.858   5.091 -0.7792 -0.5505 -0.0615
20086TIP3    H281750   3.300   4.726   5.129 -1.5260 -0.0511  0.4907
20087TIP3   OH281751   1.182   3.697   1.856  0.4893  0.4222 -0.0743
20087TIP3    H181752   1.136   3.644   1.922  1.4124  0.6761  0.7916
20087TIP3    H281753   1.132   3.778   1.852  1.2725  1.0146  1.4342
20088TIP3   OH281754   6.204   0.786   4.827 -0.3113 -0.1317  0.3073
20088TIP3    H181755   6.299   0.794   4.836 -0.3684  0.1748  0.6757
20088TIP3    H281756   6.170   0.868   4.862 -0.8546 -1.3679  2.9632
20089TIP3   OH281757   5.336   0.162  13.445  0.4357  0.2305 -0.0552
20089TIP3    H181758   5.429   0.166  13.422  1.0114  1.3550  2.1750
20089TIP3    H281759   5.290   0.183  13.363  2.1582  0.3813 -1.0302
20090TIP3   OH281760   3.993   1.322  10.882  0.4451 -0.2470 -0.6573
20090TIP3    H181761   4.026   1.362  10.802  2.7855  1.4165  1.0013
20090TIP3    H281762   3.969   1.397  10.938 -0.6885 -1.3387  0.3920
20091TIP3   OH281763   0.539   6.814   1.390  0.0708 -0.1909  0.0546
20091TIP3    H181764   0.556   6.842   1.480 -1.9398 -0.5667  0.5943
20091TIP3    H281765   0.520   6.896   1.343  1.8334  0.0872 -0.2466
20092TIP3   OH281766   6.843   4.275   5.580  0.2769 -0.1321  0.7317
20092TIP3    H181767   6.897   4.300   5.655 -0.1222  0.1332  0.9318
20092TIP3    H281768   6.906   4.261   5.510  0.4653  2.6822  0.2327
20093TIP3   OH281769   1.555   2.469   0.670  0.3955  0.1738  0.3101
20093TIP3    H181770   1.549   2.547   0.614  1.0216  0.4899  0.6713
20093TIP3    H281771   1.609   2.408   0.620 -1.4478 -0.7066 -0.7141
20094TIP3   OH281772   5.789   3.354   5.339 -0.9070  0.0038  0.1817
20094TIP3    H181773   5.840   3.378   5.416  0.0536 -0.0338 -0.4237
20094TIP3    H281774   5.812   3.263   5.322 -0.7200  0.1645 -0.4433
20095TIP3   OH281775   5.791   5.769   2.080  0.7714 -0.5548 -0.1837
20095TIP3    H181776   5.779   5.678   2.109 -0.4243 -0.8415 -1.4801
20095TIP3    H281777   5.704   5.798   2.054  1.0765  1.0941  0.4982
20096TIP3   OH281778   5.936   4.328  12.298 -0.2087 -0.2564  0.3031
20096TIP3    H181779   5.946   4.250  12.243  1.4437  1.0919 -1.4134
20096TIP3    H281780   5.884   4.388  12.245  0.6059  0.7126  0.5866
20097TIP3   OH281781   3.255   4.859  10.860  0.0226 -0.2299  0.1646
20097TIP3    H181782   3.341   4.887  10.828  0.0987  1.7299  1.8585
20097TIP3    H281783   3.200   4.857  10.782  1.6383 -1.8825 -1.0182
20098TIP3   OH281784   5.379   2.115  12.963  0.0102 -0.6512  0.5601
20098TIP3    H181785   5.461   2.160  12.943 -0.7452  0.2771 -0.6268
20098TIP3    H281786   5.400   2.058  13.037  1.5560  0.0345  0.6932
20099TIP3   OH281787   4.876   2.200   2.677  0.5691  0.5234 -0.0045
20099TIP3    H181788   4.954   2.255   2.686 -0.0586  1.5858 -0.8409
20099TIP3    H281789   4.818   2.229   2.748  0.8082 -0.0704  0.4422
20100TIP3   OH281790   4.953   2.184   2.274 -0.4145 -0.4313  0.1250
20100TIP3    H181791   4.940   2.150   2.185  0.9173  0.3356 -0.4122
20100TIP3    H281792   4.904   2.266   2.275  1.2042  0.6097 -0.6517
20101TIP3   OH281793   1.683   3.424   5.576  0.0262  0.1908  0.5566
20101TIP3    H181794   1.633   3.402   5.654  1.2177 -0.7935  1.0744
20101TIP3    H281795   1.770   3.388   5.592  0.5126  0.6341 -0.9066
20102TIP3   OH281796   0.293   2.219   6.028 -0.2733  0.1145  0.0793
20102TIP3    H181797   0.321   2.227   6.119 -1.1405 -0.1404  0.3808
20102TIP3    H281798   0.222   2.155   6.030 -0.6054  0.4400 -0.7147
20103TIP3   OH281799   5.090   3.851  12.419  0.1836  0.0103 -0.3067
20103TIP3    H181800   5.085   3.916  12.350  1.5975  0.0521 -0.4022
20103TIP3    H281801   5.005   3.856  12.463  0.8487  3.2900  0.9076
20104TIP3   OH281802   1.484   5.480   4.549 -0.2717  0.1963 -0.0240
20104TIP3    H181803   1.414   5.541   4.573  0.3498  1.3573 -1.0456
20104TIP3    H281804   1.541   5.478   4.625 -1.2001 -0.4821  0.6823
20105TIP3   OH281805   0.083   2.180   4.726  0.1118 -0.0396  0.3077
20105TIP3    H181806   0.132   2.214   4.801 -0.9015  1.6911  0.2563
20105TIP3    H281807   0.123   2.095   4.707  2.0929  0.6412  1.1683
20106TIP3   OH281808   0.874   2.493   1.754  0.3852  0.1167  0.0229
20106TIP3    H181809   0.843   2.466   1.668  2.2600 -0.6068 -0.4963
20106TIP3    H281810   0.865   2.588   1.755  0.6394  0.1649 -1.1227
20107TIP3   OH281811   1.307   5.264   2.036  0.5037 -0.5314  0.3818
20107TIP3    H181812   1.333   5.256   2.128  1.8946 -0.6295  0.0132
20107TIP3    H281813   1.326   5.178   1.999 -2.7627 -1.4776  0.5673
20108TIP3   OH281814   4.961   2.244  15.920  0.2309 -0.5244  0.0702
20108TIP3    H181815   4.977   2.197  15.838  1.9978 -0.8572  0.5652
20108TIP3    H281816   5.004   2.329  15.907 -1.0551  0.1368  0.0030
20109TIP3   OH281817   5.204   4.769   6.107  0.3435 -0.0097 -0.5537
20109TIP3    H181818   5.146   4.794   6.035  0.7952 -0.3697 -1.0446
20109TIP3    H281819   5.176   4.681   6.132  1.0099 -0.3988 -1.1438
20110TIP3   OH281820   4.966   6.355  15.639 -0.0065 -0.1648  0.2749
20110TIP3    H181821   4.975   6.374  15.733 -0.1438  0.1725  0.2237
20110TIP3    H281822   4.971   6.441  15.598  1.5253 -0.4327 -0.1516
20111TIP3   OH281823   5.568   4.130   6.314 -0.1183  0.2332 -0.9502
20111TIP3    H181824   5.644   4.076   6.334 -0.3354  0.4219  0.5054
20111TIP3    H281825   5.499   4.068   6.292 -0.6896 -0.2595  1.7845
20112TIP3   OH281826   1.652   1.897  15.306 -0.7218  0.6194 -0.4390
20112TIP3    H181827   1.738   1.899  15.263 -0.9423  0.1745 -0.9084
20112TIP3    H281828   1.673   1.888  15.399 -0.2520 -1.0922 -0.6643
20113TIP3   OH281829   6.530   4.032   4.679 -0.2053 -0.4895 -0.0588
20113TIP3    H181830   6.484   4.109   4.644  2.4538  1.2150 -0.0922
20113TIP3    H281831   6.549   3.978   4.602  0.9794  0.6130 -0.5765
20114TIP3   OH281832   0.693   2.144   0.623  0.2842 -0.4910 -0.8887
20114TIP3    H181833   0.777   2.125   0.579 -0.0246 -0.0011 -1.7173
20114TIP3    H281834   0.710   2.222   0.674  1.0783 -1.9148  1.1595
20115TIP3   OH281835   0.804   3.930   0.274  0.3234 -0.3114  0.1629
20115TIP3    H181836   0.876   3.941   0.212 -1.2537  0.4943 -1.6029
20115TIP3    H281837   0.798   3.836   0.287  0.8013 -0.4785 -0.7457
20116TIP3   OH281838   6.525   2.991   2.328 -0.1418  0.2163 -0.1446
20116TIP3    H181839   6.444   3.041   2.327 -1.7217 -2.1593  0.7322
20116TIP3    H281840   6.512   2.926   2.397  2.3519 -0.5303 -0.2742
20117TIP3   OH281841   4.069   6.400  13.513  0.4850 -0.9876  0.6733
20117TIP3    H181842   3.973   6.398  13.514  0.3457 -0.4995 -1.9753
20117TIP3    H281843   4.091   6.493  13.517  0.8148 -1.0660  0.6875
20118TIP3   OH281844   1.945   5.604  15.243 -0.0186  0.6018 -0.5012
20118TIP3    H181845   1.869   5.550  15.261  0.0988  0.6686  0.2394
20118TIP3    H281846   1.922   5.691  15.277  0.1388  0.7868 -0.8589
20119TIP3   OH281847   5.426   1.518   1.870  0.0516  0.2905 -0.8747
20119TIP3    H181848   5.336   1.552   1.867 -0.3269 -0.6752 -0.8926
20119TIP3    H281849   5.472   1.577   1.929 -0.4789  1.0725 -1.2325
20120TIP3   OH281850   5.129   6.296  11.248 -0.0841 -0.2924  0.1633
20120TIP3    H181851   5.165   6.375  11.207  0.1376  0.0567  1.0022
20120TIP3    H281852   5.052   6.327  11.296 -0.4164 -0.7167 -0.0835
20121TIP3   OH281853   5.739   1.267   2.707 -0.3211  0.2565  0.8936
20121TIP3    H181854   5.761   1.199   2.643 -0.0935  0.8616  0.3234
20121TIP3    H281855   5.649   1.292   2.685 -0.6136 -0.2603  1.4709
20122TIP3   OH281856   0.589   6.275   1.744  0.2212 -0.0387 -0.4962
20122TIP3    H181857   0.557   6.339   1.680  0.6538 -0.3788 -1.0632
20122TIP3    H281858   0.673   6.310   1.772  2.3469 -2.0797 -3.5819
20123TIP3   OH281859   5.557   6.370   0.811  0.5713  0.0113  0.4327
20123TIP3    H181860   5.633   6.416   0.777  1.5197 -1.8338 -0.0718
20123TIP3    H281861   5.496   6.366   0.737 -0.6678  2.5973  1.1747
20124TIP3   OH281862   6.550   2.803   1.746  0.1391  0.4051  0.2640
20124TIP3    H181863   6.500   2.842   1.817 -0.1457 -1.3083  1.0290
20124TIP3    H281864   6.641   2.810   1.775 -0.0133 -0.7783  1.0647
20125TIP3   OH281865   4.578   3.272  12.535 -0.4414 -0.0704 -0.1873
20125TIP3    H181866   4.653   3.312  12.579 -1.2552  0.3227  0.8620
20125TIP3    H281867   4.501   3.308  12.579 -1.2327 -2.4276  0.5049
20126TIP3   OH281868   1.415   0.625   2.680 -0.2039  0.0675  0.4393
20126TIP3    H181869   1.443   0.606   2.769  0.4293  0.3330  0.3012
20126TIP3    H281870   1.474   0.694   2.650  0.1551 -0.6167 -0.4743
20127TIP3   OH281871   3.974   6.086   3.541 -0.3394  0.2475  0.1848
20127TIP3    H181872   3.942   5.998   3.523 -1.1420  0.5806 -0.0741
20127TIP3    H281873   3.956   6.100   3.634 -0.3025  0.1789  0.2024
20128TIP3   OH281874   1.198   1.496  11.590 -0.3249 -0.0763  0.2920
20128TIP3    H181875   1.265   1.534  11.648 -0.2552  1.7287 -0.8921
20128TIP3    H281876   1.115   1.521  11.629 -0.2809  0.5183  0.0123
20129TIP3   OH281877   2.045   5.709  13.506 -0.1665  0.1803 -0.3556
20129TIP3    H181878   2.054   5.799  13.473  1.0544 -0.1802 -1.0498
20129TIP3    H281879   2.066   5.654  13.431 -1.1387 -0.7087  0.0016
20130TIP3   OH281880   6.725   3.024   5.162  0.4399 -0.3855  0.4891
20130TIP3    H181881   6.632   3.032   5.186 -0.3077 -1.8532 -1.6187
20130TIP3    H281882   6.762   2.968   5.230  0.2720  1.5769  2.3164
20131TIP3   OH281883   2.742   2.669   0.960 -0.0949  0.0114 -0.1965
20131TIP3    H181884   2.708   2.726   0.891 -2.0652  1.1786  1.5814
20131TIP3    H281885   2.688   2.590   0.954  0.5594 -0.4055 -0.7262
20132TIP3   OH281886   3.833   1.781  10.280  0.4724 -0.9588 -0.2095
20132TIP3    H181887   3.861   1.718  10.214  2.4854 -1.2913  0.8904
20132TIP3    H281888   3.834   1.732  10.362 -0.6836 -0.2026  0.2821
20133TIP3   OH281889   5.474   4.278   4.843  0.1354 -0.5063 -0.2552
20133TIP3    H181890   5.464   4.358   4.792 -0.2743 -0.0391  0.5386
20133TIP3    H281891   5.446   4.208   4.784 -0.6945  0.0642 -0.5547
20134TIP3   OH281892   0.147   4.231   2.472  0.8808  0.7423 -0.4983
20134TIP3    H181893   0.096   4.236   2.392  1.6711 -0.1011 -1.0750
20134TIP3    H281894   0.084   4.205   2.540  0.4168  0.4013 -1.0574
20135TIP3   OH281895   4.145   3.752   1.031  0.7625  0.1911  0.3358
20135TIP3    H181896   4.159   3.792   1.117  1.7020  0.1879  0.1967
20135TIP3    H281897   4.174   3.818   0.968 -0.5239  0.4459 -0.0202
20136TIP3   OH281898   2.102   0.993   5.487  0.4505  0.1438 -0.7332
20136TIP3    H181899   2.175   0.942   5.523  0.5849  0.3203 -0.7535
20136TIP3    H281900   2.115   1.081   5.522 -0.8627 -0.2611  0.8800
20137TIP3   OH281901   4.674   1.221  15.091  0.0951  0.1468  0.0138
20137TIP3    H181902   4.700   1.129  15.096  0.5849  0.3297  0.9882
20137TIP3    H281903   4.757   1.269  15.088 -0.1459  0.5326 -1.4942
20138TIP3   OH281904   6.548   0.925  15.123 -0.3360  0.3494  0.3048
20138TIP3    H181905   6.574   0.910  15.214  0.8557 -0.2253 -0.1137
20138TIP3    H281906   6.628   0.913  15.072 -0.7440  1.6845 -0.7381
20139TIP3   OH281907   2.705   1.437  11.038 -0.1533  0.3836 -0.4104
20139TIP3    H181908   2.750   1.493  10.974  1.5183 -1.3625 -0.8291
20139TIP3    H281909   2.642   1.496  11.080  1.1869  2.4590 -1.1486
20140TIP3   OH281910   1.186   1.751  15.405 -0.4148  0.2708  0.3226
20140TIP3    H181911   1.208   1.658  15.415  0.9151  0.6419  0.9650
20140TIP3    H281912   1.114   1.751  15.341  0.3488 -1.1133 -0.5902
20141TIP3   OH281913   1.867   6.531   4.296  0.0730 -0.0641 -0.6167
20141TIP3    H181914   1.790   6.477   4.279  1.5439 -2.0126 -1.4842
20141TIP3    H281915   1.900   6.500   4.381 -0.5047  1.3084  0.1384
20142TIP3   OH281916   4.004   6.496   0.933 -0.2026 -0.3018  0.1982
20142TIP3    H181917   3.990   6.516   1.025  0.6802  0.4888  0.1759
20142TIP3    H281918   3.918   6.510   0.892 -0.3036  0.5881  0.6893
20143TIP3   OH281919   3.159   6.272   5.896  0.1769  0.2010 -0.0216
20143TIP3    H181920   3.127   6.343   5.841 -1.0822 -0.1667  0.1899
20143TIP3    H281921   3.146   6.193   5.843 -2.3072 -0.3183  1.2119
20144TIP3   OH281922   0.372   1.993   5.493 -0.6738  0.4392 -0.0738
20144TIP3    H181923   0.330   2.017   5.575  0.4551 -0.8018  0.9191
20144TIP3    H281924   0.358   2.068   5.435 -2.5046  0.8536  0.8451
20145TIP3   OH281925   6.521   6.777   2.208  0.4158  0.0477 -0.8316
20145TIP3    H181926   6.565   6.857   2.237  0.7825 -0.2334 -0.5871
20145TIP3    H281927   6.440   6.806   2.168  0.2855  0.5115 -0.2472
20146TIP3   OH281928   5.366   3.154   5.437 -0.0812 -0.6178  0.2659
20146TIP3    H181929   5.452   3.180   5.471 -0.5251 -0.8038  1.6220
20146TIP3    H281930   5.381   3.070   5.395  0.8715  0.5158 -1.8374
20147TIP3   OH281931   2.829   2.905  11.815 -0.7438  0.2993  0.0437
20147TIP3    H181932   2.812   2.975  11.878  1.3461 -0.7834  1.9345
20147TIP3    H281933   2.860   2.832  11.868  1.4998 -0.5485 -2.2523
20148TIP3   OH281934   5.129   1.662   6.136  0.1384 -0.1533  0.5237
20148TIP3    H181935   5.059   1.604   6.107  0.0092  0.1855  0.1466
20148TIP3    H281936   5.192   1.604   6.178  0.5217 -0.7334 -0.7913
20149TIP3   OH281937   2.944   0.353   0.909 -0.0417 -0.2729 -0.0014
20149TIP3    H181938   2.945   0.303   0.827  0.0430 -0.5592  0.1732
20149TIP3    H281939   2.867   0.409   0.902 -0.7741 -1.2283  0.2815
20150TIP3   OH281940   1.245   6.612  16.241 -0.0462 -0.0834 -0.1557
20150TIP3    H181941   1.313   6.642  16.301  1.2673 -0.0718 -1.5898
20150TIP3    H281942   1.249   6.517  16.245 -1.5203 -0.1394  1.4161
20151TIP3   OH281943   2.532   0.568  15.037 -0.0904 -0.2391 -0.0106
20151TIP3    H181944   2.495   0.495  14.986  0.4245 -1.1339  0.8462
20151TIP3    H281945   2.625   0.545  15.046  0.3451  1.1667 -0.7887
20152TIP3   OH281946   2.655   2.070   1.454  0.6970  0.9973 -0.1028
20152TIP3    H181947   2.732   2.125   1.468  1.4165  0.2767 -1.0921
20152TIP3    H281948   2.583   2.132   1.441  0.8623  1.6839  1.9209
20153TIP3   OH281949   1.332   5.978   0.240  0.1431 -0.3851  0.0873
20153TIP3    H181950   1.402   5.971   0.174  0.3940  0.9743  0.1835
20153TIP3    H281951   1.373   5.947   0.321 -0.0038 -1.5432 -0.2565
20154TIP3   OH281952   2.384   0.783   5.463  0.2680 -0.3343 -0.0401
20154TIP3    H181953   2.376   0.843   5.537 -0.8911 -0.7866  0.2077
20154TIP3    H281954   2.430   0.707   5.499  1.0528  0.0621 -0.1701
20155TIP3   OH281955   0.476   6.447   2.612  0.1270  0.1240  0.5239
20155TIP3    H181956   0.417   6.371   2.605 -1.4123  1.3856 -0.8481
20155TIP3    H281957   0.550   6.424   2.556 -0.7898  0.0141 -0.6840
20156TIP3   OH281958   4.182   4.607   4.431 -0.5655 -0.4323  0.2282
20156TIP3    H181959   4.187   4.530   4.488 -0.1702 -0.3093  0.3666
20156TIP3    H281960   4.088   4.628   4.427 -0.8261 -1.6879 -0.8669
20157TIP3   OH281961   4.246   6.468   5.374 -0.0688  0.3541  0.4769
20157TIP3    H181962   4.293   6.515   5.443  0.2777 -0.4613  0.8002
20157TIP3    H281963   4.168   6.521   5.358  0.8519  1.6300  0.0727
20158TIP3   OH281964   6.081   5.704   0.128  0.3979 -0.1768  0.1359
20158TIP3    H181965   6.129   5.698   0.046  0.9897 -0.3658  0.4860
20158TIP3    H281966   6.024   5.781   0.118 -1.2334 -1.4825 -1.3157
20159TIP3   OH281967   2.876   0.754  16.899  0.7660 -0.4674  0.4593
20159TIP3    H181968   2.949   0.803  16.862 -0.5343 -0.8765 -2.9989
20159TIP3    H281969   2.902   0.662  16.890  0.9986 -0.5799  1.9969
20160TIP3   OH281970   1.084   1.034   3.376  0.2844 -0.1278 -0.0364
20160TIP3    H181971   1.041   1.082   3.306 -0.5987 -2.1489 -0.9686
20160TIP3    H281972   1.092   1.097   3.447 -2.7116  0.8628 -0.4210
20161TIP3   OH281973   1.326   5.620   5.261 -0.2496 -0.3608  0.1438
20161TIP3    H181974   1.246   5.658   5.298 -0.1879 -0.1748  0.0855
20161TIP3    H281975   1.322   5.528   5.287 -2.2491 -1.2405 -2.7808
20162TIP3   OH281976   6.788   4.673   0.981 -0.0202 -0.3311  0.2476
20162TIP3    H181977   6.753   4.656   0.893 -0.6328 -0.7944  0.5748
20162TIP3    H281978   6.822   4.589   1.010  1.6734  0.1688 -0.1751
20163TIP3   OH281979   3.841   6.468  11.160 -0.3633 -0.5953 -0.0542
20163TIP3    H181980   3.803   6.381  11.147 -0.6225 -0.7630  1.5262
20163TIP3    H281981   3.826   6.514  11.078 -3.1831 -0.9631  0.1585
20164TIP3   OH281982   0.795   1.679   3.921  0.1333  0.3059  0.3211
20164TIP3    H181983   0.732   1.609   3.934  0.4779 -0.0643  0.0123
20164TIP3    H281984   0.881   1.637   3.929  0.3469  0.5796 -0.4275
20165TIP3   OH281985   2.468   0.850  16.099  0.2141 -0.4367 -0.4728
20165TIP3    H181986   2.383   0.828  16.060  0.2321 -1.3056 -0.0501
20165TIP3    H281987   2.519   0.887  16.027 -0.7791  0.8250 -0.5575
20166TIP3   OH281988   4.434   6.802  12.768  0.3380  0.6016  0.4552
20166TIP3    H181989   4.354   6.842  12.802  0.9033  1.1202  1.2028
20166TIP3    H281990   4.420   6.797  12.673 -0.8740 -0.0050  0.6407
20167TIP3   OH281991   6.197   3.210  13.633  0.7845 -0.0418 -0.1993
20167TIP3    H181992   6.175   3.154  13.558  1.1410 -0.3086 -0.1068
20167TIP3    H281993   6.141   3.177  13.704  0.0847  0.5337 -0.4784
20168TIP3   OH281994   0.677   4.606   1.014 -0.1017  0.2897  0.4896
20168TIP3    H181995   0.640   4.548   1.080 -0.1470  0.8167  0.9400
20168TIP3    H281996   0.738   4.551   0.965  1.2635  0.2807  2.0838
20169TIP3   OH281997   2.602   4.938   1.270  0.1076 -0.3574  0.0555
20169TIP3    H181998   2.521   4.987   1.283  1.6167  1.8569  1.7990
20169TIP3    H281999   2.628   4.959   1.180 -0.8718 -0.5559 -0.2908
20170TIP3   OH282000   2.229   6.407   0.115  0.2465  0.7585  0.2432
20170TIP3    H182001   2.308   6.376   0.071  0.1891  0.9166  0.0249
20170TIP3    H282002   2.194   6.329   0.159  0.4186  0.6462  0.1826
20171TIP3   OH282003   6.267   2.094   5.937  0.3080  0.8515  0.0295
20171TIP3    H182004   6.302   2.027   5.996  1.2775  1.8276  0.6183
20171TIP3    H282005   6.285   2.061   5.849  1.4885  0.6618  0.3165
20172TIP3   OH282006   0.741   0.743  16.945 -0.5144  0.1558 -0.5100
20172TIP3    H182007   0.746   0.731  16.850 -0.3516  0.1464 -0.5012
20172TIP3    H282008   0.778   0.662  16.982 -2.3204 -0.6862 -0.4192
20173TIP3   OH282009   2.365   1.762  14.280  0.5913 -0.4846  0.0391
20173TIP3    H182010   2.456   1.734  14.289  0.9717  0.5450 -0.3523
20173TIP3    H282011   2.321   1.688  14.238  0.9249 -1.5275  1.4545
20174TIP3   OH282012   5.193   0.237   0.934 -0.0972  0.5416  0.1627
20174TIP3    H182013   5.261   0.178   0.901  0.4595  0.4577  1.3759
20174TIP3    H282014   5.112   0.205   0.896  0.2583 -0.7576  0.4702
20175TIP3   OH282015   1.972   2.610   4.283  0.9033 -0.4119 -0.1115
20175TIP3    H182016   2.043   2.561   4.241 -0.6159 -1.4701 -1.5688
20175TIP3    H282017   2.009   2.697   4.299  2.6967 -1.1062 -0.3044
20176TIP3   OH282018   1.369   0.939  13.051  0.1636  0.5084  0.0385
20176TIP3    H182019   1.442   0.882  13.027  0.3575  0.6734  0.2363
20176TIP3    H282020   1.335   0.971  12.967 -0.8933 -1.0598 -0.1741
20177TIP3   OH282021   2.081   4.425   4.010  0.3180 -0.1428  0.0194
20177TIP3    H182022   2.109   4.358   4.073 -0.9418 -1.2133 -0.5030
20177TIP3    H282023   2.011   4.472   4.056 -0.1523 -0.4975 -0.3192
20178TIP3   OH282024   0.099   0.478  15.347 -0.1499  0.2360  0.8804
20178TIP3    H182025   0.149   0.544  15.395 -0.9377 -0.7234  3.1546
20178TIP3    H282026   0.143   0.395  15.366 -1.2760 -0.3340  1.0788
20179TIP3   OH282027   0.523   1.938   3.319  0.1353 -0.0776 -0.0600
20179TIP3    H182028   0.580   2.015   3.324  2.4995 -1.5496 -2.2027
20179TIP3    H282029   0.573   1.869   3.362 -1.6110 -0.6722  1.1238
20180TIP3   OH282030   3.854   3.762   1.355  0.0516  0.7162  0.6279
20180TIP3    H182031   3.944   3.783   1.329  0.0987  0.0380  0.2057
20180TIP3    H282032   3.864   3.694   1.422 -0.1032  1.7984  1.7828
20181TIP3   OH282033   3.629   6.019   1.129 -0.1925  0.8332 -0.6165
20181TIP3    H182034   3.690   6.052   1.063  2.6026 -1.4376  0.6582
20181TIP3    H282035   3.576   5.954   1.083  2.9532 -2.0973 -0.4770
20182TIP3   OH282036   4.181   5.707   4.263 -0.6032  0.1063 -0.1892
20182TIP3    H182037   4.142   5.628   4.224 -1.6058  0.3548  0.2881
20182TIP3    H282038   4.258   5.674   4.309 -0.7876 -0.5447 -0.3223
20183TIP3   OH282039   5.079   5.623  13.606  0.2581  0.4461 -0.4826
20183TIP3    H182040   5.104   5.544  13.655 -2.2973 -1.2621 -1.6963
20183TIP3    H282041   5.083   5.694  13.670  0.5963 -1.0357  1.2133
20184TIP3   OH282042   4.571   5.839  15.726 -0.6251 -0.0049  0.0622
20184TIP3    H182043   4.481   5.846  15.760 -1.1910  1.5204 -1.5939
20184TIP3    H282044   4.561   5.797  15.641  0.3785 -0.7835  0.3179
20185TIP3   OH282045   1.217   6.344  10.379 -0.5099 -0.1190 -0.2951
20185TIP3    H182046   1.237   6.308  10.293 -0.8391  0.4831 -0.6261
20185TIP3    H282047   1.122   6.351  10.381 -0.6701 -2.0015  0.8837
20186TIP3   OH282048   6.169   3.843  12.898  0.2864 -0.0544  0.4538
20186TIP3    H182049   6.159   3.938  12.899  0.5160 -0.0064 -0.6195
20186TIP3    H282050   6.171   3.818  12.990 -1.3134  0.8006  0.7402
20187TIP3   OH282051   2.262   0.338  16.449 -0.2605  0.3911  0.1263
20187TIP3    H182052   2.175   0.298  16.449  1.1172 -3.0184 -1.2716
20187TIP3    H282053   2.290   0.335  16.540 -1.6282  1.7157  0.6204
20188TIP3   OH282054   5.159   5.595   1.492  0.3748  0.3513 -0.0018
20188TIP3    H182055   5.251   5.609   1.471  1.3162 -1.7852  2.2515
20188TIP3    H282056   5.139   5.662   1.557  0.8850 -0.2782  0.8154
20189TIP3   OH282057   0.861   4.144   2.466  0.3687  0.4008 -0.3448
20189TIP3    H182058   0.918   4.202   2.517  2.1155 -1.1475 -0.3958
20189TIP3    H282059   0.787   4.126   2.524 -0.3563  2.7832 -0.4151
20190TIP3   OH282060   1.212   1.599  13.717 -0.1719  0.0760 -0.4158
20190TIP3    H182061   1.260   1.638  13.790  3.1186 -0.2469 -2.1915
20190TIP3    H282062   1.216   1.505  13.734 -1.7884  0.0934  0.2560
20191TIP3   OH282063   2.034   6.794  11.179 -0.2192  0.2219 -0.6611
20191TIP3    H182064   1.950   6.837  11.191  0.1214  1.1353 -1.4258
20191TIP3    H282065   2.080   6.849  11.115  0.2235 -1.2927 -1.6800
20192TIP3   OH282066   5.606   5.516   3.567  0.5390 -0.4810 -0.6945
20192TIP3    H182067   5.646   5.455   3.629  0.7265 -1.0567 -1.3706
20192TIP3    H282068   5.516   5.484   3.556  0.2077  0.1732 -0.0143
20193TIP3   OH282069   6.711   1.881  15.592  0.5275  0.0008  0.3764
20193TIP3    H182070   6.675   1.965  15.565 -0.4223 -0.5435 -0.1336
20193TIP3    H282071   6.638   1.820  15.583  1.5172 -1.1190 -0.4997
20194TIP3   OH282072   2.988   5.165   3.957  0.0318  0.6133 -0.5045
20194TIP3    H182073   2.923   5.189   4.024  0.2039  0.3452 -0.2391
20194TIP3    H282074   2.938   5.160   3.876 -0.8956 -2.4228  0.1328
20195TIP3   OH282075   6.027   4.366  14.076 -0.0069  0.3189  0.7093
20195TIP3    H182076   6.111   4.386  14.117  0.8506 -1.6219  0.0167
20195TIP3    H282077   6.025   4.420  13.997  0.9757 -0.1878  0.3160
20196TIP3   OH282078   3.727   1.746  14.544  0.2698  0.1589 -0.4732
20196TIP3    H182079   3.739   1.743  14.639 -1.0159 -1.9362 -0.3344
20196TIP3    H282080   3.793   1.685  14.510 -0.3882 -0.3801 -0.7874
20197TIP3   OH282081   6.365   3.129   0.905 -0.6524 -0.4053 -0.0438
20197TIP3    H182082   6.313   3.052   0.882 -2.0672  0.8041 -1.0772
20197TIP3    H282083   6.408   3.154   0.823 -2.5666  1.5923 -0.5532
20198TIP3   OH282084   1.051   5.493   4.079 -0.2402  0.1961  0.5425
20198TIP3    H182085   0.963   5.531   4.084  0.3392  1.7378 -0.1335
20198TIP3    H282086   1.041   5.416   4.023 -0.7565  1.8840 -1.8912
20199TIP3   OH282087   3.474   4.161  16.294 -0.9548  0.0371 -0.4513
20199TIP3    H182088   3.540   4.201  16.350 -0.0188 -1.0954 -0.7048
20199TIP3    H282089   3.456   4.228  16.227 -0.0025  0.3303 -0.4272
20200TIP3   OH282090   2.331   0.767   4.666 -0.5458  0.1149 -0.2011
20200TIP3    H182091   2.271   0.693   4.668 -0.3107 -0.0893 -0.7232
20200TIP3    H282092   2.409   0.734   4.624  0.7832 -0.2364  2.3376
20201TIP3   OH282093   2.092   4.943  13.097 -0.3732 -0.1346 -0.3428
20201TIP3    H182094   2.026   5.004  13.130  0.5476 -0.2888  1.9590
20201TIP3    H282095   2.064   4.858  13.128  1.1114 -0.1419  1.1191
20202TIP3   OH282096   3.813   2.445   5.357  0.0181 -0.1892  0.1713
20202TIP3    H182097   3.812   2.536   5.386 -1.1504 -0.0445 -0.2697
20202TIP3    H282098   3.721   2.421   5.349  0.1731 -0.2300 -3.3340
20203TIP3   OH282099   0.909   5.344  16.904 -0.0090  0.8936  0.1502
20203TIP3    H182100   0.908   5.299  16.820 -5.8150 -1.0959  0.8868
20203TIP3    H282101   0.979   5.301  16.953  1.5797  0.0842 -2.5830
20204TIP3   OH282102   0.780   2.021   2.170  0.2489 -0.0990 -0.5764
20204TIP3    H182103   0.843   1.950   2.155  0.4665 -0.3288  1.2503
20204TIP3    H282104   0.702   1.976   2.204 -0.1827  0.4056 -0.8794
20205TIP3   OH282105   6.237   6.160  12.415 -0.2769  0.1685  0.1591
20205TIP3    H182106   6.274   6.133  12.330  1.1795  0.1591  0.7558
20205TIP3    H282107   6.289   6.111  12.479 -1.6590 -0.1708  1.0543
20206TIP3   OH282108   4.580   5.978  12.470  0.8204 -0.1971  0.3971
20206TIP3    H182109   4.566   5.900  12.417  1.1305  0.2404 -0.3325
20206TIP3    H282110   4.501   6.030  12.457 -1.0306 -1.8743  3.5888
20207TIP3   OH282111   1.810   2.903   0.329  0.5019 -0.5088 -0.2608
20207TIP3    H182112   1.900   2.875   0.315  1.1697  2.2313 -2.4663
20207TIP3    H282113   1.815   2.969   0.398  0.1940 -0.3698 -0.3651
20208TIP3   OH282114   6.059   1.210  14.261 -0.1962  0.6928  0.3650
20208TIP3    H182115   6.132   1.215  14.322 -1.6322  3.1024  2.0357
20208TIP3    H282116   5.987   1.173  14.312 -1.3324  2.4379  0.1206
20209TIP3   OH282117   1.924   2.725  16.783 -0.2886  0.3257 -0.5820
20209TIP3    H182118   2.003   2.708  16.836  0.8385  0.1435 -2.2607
20209TIP3    H282119   1.854   2.681  16.831  0.5664  0.6626  1.0716
20210TIP3   OH282120   0.274   4.665   4.689  0.7786  0.2580 -0.1195
20210TIP3    H182121   0.228   4.590   4.652 -1.2993  0.8238  1.1560
20210TIP3    H282122   0.367   4.641   4.684  0.4552 -0.7713 -3.1025
20211TIP3   OH282123   0.069   4.975   5.016  0.5126 -0.3726 -0.0064
20211TIP3    H182124  -0.017   4.939   4.995  0.2907 -0.4541  0.9816
20211TIP3    H282125   0.053   5.036   5.088  1.3641 -0.8545  0.6077
20212TIP3   OH282126   0.428   5.115   2.011  0.1348 -0.1094  0.0940
20212TIP3    H182127   0.435   5.167   2.092 -0.0781  0.2503 -0.1177
20212TIP3    H282128   0.336   5.122   1.986 -0.1291 -1.4320  0.6156
20213TIP3   OH282129   6.529   4.840  16.703 -0.7343 -0.1662 -0.3536
20213TIP3    H182130   6.470   4.766  16.720 -0.7874  0.0111  0.2415
20213TIP3    H282131   6.535   4.885  16.787  1.2253 -0.8649 -0.0794
20214TIP3   OH282132   1.702   4.724   0.911  0.0956  0.6177 -0.3401
20214TIP3    H182133   1.672   4.739   1.001  1.3281 -0.8438  0.3561
20214TIP3    H282134   1.733   4.633   0.910 -0.0316  0.5427 -2.3004
20215TIP3   OH282135   5.518   5.134  13.475  0.7075 -0.3261 -0.0256
20215TIP3    H182136   5.506   5.226  13.452 -0.5006 -0.5190 -0.2370
20215TIP3    H282137   5.460   5.087  13.415  0.7098 -1.1660  0.6240
20216TIP3   OH282138   0.231   6.713  16.273  0.0295 -0.0189  0.4689
20216TIP3    H182139   0.181   6.640  16.238 -1.4888  0.8701  0.7083
20216TIP3    H282140   0.266   6.758  16.195 -1.1081  0.4144  0.1949
20217TIP3   OH282141   4.290   2.040  12.342 -0.4694  0.3392 -0.0491
20217TIP3    H182142   4.307   1.945  12.342  1.6896  0.5937  2.7210
20217TIP3    H282143   4.196   2.047  12.329 -0.9336 -2.2785  1.1777
20218TIP3   OH282144   1.775   3.795   1.962 -0.2356 -0.3772 -0.1429
20218TIP3    H182145   1.859   3.836   1.944 -0.4219  0.1925  0.2372
20218TIP3    H282146   1.765   3.729   1.894 -0.3225  0.8096 -1.3170
20219TIP3   OH282147   1.058   0.944  14.862  0.5383  0.6398 -0.5428
20219TIP3    H182148   1.030   0.863  14.821 -1.4442  0.2467  1.4034
20219TIP3    H282149   0.983   1.003  14.854  0.5443  0.9590  1.3784
20220TIP3   OH282150   0.599   2.202   3.344  0.2666 -0.4459 -0.6471
20220TIP3    H182151   0.521   2.242   3.381 -1.4164 -0.4360 -3.8637
20220TIP3    H282152   0.639   2.271   3.291  2.0263 -0.7063  0.2701
20221TIP3   OH282153   5.013   1.297  13.200 -0.0069  0.5340 -0.1431
20221TIP3    H182154   5.017   1.321  13.292  1.3653 -1.2638  0.3107
20221TIP3    H282155   4.969   1.213  13.199  1.4828 -0.2798 -0.9200
20222TIP3   OH282156   1.389   3.651  12.412 -0.3543 -0.1188  0.1479
20222TIP3    H182157   1.370   3.622  12.323  1.9484  1.7519 -1.0763
20222TIP3    H282158   1.450   3.586  12.446  0.4589  0.2808 -0.5013
20223TIP3   OH282159   3.298   6.282  13.259  0.4743 -0.3515 -0.0762
20223TIP3    H182160   3.251   6.213  13.305 -0.4881 -0.5990 -1.3564
20223TIP3    H282161   3.360   6.234  13.202  0.2009 -0.1522 -0.5480
20224TIP3   OH282162   5.314   6.436   3.168  0.4710  0.1495  0.8128
20224TIP3    H182163   5.334   6.343   3.160  1.0683  0.2207  1.3649
20224TIP3    H282164   5.238   6.439   3.226 -0.3147 -0.0516 -0.1883
20225TIP3   OH282165   3.499   5.155   0.672  0.8402  0.0774  0.2692
20225TIP3    H182166   3.469   5.230   0.723  3.3488 -0.0402  2.0937
20225TIP3    H282167   3.533   5.193   0.591  0.3709  0.7100  0.3652
20226TIP3   OH282168   6.013   0.821  10.910 -0.6168  0.6646  0.1905
20226TIP3    H182169   5.971   0.737  10.889  1.4800 -0.6116  0.8144
20226TIP3    H282170   6.002   0.831  11.004  1.6200 -0.4349  0.6341
20227TIP3   OH282171   3.991   4.336   1.181 -0.4359  0.5853 -0.3584
20227TIP3    H182172   4.084   4.350   1.166 -0.4611  0.0470 -1.0730
20227TIP3    H282173   3.948   4.411   1.139 -0.4037  0.0225 -1.4257
20228TIP3   OH282174   6.532   0.172  15.789 -0.0541  0.2650  0.3528
20228TIP3    H182175   6.572   0.127  15.864 -1.2388  1.8203  2.0260
20228TIP3    H282176   6.505   0.257  15.824 -1.8513  0.5378 -1.5124
20229TIP3   OH282177   2.725   3.042   4.755  0.2407  0.0810  0.4510
20229TIP3    H182178   2.708   3.136   4.748 -1.2774 -0.2180 -0.4542
20229TIP3    H282179   2.765   3.020   4.671 -0.3971 -0.2623  0.2369
20230TIP3   OH282180   5.276   4.922   5.286  0.4712 -0.4271 -0.3024
20230TIP3    H182181   5.216   4.989   5.320  1.2907  0.5489 -0.7393
20230TIP3    H282182   5.247   4.841   5.328  0.6143  0.5010  1.6952
20231TIP3   OH282183   3.626   6.052  14.264  0.7908 -0.3274 -0.0510
20231TIP3    H182184   3.643   6.110  14.190  2.7239 -0.1900  0.4344
20231TIP3    H282185   3.543   6.010  14.244  0.1565  1.3914 -1.1948
20232TIP3   OH282186   0.140   5.245  15.803 -0.3721  0.2401 -0.1408
20232TIP3    H182187   0.207   5.314  15.807  2.0523 -1.8736 -1.7102
20232TIP3    H282188   0.105   5.241  15.892  2.9978  0.1622  1.3098
20233TIP3   OH282189   6.779   5.229   1.210 -0.0064 -0.2519 -0.0162
20233TIP3    H182190   6.738   5.157   1.260  1.3941 -1.5388 -0.6465
20233TIP3    H282191   6.738   5.224   1.124  0.9766 -1.1618 -0.4612
20234TIP3   OH282192   5.582   5.070  16.942  0.2025  0.5512  0.3466
20234TIP3    H182193   5.518   5.141  16.936 -1.2741 -0.6855  0.6571
20234TIP3    H282194   5.534   4.998  16.983  1.6544 -0.6150  0.0974
20235TIP3   OH282195   1.119   3.219  16.163 -0.1098 -0.2574  0.2829
20235TIP3    H182196   1.136   3.293  16.220  0.5205 -1.3932  1.6286
20235TIP3    H282197   1.189   3.156  16.182 -0.2130 -0.9259 -1.3233
20236TIP3   OH282198   2.281   4.434   5.775 -0.1743 -0.1396  0.1931
20236TIP3    H182199   2.373   4.460   5.766  0.2602 -1.7416 -0.3578
20236TIP3    H282200   2.244   4.447   5.688 -0.7454  1.3897  0.6370
20237TIP3   OH282201   0.752   1.906   4.150  0.0016 -0.4044 -0.0011
20237TIP3    H182202   0.739   1.985   4.097 -1.3600 -0.0516  0.8132
20237TIP3    H282203   0.757   1.835   4.087 -1.4961  0.0160 -0.6370
20238TIP3   OH282204   3.767   1.282  12.712 -0.8764  0.1368 -0.0209
20238TIP3    H182205   3.836   1.238  12.662 -0.3268 -0.4979  1.2435
20238TIP3    H282206   3.752   1.225  12.787 -1.4899  1.1874  0.6740
20239TIP3   OH282207   5.219   5.593  11.037 -0.4344  0.5975  0.3603
20239TIP3    H182208   5.181   5.538  10.968 -0.4386 -0.3650  1.1029
20239TIP3    H282209   5.310   5.605  11.012 -0.2545 -0.3410  0.5337
20240TIP3   OH282210   5.698   5.861  12.089  0.7492  0.3630  0.0808
20240TIP3    H182211   5.747   5.849  12.171 -0.7975 -1.8825  0.7674
20240TIP3    H282212   5.695   5.956  12.077  2.2444  0.6962  1.8634
20241TIP3   OH282213   0.446   3.247  13.226 -0.7692  0.6638 -0.0405
20241TIP3    H182214   0.396   3.324  13.197 -0.9930  0.3182 -0.5926
20241TIP3    H282215   0.448   3.255  13.321 -3.3154 -0.1492  0.1664
20242TIP3   OH282216   1.266   2.811  16.119 -0.5286 -0.6153 -0.0122
20242TIP3    H182217   1.184   2.855  16.097  0.4945  0.0694 -2.8816
20242TIP3    H282218   1.261   2.727  16.075  0.8166 -0.0084 -1.4212
20243TIP3   OH282219   4.545   6.342   2.296  0.1855 -0.3446 -0.1289
20243TIP3    H182220   4.626   6.304   2.330 -0.4908 -2.1349 -0.4195
20243TIP3    H282221   4.534   6.302   2.210 -1.3771 -0.7082  0.2187
20244TIP3   OH282222   0.316   0.931   4.480  0.1086 -0.1713 -0.0297
20244TIP3    H182223   0.380   0.921   4.550  2.1432 -0.4982 -1.8493
20244TIP3    H282224   0.239   0.969   4.523  0.6923 -1.7764  2.6533
20245TIP3   OH282225   0.822   0.467  14.964 -0.0090  0.6550  0.2719
20245TIP3    H182226   0.742   0.506  14.928 -0.5401 -0.5546  0.0909
20245TIP3    H282227   0.790   0.404  15.028  0.8010 -0.0218  0.0233
20246TIP3   OH282228   1.034   6.184   4.798 -0.3700  0.3616 -0.9382
20246TIP3    H182229   1.085   6.116   4.754 -0.5187  1.0362 -2.2297
20246TIP3    H282230   0.943   6.159   4.781 -0.4294  1.3219 -2.2161
20247TIP3   OH282231   3.398   3.849  11.626  0.2704 -0.8364 -0.0226
20247TIP3    H182232   3.375   3.873  11.716  0.7100 -0.3527 -0.0356
20247TIP3    H282233   3.314   3.839  11.581  0.0200 -1.8272  0.6228
20248TIP3   OH282234   3.264   5.935  11.099 -0.7511 -0.1207 -0.3215
20248TIP3    H182235   3.310   5.851  11.098  2.1178  1.2650  0.8099
20248TIP3    H282236   3.205   5.931  11.024  0.6724 -2.4328 -1.4557
20249TIP3   OH282237   5.784   0.427   5.290 -0.4183 -0.1491  0.0161
20249TIP3    H182238   5.708   0.410   5.235 -0.7532  1.6253 -0.1399
20249TIP3    H282239   5.856   0.442   5.229 -0.4652  0.3857  0.0826
20250TIP3   OH282240   3.058   0.768   5.891  0.4932 -0.5302  0.3250
20250TIP3    H182241   3.110   0.770   5.971  2.6875  0.9801 -1.0071
20250TIP3    H282242   3.100   0.702   5.836 -1.6487 -2.3426  0.7380
20251TIP3   OH282243   5.113   5.240   2.925  0.2654  0.2083  0.3803
20251TIP3    H182244   5.110   5.199   3.011 -0.8750 -1.6526 -0.4969
20251TIP3    H282245   5.039   5.301   2.924 -1.0805 -1.3876 -0.0216
20252TIP3   OH282246   4.619   5.384  12.905 -0.0979 -0.0616  0.5532
20252TIP3    H182247   4.708   5.355  12.885  0.9199 -0.2316  4.4762
20252TIP3    H282248   4.628   5.478  12.920 -0.4999 -0.1360  1.2805
20253TIP3   OH282249   2.971   4.694  11.918 -0.1385  0.0414 -0.2105
20253TIP3    H182250   2.980   4.632  11.845 -1.6901 -0.5756  0.0732
20253TIP3    H282251   2.990   4.779  11.879 -0.0745 -0.3770 -1.1319
20254TIP3   OH282252   1.312   2.135   1.398  0.5298  0.2900 -0.4776
20254TIP3    H182253   1.392   2.087   1.375  0.3522 -0.9270  1.2467
20254TIP3    H282254   1.254   2.068   1.434 -1.3459  1.1365 -1.7984
20255TIP3   OH282255   6.373   5.634   0.009  0.2414  0.4379 -0.0769
20255TIP3    H182256   6.382   5.547   0.047 -0.6287  0.4795  0.2540
20255TIP3    H282257   6.448   5.683   0.042 -0.3093  0.3796  1.3304
20256TIP3   OH282258   5.399   2.861   5.321 -0.9665  0.2216 -0.4073
20256TIP3    H182259   5.481   2.814   5.306 -0.0292  2.4632 -2.9365
20256TIP3    H282260   5.384   2.853   5.416  2.0851 -0.4065  0.1192
20257TIP3   OH282261   2.013   6.283  17.008  0.5615 -0.7987 -0.0817
20257TIP3    H182262   2.043   6.215  17.068 -0.6099 -0.7798  0.5604
20257TIP3    H282263   2.076   6.282  16.936  1.3994 -1.5326  0.6467
20258TIP3   OH282264   3.014   5.493  12.959 -0.4064  0.1995 -0.2121
20258TIP3    H182265   3.064   5.465  13.036  0.7351 -2.4856 -1.8121
20258TIP3    H282266   2.925   5.503  12.992  0.4183  1.3450  1.9005
20259TIP3   OH282267   6.775   5.911  10.900  0.4931  0.3664  0.1592
20259TIP3    H182268   6.804   5.999  10.876  0.0683 -0.0423 -2.0799
20259TIP3    H282269   6.748   5.872  10.817 -2.8034 -0.6091  1.5469
20260TIP3   OH282270   0.841   5.628  11.510  0.5237  0.0008 -0.1845
20260TIP3    H182271   0.764   5.649  11.563  0.2278  1.2726 -1.0696
20260TIP3    H282272   0.883   5.713  11.495  0.5146 -0.2884 -2.0810
20261LIG     O182273   4.993   1.915   3.248  0.8160  0.4526 -0.1472
20261LIG     O282274   4.719   1.686   2.951 -0.1036 -0.2111  0.2738
20261LIG     N182275   4.748   1.910   2.909 -0.7860  0.5788  0.0198
20261LIG     N282276   4.911   2.169   3.105 -0.1079 -0.1966 -0.1969
20261LIG     N382277   4.862   1.803   3.098 -0.5892  0.4775 -0.1521
20261LIG     N482278   4.774   2.173   2.925 -0.2484 -0.5083  0.3709
20261LIG     C182279   4.887   2.036   3.075  0.1587 -0.4767  0.8195
20261LIG     C282280   4.798   2.035   2.958 -0.0812 -0.4053 -0.0627
20261LIG     C382281   4.925   1.920   3.146  0.3542  0.2679  0.5719
20261LIG     C482282   4.773   1.790   2.988  0.6825 -0.0619  0.2342
20261LIG     C582283   4.836   2.244   3.016 -0.6184 -0.5931 -0.0096
20261LIG     C682284   4.659   1.893   2.789 -0.3273  0.2967  0.2080
20261LIG     C782285   5.003   2.216   3.211 -0.3830 -0.2202  0.1107
20261LIG     C882286   4.883   1.678   3.184  0.1363  0.3064  0.2083
20261LIG     H182287   4.854   2.350   2.997 -1.6218 -0.8609 -2.9758
20261LIG     H282288   4.630   1.992   2.749 -1.9296 -0.3734 -0.3969
20261LIG     H382289   4.563   1.851   2.828  0.2120  0.3152  1.6172
20261LIG     H482290   4.711   1.825   2.718 -2.6599 -0.9714 -0.3975
20261LIG     H582291   4.974   2.318   3.244 -1.3499 -0.9944  1.8001
20261LIG     H682292   5.109   2.216   3.178 -0.7468  2.7677 -1.3758
20261LIG     H782293   5.003   2.155   3.304 -0.1071  0.6640  0.7013
20261LIG     H882294   4.879   1.579   3.132  0.5639 -0.7856  2.1603
20261LIG     H982295   4.819   1.681   3.275  0.8083  1.5151  0.6591
20261LIG    H1082296   4.991   1.670   3.208  0.8077  0.8363 -2.3106
   6.85210   6.85210  17.11245
